                               Psi4 1.4a2.dev224

  ==> Input File <==

--------------------------------------------------------------------------
#Generated by lconvert.py for cbs job

memory 40 GB

molecule  {
0 1
  O       -0.7021960    -0.0560600     0.0099420
  H       -1.0221930     0.8467760    -0.0114890
  H        0.2575210     0.0421210     0.0052190
--
0 1
  O        2.3695490     0.0255500     0.0002720
  H        2.7461700    -0.4128300     0.7663970
  H        2.7418130    -0.4506630    -0.7451300
units angstrom
no_reorient
symmetry c1
}

set {
scf_type DF
mp2_type DF
e_convergence 7
reference rhf
}

energy('mp2/aug-cc-pv[tq]z', bsse_type='cp')
--------------------------------------------------------------------------

    Molecular point group: c1
  Charge       = 0
  Multiplicity = 1
  Basis Set: AUG-CC-PVTZ
    Blend: AUG-CC-PVTZ
  Basis Set: (AUG-CC-PVTZ AUX)
    Blend: AUG-CC-PVTZ-JKFIT
  @DF-RHF Final Energy:   -76.06039224586101
    Total Energy =                        -76.0603922458610242
  Basis Set: (AUG-CC-PVTZ AUX)
    Blend: AUG-CC-PVTZ-RI
	 Reference Energy          =     -76.0603922458610100 [Eh]
	 Singles Energy            =      -0.0000000000000000 [Eh]
	 Same-Spin Energy          =      -0.0683881619655676 [Eh]
	 Opposite-Spin Energy      =      -0.2153081489051349 [Eh]
	 Correlation Energy        =      -0.2836963108707025 [Eh]
	 Total Energy              =     -76.3440885567317196 [Eh]
	 SCS Total Energy          =     -76.3415580785356980 [Eh]
    Molecular point group: c1
  Basis Set: AUG-CC-PVQZ
    Blend: AUG-CC-PVQZ
  Basis Set: (AUG-CC-PVQZ AUX)
    Blend: AUG-CC-PVQZ-JKFIT
  @DF-RHF Final Energy:   -76.06577372399698
    Total Energy =                        -76.0657737239969833
  Basis Set: (AUG-CC-PVQZ AUX)
  @DF-RHF Final Energy:   -76.06045774473245
    Total Energy =                        -76.0604577447324317
  @DF-RHF Final Energy:   -76.06580293413262
    Total Energy =                        -76.0658029341326198
  @DF-RHF Final Energy:   -76.06024426822736
    Total Energy =                        -76.0602442682273647
  @DF-RHF Final Energy:   -76.06559547367151
    Total Energy =                        -76.0655954736715216
  @DF-RHF Final Energy:   -76.06020939195028
    Total Energy =                        -76.0602093919502806
  @DF-RHF Final Energy:   -76.06558247162506
    Total Energy =                        -76.0655824716250635
  Multiplicity = 1
  @DF-RHF Final Energy:  -152.12671397277376
    Total Energy =                       -152.1267139727737856
	 Singles Energy            =      -0.0000000000000000 [Eh]
	 Same-Spin Energy          =      -0.1378381592053942 [Eh]
	 Opposite-Spin Energy      =      -0.4321006791168535 [Eh]
	 Correlation Energy        =      -0.5699388383222477 [Eh]
	 Total Energy              =    -152.6966528110960155 [Eh]
	 SCS Total Energy          =    -152.6911808407824367 [Eh]
    Molecular point group: c1

    Geometry (in Angstrom), charge = 0, multiplicity = 1:

       Center              X                  Y                   Z               Mass
    ------------   -----------------  -----------------  -----------------  -----------------
         O           -1.574723888156    -0.043223032752     0.004986952419    15.994914619570
         H           -1.894720888156     0.859612967248    -0.016444047581     1.007825032230
         H           -0.615006888156     0.054957967248     0.000263952419     1.007825032230
         O            1.497021111844     0.038386967248    -0.004683047581    15.994914619570
         H            1.873642111844    -0.399993032752     0.761441952419     1.007825032230
         H            1.869285111844    -0.437826032752    -0.750085047581     1.007825032230

  Charge       = 0
  Multiplicity = 1
  Basis Set: AUG-CC-PVQZ
    Blend: AUG-CC-PVQZ
  Basis Set: (AUG-CC-PVQZ AUX)
    Blend: AUG-CC-PVQZ-JKFIT

    Orbital Energies [Eh]
    ---------------------

    Doubly Occupied:

       1A    -20.587213     2A    -20.538341     3A     -1.375479
       4A     -1.325854     5A     -0.737513     6A     -0.692661
       7A     -0.612264     8A     -0.561907     9A     -0.531703
      10A     -0.485358

  @DF-RHF Final Energy:  -152.13745370879607

   => Energetics <=

    Nuclear Repulsion Energy =             35.6166249383836728
    One-Electron Energy =                -280.6115697475842694
    Two-Electron Energy =                  92.8574911004045305
    Total Energy =                       -152.1374537087960732

  Dipole Moment: [D]
     X:     2.7947      Y:     0.1012      Z:    -0.0092     Total:     2.7966

  Basis Set: (AUG-CC-PVQZ AUX)
    Blend: AUG-CC-PVQZ-RI
	 Reference Energy          =    -152.1374537087960732 [Eh]
	 Singles Energy            =      -0.0000000000000000 [Eh]
	 Same-Spin Energy          =      -0.1464678318867252 [Eh]
	 Opposite-Spin Energy      =      -0.4893970993382033 [Eh]
	 Correlation Energy        =      -0.6358649312249285 [Eh]
	 Total Energy              =    -152.7733186400209888 [Eh]

	 ================> DF-SCS-MP2 Energies <==================
	-----------------------------------------------------------
	 SCS Same-Spin Scale       =       0.3333333333333333 [-]
	 SCS Opposite-Spin Scale   =       1.2000000000000000 [-]
	 SCS Same-Spin Energy      =      -0.0488226106289084 [Eh]
	 SCS Opposite-Spin Energy  =      -0.5872765192058439 [Eh]
	 SCS Correlation Energy    =      -0.6360991298347523 [Eh]
	 SCS Total Energy          =    -152.7735528386308204 [Eh]
	-----------------------------------------------------------

*** Psi4 exiting successfully. Buy a developer a beer!
