                               Psi4 1.4a2.dev224

  ==> Input File <==

--------------------------------------------------------------------------
#Generated by lconvert.py for cbs job

memory 40 GB

molecule  {
0 1
  O       -0.7021960    -0.0560600     0.0099420
  H       -1.0221930     0.8467760    -0.0114890
  H        0.2575210     0.0421210     0.0052190
--
0 1
  O        2.4701170     0.0247610     0.0000370
  H        2.8467380    -0.4136190     0.7661610
  H        2.8423810    -0.4514520    -0.7453660
units angstrom
no_reorient
symmetry c1
}

set {
scf_type DF
mp2_type DF
e_convergence 7
reference rhf
}

energy('mp2/aug-cc-pv[tq]z', bsse_type='cp')
--------------------------------------------------------------------------

    Molecular point group: c1
  Charge       = 0
  Multiplicity = 1
  Basis Set: AUG-CC-PVTZ
    Blend: AUG-CC-PVTZ
  Basis Set: (AUG-CC-PVTZ AUX)
    Blend: AUG-CC-PVTZ-JKFIT
  @DF-RHF Final Energy:   -76.06039224679270
    Total Energy =                        -76.0603922467927163
  Basis Set: (AUG-CC-PVTZ AUX)
    Blend: AUG-CC-PVTZ-RI
	 Reference Energy          =     -76.0603922467927021 [Eh]
	 Singles Energy            =      -0.0000000000000000 [Eh]
	 Same-Spin Energy          =      -0.0683881617433885 [Eh]
	 Opposite-Spin Energy      =      -0.2153081482385159 [Eh]
	 Correlation Energy        =      -0.2836963099819044 [Eh]
	 Total Energy              =     -76.3440885567746079 [Eh]
	 SCS Total Energy          =     -76.3415580785933798 [Eh]
    Molecular point group: c1
  Basis Set: AUG-CC-PVQZ
    Blend: AUG-CC-PVQZ
  Basis Set: (AUG-CC-PVQZ AUX)
    Blend: AUG-CC-PVQZ-JKFIT
  @DF-RHF Final Energy:   -76.06577372498809
    Total Energy =                        -76.0657737249880910
  Basis Set: (AUG-CC-PVQZ AUX)
  @DF-RHF Final Energy:   -76.06045743429107
    Total Energy =                        -76.0604574342910666
  @DF-RHF Final Energy:   -76.06580140922134
    Total Energy =                        -76.0658014092213364
  @DF-RHF Final Energy:   -76.06024018088031
    Total Energy =                        -76.0602401808803279
  @DF-RHF Final Energy:   -76.06559394363981
    Total Energy =                        -76.0655939436398114
  @DF-RHF Final Energy:   -76.06020939194299
    Total Energy =                        -76.0602093919429905
  @DF-RHF Final Energy:   -76.06558247163906
    Total Energy =                        -76.0655824716390612
  Multiplicity = 1
  @DF-RHF Final Energy:  -152.12656752535025
    Total Energy =                       -152.1265675253502252
	 Singles Energy            =      -0.0000000000000000 [Eh]
	 Same-Spin Energy          =      -0.1376604954253745 [Eh]
	 Opposite-Spin Energy      =      -0.4319234798864430 [Eh]
	 Correlation Energy        =      -0.5695839753118175 [Eh]
	 Total Energy              =    -152.6961515006620687 [Eh]
	 SCS Total Energy          =    -152.6907625330224505 [Eh]
    Molecular point group: c1

    Geometry (in Angstrom), charge = 0, multiplicity = 1:

       Center              X                  Y                   Z               Mass
    ------------   -----------------  -----------------  -----------------  -----------------
         O           -1.625007888156    -0.042828532752     0.005104508377    15.994914619570
         H           -1.945004888156     0.860007467248    -0.016326491623     1.007825032230
         H           -0.665290888156     0.055352467248     0.000381508377     1.007825032230
         O            1.547305111844     0.037992467248    -0.004800491623    15.994914619570
         H            1.923926111844    -0.400387532752     0.761323508377     1.007825032230
         H            1.919569111844    -0.438220532752    -0.750203491623     1.007825032230

  Charge       = 0
  Multiplicity = 1
  Basis Set: AUG-CC-PVQZ
    Blend: AUG-CC-PVQZ
  Basis Set: (AUG-CC-PVQZ AUX)
    Blend: AUG-CC-PVQZ-JKFIT

    Orbital Energies [Eh]
    ---------------------

    Doubly Occupied:

       1A    -20.585549     2A    -20.541048     3A     -1.373327
       4A     -1.328115     5A     -0.735662     6A     -0.693414
       7A     -0.610058     8A     -0.563719     9A     -0.530739
      10A     -0.487636

  @DF-RHF Final Energy:  -152.13729702037688

   => Energetics <=

    Nuclear Repulsion Energy =             35.0594130143358882
    One-Electron Energy =                -279.4948803967020012
    Two-Electron Energy =                  92.2981703619892642
    Total Energy =                       -152.1372970203768489

  Dipole Moment: [D]
     X:     2.7416      Y:     0.1065      Z:    -0.0092     Total:     2.7437

  Basis Set: (AUG-CC-PVQZ AUX)
    Blend: AUG-CC-PVQZ-RI
	 Reference Energy          =    -152.1372970203768773 [Eh]
	 Singles Energy            =      -0.0000000000000000 [Eh]
	 Same-Spin Energy          =      -0.1462868706137580 [Eh]
	 Opposite-Spin Energy      =      -0.4892475591664741 [Eh]
	 Correlation Energy        =      -0.6355344297802321 [Eh]
	 Total Energy              =    -152.7728314501570992 [Eh]

	 ================> DF-SCS-MP2 Energies <==================
	-----------------------------------------------------------
	 SCS Same-Spin Scale       =       0.3333333333333333 [-]
	 SCS Opposite-Spin Scale   =       1.2000000000000000 [-]
	 SCS Same-Spin Energy      =      -0.0487622902045860 [Eh]
	 SCS Opposite-Spin Energy  =      -0.5870970709997688 [Eh]
	 SCS Correlation Energy    =      -0.6358593612043548 [Eh]
	 SCS Total Energy          =    -152.7731563815812308 [Eh]
	-----------------------------------------------------------

*** Psi4 exiting successfully. Buy a developer a beer!
