                               Psi4 1.4a2.dev224

  ==> Input File <==

--------------------------------------------------------------------------
#Generated by lconvert.py for cbs job

memory 40 GB

molecule  {
0 1
  O       -0.7021960    -0.0560600     0.0099420
  H       -1.0221930     0.8467760    -0.0114890
  H        0.2575210     0.0421210     0.0052190
--
0 1
  O        2.1684130     0.0271280     0.0007430
  H        2.5450340    -0.4112520     0.7668680
  H        2.5406770    -0.4490850    -0.7446590
units angstrom
no_reorient
symmetry c1
}

set {
scf_type DF
mp2_type DF
e_convergence 7
reference rhf
}

energy('mp2/aug-cc-pv[tq]z', bsse_type='cp')
--------------------------------------------------------------------------

    Molecular point group: c1
  Charge       = 0
  Multiplicity = 1
  Basis Set: AUG-CC-PVTZ
    Blend: AUG-CC-PVTZ
  Basis Set: (AUG-CC-PVTZ AUX)
    Blend: AUG-CC-PVTZ-JKFIT
  @DF-RHF Final Energy:   -76.06039224587147
    Total Energy =                        -76.0603922458714692
  Basis Set: (AUG-CC-PVTZ AUX)
    Blend: AUG-CC-PVTZ-RI
	 Reference Energy          =     -76.0603922458714692 [Eh]
	 Singles Energy            =      -0.0000000000000000 [Eh]
	 Same-Spin Energy          =      -0.0683881619655602 [Eh]
	 Opposite-Spin Energy      =      -0.2153081489050727 [Eh]
	 Correlation Energy        =      -0.2836963108706329 [Eh]
	 Total Energy              =     -76.3440885567421077 [Eh]
	 SCS Total Energy          =     -76.3415580785460719 [Eh]
    Molecular point group: c1
  Basis Set: AUG-CC-PVQZ
    Blend: AUG-CC-PVQZ
  Basis Set: (AUG-CC-PVQZ AUX)
    Blend: AUG-CC-PVQZ-JKFIT
  @DF-RHF Final Energy:   -76.06577372400194
    Total Energy =                        -76.0657737240019429
  Basis Set: (AUG-CC-PVQZ AUX)
  @DF-RHF Final Energy:   -76.06046897557898
    Total Energy =                        -76.0604689755789849
  @DF-RHF Final Energy:   -76.06580701958910
    Total Energy =                        -76.0658070195891014
  @DF-RHF Final Energy:   -76.06025826459248
    Total Energy =                        -76.0602582645924770
  @DF-RHF Final Energy:   -76.06559901485537
    Total Energy =                        -76.0655990148553656
  @DF-RHF Final Energy:   -76.06020939193702
    Total Energy =                        -76.0602093919370219
  @DF-RHF Final Energy:   -76.06558247165432
    Total Energy =                        -76.0655824716543094
  Multiplicity = 1
  @DF-RHF Final Energy:  -152.12624059522497
    Total Energy =                       -152.1262405952249708
	 Singles Energy            =      -0.0000000000000000 [Eh]
	 Same-Spin Energy          =      -0.1383194479153537 [Eh]
	 Opposite-Spin Energy      =      -0.4325493340007701 [Eh]
	 Correlation Energy        =      -0.5708687819161238 [Eh]
	 Total Energy              =    -152.6971093771410892 [Eh]
	 SCS Total Energy          =    -152.6914062786643456 [Eh]
    Molecular point group: c1

    Geometry (in Angstrom), charge = 0, multiplicity = 1:

       Center              X                  Y                   Z               Mass
    ------------   -----------------  -----------------  -----------------  -----------------
         O           -1.474155888156    -0.044012032752     0.004751452419    15.994914619570
         H           -1.794152888156     0.858823967248    -0.016679547581     1.007825032230
         H           -0.514438888156     0.054168967248     0.000028452419     1.007825032230
         O            1.396453111844     0.039175967248    -0.004447547581    15.994914619570
         H            1.773074111844    -0.399204032752     0.761677452419     1.007825032230
         H            1.768717111844    -0.437037032752    -0.749849547581     1.007825032230

  Charge       = 0
  Multiplicity = 1
  Basis Set: AUG-CC-PVQZ
    Blend: AUG-CC-PVQZ
  Basis Set: (AUG-CC-PVQZ AUX)
    Blend: AUG-CC-PVQZ-JKFIT

    Orbital Energies [Eh]
    ---------------------

    Doubly Occupied:

       1A    -20.591114     2A    -20.531335     3A     -1.381048
       4A     -1.320219     5A     -0.742091     6A     -0.692800
       7A     -0.616763     8A     -0.558734     9A     -0.531963
      10A     -0.479625

  @DF-RHF Final Energy:  -152.13698039869712

   => Energetics <=

    Nuclear Repulsion Energy =             36.8534544666368049
    One-Electron Energy =                -283.0894787115639133
    Two-Electron Energy =                  94.0990438462299750
    Total Energy =                       -152.1369803986971192

  Dipole Moment: [D]
     X:     2.9303      Y:     0.0874      Z:    -0.0092     Total:     2.9316

  Basis Set: (AUG-CC-PVQZ AUX)
    Blend: AUG-CC-PVQZ-RI
	 Reference Energy          =    -152.1369803986971192 [Eh]
	 Singles Energy            =      -0.0000000000000000 [Eh]
	 Same-Spin Energy          =      -0.1469603873276586 [Eh]
	 Opposite-Spin Energy      =      -0.4898003498252927 [Eh]
	 Correlation Energy        =      -0.6367607371529513 [Eh]
	 Total Energy              =    -152.7737411358500594 [Eh]

	 ================> DF-SCS-MP2 Energies <==================
	-----------------------------------------------------------
	 SCS Same-Spin Scale       =       0.3333333333333333 [-]
	 SCS Opposite-Spin Scale   =       1.2000000000000000 [-]
	 SCS Same-Spin Energy      =      -0.0489867957758862 [Eh]
	 SCS Opposite-Spin Energy  =      -0.5877604197903513 [Eh]
	 SCS Correlation Energy    =      -0.6367472155662375 [Eh]
	 SCS Total Energy          =    -152.7737276142633505 [Eh]
	-----------------------------------------------------------

*** Psi4 exiting successfully. Buy a developer a beer!
