                               Psi4 1.4a2.dev224

  ==> Input File <==

--------------------------------------------------------------------------
#Generated by lconvert.py for cbs job

memory 40 GB

molecule  {
0 1
  O       -0.7021960    -0.0560600     0.0099420
  H       -1.0221930     0.8467760    -0.0114890
  H        0.2575210     0.0421210     0.0052190
--
0 1
  O        2.0677720     0.0279180     0.0009790
  H        2.4443940    -0.4104620     0.7671030
  H        2.4400370    -0.4482950    -0.7444230
units angstrom
no_reorient
symmetry c1
}

set {
scf_type DF
mp2_type DF
e_convergence 7
reference rhf
}

energy('mp2/aug-cc-pv[tq]z', bsse_type='cp')
--------------------------------------------------------------------------

    Molecular point group: c1
  Charge       = 0
  Multiplicity = 1
  Basis Set: AUG-CC-PVTZ
    Blend: AUG-CC-PVTZ
  Basis Set: (AUG-CC-PVTZ AUX)
    Blend: AUG-CC-PVTZ-JKFIT
  @DF-RHF Final Energy:   -76.06039223794879
    Total Energy =                        -76.0603922379487898
  Basis Set: (AUG-CC-PVTZ AUX)
    Blend: AUG-CC-PVTZ-RI
	 Reference Energy          =     -76.0603922379487898 [Eh]
	 Singles Energy            =      -0.0000000000000000 [Eh]
	 Same-Spin Energy          =      -0.0683881637648823 [Eh]
	 Opposite-Spin Energy      =      -0.2153081537998915 [Eh]
	 Correlation Energy        =      -0.2836963175647739 [Eh]
	 Total Energy              =     -76.3440885555135651 [Eh]
	 SCS Total Energy          =     -76.3415580770969484 [Eh]
    Molecular point group: c1
  Basis Set: AUG-CC-PVQZ
    Blend: AUG-CC-PVQZ
  Basis Set: (AUG-CC-PVQZ AUX)
    Blend: AUG-CC-PVQZ-JKFIT
  @DF-RHF Final Energy:   -76.06577371621492
    Total Energy =                        -76.0657737162149203
  Basis Set: (AUG-CC-PVQZ AUX)
  @DF-RHF Final Energy:   -76.06048210767405
    Total Energy =                        -76.0604821076740478
  @DF-RHF Final Energy:   -76.06581081206019
    Total Energy =                        -76.0658108120601923
  @DF-RHF Final Energy:   -76.06026852990477
    Total Energy =                        -76.0602685299047607
  @DF-RHF Final Energy:   -76.06560103260477
    Total Energy =                        -76.0656010326047749
  @DF-RHF Final Energy:   -76.06020939194629
    Total Energy =                        -76.0602093919462732
  @DF-RHF Final Energy:   -76.06558247161919
    Total Energy =                        -76.0655824716191802
  Multiplicity = 1
  @DF-RHF Final Energy:  -152.12529312489622
    Total Energy =                       -152.1252931248962170
	 Singles Energy            =      -0.0000000000000000 [Eh]
	 Same-Spin Energy          =      -0.1386401107629345 [Eh]
	 Opposite-Spin Energy      =      -0.4328410277393059 [Eh]
	 Correlation Energy        =      -0.5714811385022405 [Eh]
	 Total Energy              =    -152.6967742633984528 [Eh]
	 SCS Total Energy          =    -152.6909157284376874 [Eh]
    Molecular point group: c1

    Geometry (in Angstrom), charge = 0, multiplicity = 1:

       Center              X                  Y                   Z               Mass
    ------------   -----------------  -----------------  -----------------  -----------------
         O           -1.423835444113    -0.044407032752     0.004633480398    15.994914619570
         H           -1.743832444113     0.858428967248    -0.016797519602     1.007825032230
         H           -0.464118444113     0.053773967248    -0.000089519602     1.007825032230
         O            1.346132555887     0.039570967248    -0.004329519602    15.994914619570
         H            1.722754555887    -0.398809032752     0.761794480398     1.007825032230
         H            1.718397555887    -0.436642032752    -0.749731519602     1.007825032230

  Charge       = 0
  Multiplicity = 1
  Basis Set: AUG-CC-PVQZ
    Blend: AUG-CC-PVQZ
  Basis Set: (AUG-CC-PVQZ AUX)
    Blend: AUG-CC-PVQZ-JKFIT

    Orbital Energies [Eh]
    ---------------------

    Doubly Occupied:

       1A    -20.593416     2A    -20.526784     3A     -1.384728
       4A     -1.316701     5A     -0.744956     6A     -0.694512
       7A     -0.618703     8A     -0.557953     9A     -0.530342
      10A     -0.476014

  @DF-RHF Final Energy:  -152.13601530240894

   => Energetics <=

    Nuclear Repulsion Energy =             37.5432635316932561
    One-Electron Energy =                -284.4703340555090563
    Two-Electron Energy =                  94.7910552214068503
    Total Energy =                       -152.1360153024089641

  Dipole Moment: [D]
     X:     3.0169      Y:     0.0785      Z:    -0.0091     Total:     3.0179

  Basis Set: (AUG-CC-PVQZ AUX)
    Blend: AUG-CC-PVQZ-RI
	 Reference Energy          =    -152.1360153024089357 [Eh]
	 Singles Energy            =      -0.0000000000000000 [Eh]
	 Same-Spin Energy          =      -0.1472905929157345 [Eh]
	 Opposite-Spin Energy      =      -0.4900699211990903 [Eh]
	 Correlation Energy        =      -0.6373605141148249 [Eh]
	 Total Energy              =    -152.7733758165237532 [Eh]

	 ================> DF-SCS-MP2 Energies <==================
	-----------------------------------------------------------
	 SCS Same-Spin Scale       =       0.3333333333333333 [-]
	 SCS Opposite-Spin Scale   =       1.2000000000000000 [-]
	 SCS Same-Spin Energy      =      -0.0490968643052448 [Eh]
	 SCS Opposite-Spin Energy  =      -0.5880839054389083 [Eh]
	 SCS Correlation Energy    =      -0.6371807697441532 [Eh]
	 SCS Total Energy          =    -152.7731960721530982 [Eh]
	-----------------------------------------------------------

*** Psi4 exiting successfully. Buy a developer a beer!
