                               Psi4 1.4a2.dev224

  ==> Input File <==

--------------------------------------------------------------------------
#Generated by lconvert.py for cbs job

memory 40 GB

molecule  {
0 1
  O       -0.7021960    -0.0560600     0.0099420
  H       -1.0221930     0.8467760    -0.0114890
  H        0.2575210     0.0421210     0.0052190
--
0 1
  O        1.6654730     0.0310750     0.0019210
  H        2.0420940    -0.4073060     0.7680460
  H        2.0377370    -0.4451380    -0.7434810
units angstrom
no_reorient
symmetry c1
}

set {
scf_type DF
mp2_type DF
e_convergence 7
reference rhf
}

energy('mp2/aug-cc-pv[tq]z', bsse_type='cp')
--------------------------------------------------------------------------

    Molecular point group: c1
  Charge       = 0
  Multiplicity = 1
  Basis Set: AUG-CC-PVTZ
    Blend: AUG-CC-PVTZ
  Basis Set: (AUG-CC-PVTZ AUX)
    Blend: AUG-CC-PVTZ-JKFIT
  @DF-RHF Final Energy:   -76.06039222577648
    Total Energy =                        -76.0603922257764822
  Basis Set: (AUG-CC-PVTZ AUX)
    Blend: AUG-CC-PVTZ-RI
	 Reference Energy          =     -76.0603922257764822 [Eh]
	 Singles Energy            =      -0.0000000000000000 [Eh]
	 Same-Spin Energy          =      -0.0683881667116819 [Eh]
	 Opposite-Spin Energy      =      -0.2153081631409270 [Eh]
	 Correlation Energy        =      -0.2836963298526088 [Eh]
	 Total Energy              =     -76.3440885556290851 [Eh]
	 SCS Total Energy          =     -76.3415580771161615 [Eh]
    Molecular point group: c1
  Basis Set: AUG-CC-PVQZ
    Blend: AUG-CC-PVQZ
  Basis Set: (AUG-CC-PVQZ AUX)
    Blend: AUG-CC-PVQZ-JKFIT
  @DF-RHF Final Energy:   -76.06577370280968
    Total Energy =                        -76.0657737028096790
  Basis Set: (AUG-CC-PVQZ AUX)
  @DF-RHF Final Energy:   -76.06054915275992
    Total Energy =                        -76.0605491527599185
  @DF-RHF Final Energy:   -76.06582754829316
    Total Energy =                        -76.0658275482931572
  @DF-RHF Final Energy:   -76.06031902867880
    Total Energy =                        -76.0603190286788049
  @DF-RHF Final Energy:   -76.06561016503784
    Total Energy =                        -76.0656101650378531
  @DF-RHF Final Energy:   -76.06020939193589
    Total Energy =                        -76.0602093919358992
  @DF-RHF Final Energy:   -76.06558247165832
    Total Energy =                        -76.0655824716583311
  Multiplicity = 1
  @DF-RHF Final Energy:  -152.10780052397843
    Total Energy =                       -152.1078005239784261
	 Singles Energy            =      -0.0000000000000000 [Eh]
	 Same-Spin Energy          =      -0.1406863046233780 [Eh]
	 Opposite-Spin Energy      =      -0.4345608525685157 [Eh]
	 Correlation Energy        =      -0.5752471571918938 [Eh]
	 Total Energy              =    -152.6830476811703079 [Eh]
	 SCS Total Energy          =    -152.6761689819350920 [Eh]
    Molecular point group: c1

    Geometry (in Angstrom), charge = 0, multiplicity = 1:

       Center              X                  Y                   Z               Mass
    ------------   -----------------  -----------------  -----------------  -----------------
         O           -1.222685888156    -0.045985504774     0.004162452419    15.994914619570
         H           -1.542682888156     0.856850495226    -0.017268547581     1.007825032230
         H           -0.262968888156     0.052195495226    -0.000560547581     1.007825032230
         O            1.144983111844     0.041149495226    -0.003858547581    15.994914619570
         H            1.521604111844    -0.397231504774     0.762266452419     1.007825032230
         H            1.517247111844    -0.435063504774    -0.749260547581     1.007825032230

  Charge       = 0
  Multiplicity = 1
  Basis Set: AUG-CC-PVQZ
    Blend: AUG-CC-PVQZ
  Basis Set: (AUG-CC-PVQZ AUX)
    Blend: AUG-CC-PVQZ-JKFIT

    Orbital Energies [Eh]
    ---------------------

    Doubly Occupied:

       1A    -20.606089     2A    -20.497479     3A     -1.411230
       4A     -1.295915     5A     -0.762840     6A     -0.726748
       7A     -0.621700     8A     -0.559353     9A     -0.503946
      10A     -0.454356

  @DF-RHF Final Energy:  -152.11842362260870

   => Energetics <=

    Nuclear Repulsion Energy =             40.9317782152660286
    One-Electron Energy =                -291.2210858607522823
    Two-Electron Energy =                  98.1708840228775159
    Total Energy =                       -152.1184236226087307

  Dipole Moment: [D]
     X:     3.5514      Y:     0.0225      Z:    -0.0091     Total:     3.5515

  Basis Set: (AUG-CC-PVQZ AUX)
    Blend: AUG-CC-PVQZ-RI
	 Reference Energy          =    -152.1184236226087023 [Eh]
	 Singles Energy            =      -0.0000000000000000 [Eh]
	 Same-Spin Energy          =      -0.1494118234200798 [Eh]
	 Opposite-Spin Energy      =      -0.4918192828945301 [Eh]
	 Correlation Energy        =      -0.6412311063146099 [Eh]
	 Total Energy              =    -152.7596547289233229 [Eh]

	 ================> DF-SCS-MP2 Energies <==================
	-----------------------------------------------------------
	 SCS Same-Spin Scale       =       0.3333333333333333 [-]
	 SCS Opposite-Spin Scale   =       1.2000000000000000 [-]
	 SCS Same-Spin Energy      =      -0.0498039411400266 [Eh]
	 SCS Opposite-Spin Energy  =      -0.5901831394734360 [Eh]
	 SCS Correlation Energy    =      -0.6399870806134627 [Eh]
	 SCS Total Energy          =    -152.7584107032221539 [Eh]
	-----------------------------------------------------------

*** Psi4 exiting successfully. Buy a developer a beer!
