                               Psi4 1.4a2.dev224

  ==> Input File <==

--------------------------------------------------------------------------
#Generated by lconvert.py for cbs job

memory 40 GB

molecule  {
0 1
  O       -0.7021960    -0.0560600     0.0099420
  H       -1.0221930     0.8467760    -0.0114890
  H        0.2575210     0.0421210     0.0052190
--
0 1
  O        2.2688810     0.0263400     0.0005080
  H        2.6455020    -0.4120400     0.7666320
  H        2.6411450    -0.4498730    -0.7448940
units angstrom
no_reorient
symmetry c1
}

set {
scf_type DF
mp2_type DF
e_convergence 7
reference rhf
}

energy('mp2/aug-cc-pv[tq]z', bsse_type='cp')
--------------------------------------------------------------------------

    Molecular point group: c1
  Charge       = 0
  Multiplicity = 1
  Basis Set: AUG-CC-PVTZ
    Blend: AUG-CC-PVTZ
  Basis Set: (AUG-CC-PVTZ AUX)
    Blend: AUG-CC-PVTZ-JKFIT
  @DF-RHF Final Energy:   -76.06039227187405
    Total Energy =                        -76.0603922718740506
  Basis Set: (AUG-CC-PVTZ AUX)
    Blend: AUG-CC-PVTZ-RI
	 Reference Energy          =     -76.0603922718740506 [Eh]
	 Singles Energy            =      -0.0000000000000000 [Eh]
	 Same-Spin Energy          =      -0.0683881557420127 [Eh]
	 Opposite-Spin Energy      =      -0.2153081297138340 [Eh]
	 Correlation Energy        =      -0.2836962854558467 [Eh]
	 Total Energy              =     -76.3440885573298971 [Eh]
	 SCS Total Energy          =     -76.3415580794446527 [Eh]
    Molecular point group: c1
  Basis Set: AUG-CC-PVQZ
    Blend: AUG-CC-PVQZ
  Basis Set: (AUG-CC-PVQZ AUX)
    Blend: AUG-CC-PVQZ-JKFIT
  @DF-RHF Final Energy:   -76.06577375209093
    Total Energy =                        -76.0657737520909336
  Basis Set: (AUG-CC-PVQZ AUX)
  @DF-RHF Final Energy:   -76.06046084363713
    Total Energy =                        -76.0604608436371308
  @DF-RHF Final Energy:   -76.06580460698056
    Total Energy =                        -76.0658046069805778
  @DF-RHF Final Energy:   -76.06025013703916
    Total Energy =                        -76.0602501370391622
  @DF-RHF Final Energy:   -76.06559716681791
    Total Energy =                        -76.0655971668178950
  @DF-RHF Final Energy:   -76.06020939194306
    Total Energy =                        -76.0602093919430615
  @DF-RHF Final Energy:   -76.06558247163957
    Total Energy =                        -76.0655824716395728
  Multiplicity = 1
  @DF-RHF Final Energy:  -152.12664798357090
    Total Energy =                       -152.1266479835709049
	 Singles Energy            =      -0.0000000000000000 [Eh]
	 Same-Spin Energy          =      -0.1380553389226841 [Eh]
	 Opposite-Spin Energy      =      -0.4323059215759879 [Eh]
	 Correlation Energy        =      -0.5703612604986719 [Eh]
	 Total Energy              =    -152.6970092440695907 [Eh]
	 SCS Total Energy          =    -152.6914335357696473 [Eh]
    Molecular point group: c1

    Geometry (in Angstrom), charge = 0, multiplicity = 1:

       Center              X                  Y                   Z               Mass
    ------------   -----------------  -----------------  -----------------  -----------------
         O           -1.524389888156    -0.043618032752     0.004868980398    15.994914619570
         H           -1.844386888156     0.859217967248    -0.016562019602     1.007825032230
         H           -0.564672888156     0.054562967248     0.000145980398     1.007825032230
         O            1.446687111844     0.038781967248    -0.004565019602    15.994914619570
         H            1.823308111844    -0.399598032752     0.761558980398     1.007825032230
         H            1.818951111844    -0.437431032752    -0.749967019602     1.007825032230

  Charge       = 0
  Multiplicity = 1
  Basis Set: AUG-CC-PVQZ
    Blend: AUG-CC-PVQZ
  Basis Set: (AUG-CC-PVQZ AUX)
    Blend: AUG-CC-PVQZ-JKFIT

    Orbital Energies [Eh]
    ---------------------

    Doubly Occupied:

       1A    -20.589061     2A    -20.535138     3A     -1.378019
       4A     -1.323241     5A     -0.739639     6A     -0.692345
       7A     -0.614548     8A     -0.560158     9A     -0.532243
      10A     -0.482709

  @DF-RHF Final Energy:  -152.13739297151923

   => Energetics <=

    Nuclear Repulsion Energy =             36.2137679096402607
    One-Electron Energy =                -281.8081199400403420
    Two-Electron Energy =                  93.4569590588808410
    Total Energy =                       -152.1373929715192332

  Dipole Moment: [D]
     X:     2.8571      Y:     0.0949      Z:    -0.0092     Total:     2.8587

  Basis Set: (AUG-CC-PVQZ AUX)
    Blend: AUG-CC-PVQZ-RI
	 Reference Energy          =    -152.1373929715192332 [Eh]
	 Singles Energy            =      -0.0000000000000000 [Eh]
	 Same-Spin Energy          =      -0.1466896991871149 [Eh]
	 Opposite-Spin Energy      =      -0.4895791642938402 [Eh]
	 Correlation Energy        =      -0.6362688634809551 [Eh]
	 Total Energy              =    -152.7736618350001834 [Eh]

	 ================> DF-SCS-MP2 Energies <==================
	-----------------------------------------------------------
	 SCS Same-Spin Scale       =       0.3333333333333333 [-]
	 SCS Opposite-Spin Scale   =       1.2000000000000000 [-]
	 SCS Same-Spin Energy      =      -0.0488965663957050 [Eh]
	 SCS Opposite-Spin Energy  =      -0.5874949971526082 [Eh]
	 SCS Correlation Energy    =      -0.6363915635483132 [Eh]
	 SCS Total Energy          =    -152.7737845350675343 [Eh]
	-----------------------------------------------------------

*** Psi4 exiting successfully. Buy a developer a beer!
