                               Psi4 1.4a2.dev224

  ==> Input File <==

--------------------------------------------------------------------------
#Generated by lconvert.py for cbs job

memory 40 GB

molecule  {
0 1
  O       -0.7021960    -0.0560600     0.0099420
  H       -1.0221930     0.8467760    -0.0114890
  H        0.2575210     0.0421210     0.0052190
--
0 1
  O        1.6654730     0.0310750     0.0019210
  H        2.0420940    -0.4073060     0.7680460
  H        2.0377370    -0.4451380    -0.7434810
units angstrom
no_reorient
symmetry c1
}

set {
scf_type DF
mp2_type DF
e_convergence 7
reference rhf
}

energy('mp2/aug-cc-pv[tq]z', bsse_type='cp')
--------------------------------------------------------------------------

    Molecular point group: c1
  Charge       = 0
  Multiplicity = 1
  Basis Set: AUG-CC-PVTZ
    Blend: AUG-CC-PVTZ
  Basis Set: (AUG-CC-PVTZ AUX)
    Blend: AUG-CC-PVTZ-JKFIT
  @DF-RHF Final Energy:   -76.06039222577648
    Total Energy =                        -76.0603922257764822
  Basis Set: (AUG-CC-PVTZ AUX)
    Blend: AUG-CC-PVTZ-RI
	 Reference Energy          =     -76.0603922257764822 [Eh]
	 Singles Energy            =      -0.0000000000000000 [Eh]
	 Same-Spin Energy          =      -0.0683881667116819 [Eh]
	 Opposite-Spin Energy      =      -0.2153081631409270 [Eh]
	 Correlation Energy        =      -0.2836963298526088 [Eh]
	 Total Energy              =     -76.3440885556290851 [Eh]
	 SCS Total Energy          =     -76.3415580771161615 [Eh]
    Molecular point group: c1
  Basis Set: AUG-CC-PVQZ
    Blend: AUG-CC-PVQZ
  Basis Set: (AUG-CC-PVQZ AUX)
    Blend: AUG-CC-PVQZ-JKFIT
  @DF-RHF Final Energy:   -76.06577370280968
    Total Energy =                        -76.0657737028096790
  Basis Set: (AUG-CC-PVQZ AUX)
  @DF-RHF Final Energy:   -76.06054915275992
    Total Energy =                        -76.0605491527599185
  @DF-RHF Final Energy:   -76.06582754829316
    Total Energy =                        -76.0658275482931572
  @DF-RHF Final Energy:   -76.06031902867880
    Total Energy =                        -76.0603190286788049
  @DF-RHF Final Energy:   -76.06561016503784
    Total Energy =                        -76.0656101650378531
  @DF-RHF Final Energy:   -76.06020939193589
    Total Energy =                        -76.0602093919358992
  @DF-RHF Final Energy:   -76.06558247165832
    Total Energy =                        -76.0655824716583311
  @DF-RHF Final Energy:  -152.10780052397843
    Total Energy =                       -152.1078005239784261
  @DF-RHF Final Energy:  -152.11842362260870
    Total Energy =                       -152.1184236226087307
*** Psi4 exiting successfully. Buy a developer a beer!
                               Psi4 1.4a2.dev224
  @DF-RHF Final Energy:   -76.06039224586964
    Total Energy =                        -76.0603922458696218
  @DF-RHF Final Energy:   -76.06577372401479
    Total Energy =                        -76.0657737240148037
  @DF-RHF Final Energy:   -76.06051529179027
    Total Energy =                        -76.0605152917902672
  @DF-RHF Final Energy:   -76.06581897752383
    Total Energy =                        -76.0658189775238327
  @DF-RHF Final Energy:   -76.06029231691815
    Total Energy =                        -76.0602923169181366
  @DF-RHF Final Energy:   -76.06560549437359
    Total Energy =                        -76.0656054943735853
  @DF-RHF Final Energy:   -76.06020939194532
    Total Energy =                        -76.0602093919453210
  @DF-RHF Final Energy:   -76.06558247163412
    Total Energy =                        -76.0655824716341158
  @DF-RHF Final Energy:  -152.12046540979298
    Total Energy =                       -152.1204654097929563
  @DF-RHF Final Energy:  -152.13112795410888
    Total Energy =                       -152.1311279541088766
*** Psi4 exiting successfully. Buy a developer a beer!
                               Psi4 1.4a2.dev224
                               Psi4 1.4a2.dev224
                               Psi4 1.4a2.dev224
                               Psi4 1.4a2.dev224
                               Psi4 1.4a2.dev224
                               Psi4 1.4a2.dev224
                               Psi4 1.4a2.dev224
  @DF-RHF Final Energy:   -76.06039210102008
    Total Energy =                        -76.0603921010200992
  @DF-RHF Final Energy:   -76.06577356902091
    Total Energy =                        -76.0657735690209194
  @DF-RHF Final Energy:   -76.06040696903206
    Total Energy =                        -76.0604069690320586
  @DF-RHF Final Energy:   -76.06578361943163
    Total Energy =                        -76.0657836194316275
  @DF-RHF Final Energy:   -76.06021860956866
    Total Energy =                        -76.0602186095686505
  @DF-RHF Final Energy:   -76.06558590022327
    Total Energy =                        -76.0655859002232830
  @DF-RHF Final Energy:   -76.06020917271051
    Total Energy =                        -76.0602091727105005
  @DF-RHF Final Energy:   -76.06558224208727
    Total Energy =                        -76.0655822420872738
  @DF-RHF Final Energy:  -152.12333113908997
    Total Energy =                       -152.1233311390899416
  @DF-RHF Final Energy:  -152.13406501164889
    Total Energy =                       -152.1340650116488860
*** Psi4 exiting successfully. Buy a developer a beer!
                               Psi4 1.4a2.dev224
  @DF-RHF Final Energy:   -76.06039223544725
    Total Energy =                        -76.0603922354472530
  @DF-RHF Final Energy:   -76.06577371731875
    Total Energy =                        -76.0657737173187343
  @DF-RHF Final Energy:   -76.06040092652810
    Total Energy =                        -76.0604009265281036
  @DF-RHF Final Energy:   -76.06577724175300
    Total Energy =                        -76.0657772417529969
  @DF-RHF Final Energy:   -76.06021611416656
    Total Energy =                        -76.0602161141665647
  @DF-RHF Final Energy:   -76.06558401894301
    Total Energy =                        -76.0655840189430279
  @DF-RHF Final Energy:   -76.06020917270681
    Total Energy =                        -76.0602091727067915
  @DF-RHF Final Energy:   -76.06558224208928
    Total Energy =                        -76.0655822420892775
  Multiplicity = 1
  @DF-RHF Final Energy:  -152.12228404830037
    Total Energy =                       -152.1222840483003722
	 Singles Energy            =      -0.0000000000000000 [Eh]
	 Same-Spin Energy          =      -0.1368534348714796 [Eh]
	 Opposite-Spin Energy      =      -0.4307221284997313 [Eh]
	 Correlation Energy        =      -0.5675755633712110 [Eh]
	 Total Energy              =    -152.6898596116715794 [Eh]
	 SCS Total Energy          =    -152.6847684141238801 [Eh]
    Molecular point group: c1

    Geometry (in Angstrom), charge = 0, multiplicity = 1:

       Center              X                  Y                   Z               Mass
    ------------   -----------------  -----------------  -----------------  -----------------
         O           -2.429552087624    -0.036513200625     0.006986924440    15.994914619570
         H           -2.749542087624     0.866326799375    -0.014443075560     1.007825032230
         H           -1.469832087624     0.061666799375     0.002266924440     1.007825032230
         O            2.351847912376     0.031676799375    -0.006683075560    15.994914619570
         H            2.728477912376    -0.406703200625     0.759436924440     1.007825032230
         H            2.724117912376    -0.444533200625    -0.752083075560     1.007825032230

  Charge       = 0
  Multiplicity = 1
  Basis Set: AUG-CC-PVQZ
    Blend: AUG-CC-PVQZ
  Basis Set: (AUG-CC-PVQZ AUX)
    Blend: AUG-CC-PVQZ-JKFIT

    Orbital Energies [Eh]
    ---------------------

    Doubly Occupied:

       1A    -20.572581     2A    -20.557586     3A     -1.359224
       4A     -1.343205     5A     -0.722520     6A     -0.705695
       7A     -0.593438     8A     -0.578064     9A     -0.517898
      10A     -0.502452

  @DF-RHF Final Energy:  -152.13302331572299

   => Energetics <=

    Nuclear Repulsion Energy =             29.3917062161254385
    One-Electron Energy =                -268.1441297101259238
    Two-Electron Energy =                  86.6194001782774876
    Total Energy =                       -152.1330233157229941

  Dipole Moment: [D]
     X:     2.4249      Y:     0.1368      Z:    -0.0091     Total:     2.4288

  Basis Set: (AUG-CC-PVQZ AUX)
    Blend: AUG-CC-PVQZ-RI
	 Reference Energy          =    -152.1330233157229941 [Eh]
	 Singles Energy            =      -0.0000000000000000 [Eh]
	 Same-Spin Energy          =      -0.1455033901316684 [Eh]
	 Opposite-Spin Energy      =      -0.4885791433772976 [Eh]
	 Correlation Energy        =      -0.6340825335089659 [Eh]
	 Total Energy              =    -152.7671058492319673 [Eh]

	 ================> DF-SCS-MP2 Energies <==================
	-----------------------------------------------------------
	 SCS Same-Spin Scale       =       0.3333333333333333 [-]
	 SCS Opposite-Spin Scale   =       1.2000000000000000 [-]
	 SCS Same-Spin Energy      =      -0.0485011300438895 [Eh]
	 SCS Opposite-Spin Energy  =      -0.5862949720527570 [Eh]
	 SCS Correlation Energy    =      -0.6347961020966465 [Eh]
	 SCS Total Energy          =    -152.7678194178196520 [Eh]
	-----------------------------------------------------------

*** Psi4 exiting successfully. Buy a developer a beer!
