                               Psi4 1.4a2.dev224

  ==> Input File <==

--------------------------------------------------------------------------
#Generated by lconvert.py for cbs job

memory 20 GB

molecule  {
0 1
  O      -0.702200   -0.056060    0.009940
  H      -1.022190    0.846780   -0.011490
  H       0.257520    0.042120    0.005220
--
0 1
  O       2.872390    0.021600   -0.000900
  H       3.249010   -0.416780    0.765220
  H       3.244650   -0.454610   -0.746310
units angstrom
no_reorient
symmetry c1
}

set {
scf_type DF
mp2_type DF
e_convergence 7
reference rhf
}

energy('mp2/aug-cc-pv[tq]z', bsse_type='cp')
--------------------------------------------------------------------------

    Molecular point group: c1
  Charge       = 0
  Multiplicity = 1
  Basis Set: AUG-CC-PVTZ
    Blend: AUG-CC-PVTZ
  Basis Set: (AUG-CC-PVTZ AUX)
    Blend: AUG-CC-PVTZ-JKFIT
  @DF-RHF Final Energy:   -76.06039232393363
    Total Energy =                        -76.0603923239336268
  Basis Set: (AUG-CC-PVTZ AUX)
    Blend: AUG-CC-PVTZ-RI
	 Reference Energy          =     -76.0603923239336268 [Eh]
	 Singles Energy            =      -0.0000000000000000 [Eh]
	 Same-Spin Energy          =      -0.0683881436991904 [Eh]
	 Opposite-Spin Energy      =      -0.2153080955568127 [Eh]
	 Correlation Energy        =      -0.2836962392560031 [Eh]
	 Total Energy              =     -76.3440885631896293 [Eh]
	 SCS Total Energy          =     -76.3415580865015357 [Eh]
    Molecular point group: c1
  Basis Set: AUG-CC-PVQZ
    Blend: AUG-CC-PVQZ
  Basis Set: (AUG-CC-PVQZ AUX)
    Blend: AUG-CC-PVQZ-JKFIT
  @DF-RHF Final Energy:   -76.06577380468882
    Total Energy =                        -76.0657738046888028
  Basis Set: (AUG-CC-PVQZ AUX)
  @DF-RHF Final Energy:   -76.06044750846871
    Total Energy =                        -76.0604475084687124
  @DF-RHF Final Energy:   -76.06579286710593
    Total Energy =                        -76.0657928671059267
  @DF-RHF Final Energy:   -76.06022884431714
    Total Energy =                        -76.0602288443171375
  @DF-RHF Final Energy:   -76.06558936407579
    Total Energy =                        -76.0655893640757910
  @DF-RHF Final Energy:   -76.06020917270502
    Total Energy =                        -76.0602091727050151
  @DF-RHF Final Energy:   -76.06558224208372
    Total Energy =                        -76.0655822420837353
  Multiplicity = 1
  @DF-RHF Final Energy:  -152.12519842512569
    Total Energy =                       -152.1251984251256886
	 Singles Energy            =      -0.0000000000000000 [Eh]
	 Same-Spin Energy          =      -0.1372131566995966 [Eh]
	 Opposite-Spin Energy      =      -0.4313693841866019 [Eh]
	 Correlation Energy        =      -0.5685825408861984 [Eh]
	 Total Energy              =    -152.6937809660119001 [Eh]
	 SCS Total Energy          =    -152.6885794050494667 [Eh]
    Molecular point group: c1

    Geometry (in Angstrom), charge = 0, multiplicity = 1:

       Center              X                  Y                   Z               Mass
    ------------   -----------------  -----------------  -----------------  -----------------
         O           -1.826146528049    -0.041248200625     0.005572204228    15.994914619570
         H           -2.146136528049     0.861591799375    -0.015857795772     1.007825032230
         H           -0.866426528049     0.056931799375     0.000852204228     1.007825032230
         O            1.748443471951     0.036411799375    -0.005267795772    15.994914619570
         H            2.125063471951    -0.401968200625     0.760852204228     1.007825032230
         H            2.120703471951    -0.439798200625    -0.750677795772     1.007825032230

  Charge       = 0
  Multiplicity = 1
  Basis Set: AUG-CC-PVQZ
    Blend: AUG-CC-PVQZ
  Basis Set: (AUG-CC-PVQZ AUX)
    Blend: AUG-CC-PVQZ-JKFIT

    Orbital Energies [Eh]
    ---------------------

    Doubly Occupied:

       1A    -20.580331     2A    -20.548508     3A     -1.367242
       4A     -1.334643     5A     -0.730181     6A     -0.697594
       7A     -0.602950     8A     -0.569791     9A     -0.526100
      10A     -0.494125

  @DF-RHF Final Energy:  -152.13590665817313

   => Energetics <=

    Nuclear Repulsion Energy =             33.1535408066244770
    One-Electron Energy =                -275.6759621829174876
    Two-Electron Energy =                  90.3865147181198836
    Total Energy =                       -152.1359066581731270

  Dipole Moment: [D]
     X:     2.5940      Y:     0.1212      Z:    -0.0092     Total:     2.5968

  Basis Set: (AUG-CC-PVQZ AUX)
    Blend: AUG-CC-PVQZ-RI
	 Reference Energy          =    -152.1359066581731270 [Eh]
	 Singles Energy            =      -0.0000000000000000 [Eh]
	 Same-Spin Energy          =      -0.1458383279620769 [Eh]
	 Opposite-Spin Energy      =      -0.4888611721247799 [Eh]
	 Correlation Energy        =      -0.6346995000868567 [Eh]
	 Total Energy              =    -152.7706061582599943 [Eh]

	 ================> DF-SCS-MP2 Energies <==================
	-----------------------------------------------------------
	 SCS Same-Spin Scale       =       0.3333333333333333 [-]
	 SCS Opposite-Spin Scale   =       1.2000000000000000 [-]
	 SCS Same-Spin Energy      =      -0.0486127759873590 [Eh]
	 SCS Opposite-Spin Energy  =      -0.5866334065497358 [Eh]
	 SCS Correlation Energy    =      -0.6352461825370948 [Eh]
	 SCS Total Energy          =    -152.7711528407102151 [Eh]
	-----------------------------------------------------------

*** Psi4 exiting successfully. Buy a developer a beer!
