                               Psi4 1.4a2.dev224

  ==> Input File <==

--------------------------------------------------------------------------
#Generated by lconvert.py for cbs job

memory 40 GB

molecule  {
0 1
  O       -0.7021960    -0.0560600     0.0099420
  H       -1.0221930     0.8467760    -0.0114890
  H        0.2575210     0.0421210     0.0052190
--
0 1
  O        1.8666090     0.0294960     0.0014500
  H        2.2432300    -0.4088840     0.7675750
  H        2.2388730    -0.4467170    -0.7439520
units angstrom
no_reorient
symmetry c1
}

set {
scf_type DF
mp2_type DF
e_convergence 7
reference rhf
}

energy('mp2/aug-cc-pv[tq]z', bsse_type='cp')
--------------------------------------------------------------------------

    Molecular point group: c1
  Charge       = 0
  Multiplicity = 1
  Basis Set: AUG-CC-PVTZ
    Blend: AUG-CC-PVTZ
  Basis Set: (AUG-CC-PVTZ AUX)
    Blend: AUG-CC-PVTZ-JKFIT
  @DF-RHF Final Energy:   -76.06039224586964
    Total Energy =                        -76.0603922458696218
  Basis Set: (AUG-CC-PVTZ AUX)
    Blend: AUG-CC-PVTZ-RI
	 Reference Energy          =     -76.0603922458696360 [Eh]
	 Singles Energy            =      -0.0000000000000000 [Eh]
	 Same-Spin Energy          =      -0.0683881619655664 [Eh]
	 Opposite-Spin Energy      =      -0.2153081489051225 [Eh]
	 Correlation Energy        =      -0.2836963108706889 [Eh]
	 Total Energy              =     -76.3440885567403313 [Eh]
	 SCS Total Energy          =     -76.3415580785443098 [Eh]
    Molecular point group: c1
  Basis Set: AUG-CC-PVQZ
    Blend: AUG-CC-PVQZ
  Basis Set: (AUG-CC-PVQZ AUX)
    Blend: AUG-CC-PVQZ-JKFIT
  @DF-RHF Final Energy:   -76.06577372401479
    Total Energy =                        -76.0657737240148037
  Basis Set: (AUG-CC-PVQZ AUX)
  @DF-RHF Final Energy:   -76.06051529179027
    Total Energy =                        -76.0605152917902672
  @DF-RHF Final Energy:   -76.06581897752383
    Total Energy =                        -76.0658189775238327
  @DF-RHF Final Energy:   -76.06029231691815
    Total Energy =                        -76.0602923169181366
  @DF-RHF Final Energy:   -76.06560549437359
    Total Energy =                        -76.0656054943735853
  @DF-RHF Final Energy:   -76.06020939194532
    Total Energy =                        -76.0602093919453210
  @DF-RHF Final Energy:   -76.06558247163412
    Total Energy =                        -76.0655824716341158
  Multiplicity = 1
  @DF-RHF Final Energy:  -152.12046540979298
    Total Energy =                       -152.1204654097929563
	 Singles Energy            =      -0.0000000000000000 [Eh]
	 Same-Spin Energy          =      -0.1394884000736941 [Eh]
	 Opposite-Spin Energy      =      -0.4335848921133918 [Eh]
	 Correlation Energy        =      -0.5730732921870858 [Eh]
	 Total Energy              =    -152.6935387019800601 [Eh]
	 SCS Total Energy          =    -152.6872634136869635 [Eh]
    Molecular point group: c1

    Geometry (in Angstrom), charge = 0, multiplicity = 1:

       Center              X                  Y                   Z               Mass
    ------------   -----------------  -----------------  -----------------  -----------------
         O           -1.323253888156    -0.045196032752     0.004397952419    15.994914619570
         H           -1.643250888156     0.857639967248    -0.017033047581     1.007825032230
         H           -0.363536888156     0.052984967248    -0.000325047581     1.007825032230
         O            1.245551111844     0.040359967248    -0.004094047581    15.994914619570
         H            1.622172111844    -0.398020032752     0.762030952419     1.007825032230
         H            1.617815111844    -0.435853032752    -0.749496047581     1.007825032230

  Charge       = 0
  Multiplicity = 1
  Basis Set: AUG-CC-PVQZ
    Blend: AUG-CC-PVQZ
  Basis Set: (AUG-CC-PVQZ AUX)
    Blend: AUG-CC-PVQZ-JKFIT

    Orbital Energies [Eh]
    ---------------------

    Doubly Occupied:

       1A    -20.598941     2A    -20.514776     3A     -1.394902
       4A     -1.307842     5A     -0.752326     6A     -0.704283
       7A     -0.620878     8A     -0.558665     9A     -0.521444
      10A     -0.466840

  @DF-RHF Final Energy:  -152.13112795410888

   => Energetics <=

    Nuclear Repulsion Energy =             39.0946929095772759
    One-Electron Energy =                -287.5698430882086427
    Two-Electron Energy =                  96.3440222245224902
    Total Energy =                       -152.1311279541088766

  Dipole Moment: [D]
     X:     3.2402      Y:     0.0554      Z:    -0.0091     Total:     3.2407

  Basis Set: (AUG-CC-PVQZ AUX)
    Blend: AUG-CC-PVQZ-RI
	 Reference Energy          =    -152.1311279541088766 [Eh]
	 Singles Energy            =      -0.0000000000000000 [Eh]
	 Same-Spin Energy          =      -0.1481717768651302 [Eh]
	 Opposite-Spin Energy      =      -0.4907982749662186 [Eh]
	 Correlation Energy        =      -0.6389700518313488 [Eh]
	 Total Energy              =    -152.7700980059402127 [Eh]

	 ================> DF-SCS-MP2 Energies <==================
	-----------------------------------------------------------
	 SCS Same-Spin Scale       =       0.3333333333333333 [-]
	 SCS Opposite-Spin Scale   =       1.2000000000000000 [-]
	 SCS Same-Spin Energy      =      -0.0493905922883767 [Eh]
	 SCS Opposite-Spin Energy  =      -0.5889579299594623 [Eh]
	 SCS Correlation Energy    =      -0.6383485222478390 [Eh]
	 SCS Total Energy          =    -152.7694764763567150 [Eh]
	-----------------------------------------------------------

*** Psi4 exiting successfully. Buy a developer a beer!
