                               Psi4 1.4a2.dev224

  ==> Input File <==

--------------------------------------------------------------------------
#Generated by lconvert.py for cbs job

memory 20 GB

molecule  {
0 1
  O      -0.702200   -0.056060    0.009940
  H      -1.022190    0.846780   -0.011490
  H       0.257520    0.042120    0.005220
--
0 1
  O       3.475800    0.016870   -0.002320
  H       3.852420   -0.421510    0.763810
  H       3.848060   -0.459350   -0.747720
units angstrom
no_reorient
symmetry c1
}

set {
scf_type DF
mp2_type DF
e_convergence 7
reference rhf
}

energy('mp2/aug-cc-pv[tq]z', bsse_type='cp')
--------------------------------------------------------------------------

    Molecular point group: c1
  Charge       = 0
  Multiplicity = 1
  Basis Set: AUG-CC-PVTZ
    Blend: AUG-CC-PVTZ
  Basis Set: (AUG-CC-PVTZ AUX)
    Blend: AUG-CC-PVTZ-JKFIT
  @DF-RHF Final Energy:   -76.06039210102008
    Total Energy =                        -76.0603921010200992
  Basis Set: (AUG-CC-PVTZ AUX)
    Blend: AUG-CC-PVTZ-RI
	 Reference Energy          =     -76.0603921010200850 [Eh]
	 Singles Energy            =      -0.0000000000000000 [Eh]
	 Same-Spin Energy          =      -0.0683881964407464 [Eh]
	 Opposite-Spin Energy      =      -0.2153082540201237 [Eh]
	 Correlation Energy        =      -0.2836964504608700 [Eh]
	 Total Energy              =     -76.3440885514809509 [Eh]
	 SCS Total Energy          =     -76.3415580713244850 [Eh]
    Molecular point group: c1
  Basis Set: AUG-CC-PVQZ
    Blend: AUG-CC-PVQZ
  Basis Set: (AUG-CC-PVQZ AUX)
    Blend: AUG-CC-PVQZ-JKFIT
  @DF-RHF Final Energy:   -76.06577356902091
    Total Energy =                        -76.0657735690209194
  Basis Set: (AUG-CC-PVQZ AUX)
  @DF-RHF Final Energy:   -76.06040696903206
    Total Energy =                        -76.0604069690320586
  @DF-RHF Final Energy:   -76.06578361943163
    Total Energy =                        -76.0657836194316275
  @DF-RHF Final Energy:   -76.06021860956866
    Total Energy =                        -76.0602186095686505
  @DF-RHF Final Energy:   -76.06558590022327
    Total Energy =                        -76.0655859002232830
  @DF-RHF Final Energy:   -76.06020917271051
    Total Energy =                        -76.0602091727105005
  @DF-RHF Final Energy:   -76.06558224208727
    Total Energy =                        -76.0655822420872738
  Multiplicity = 1
  @DF-RHF Final Energy:  -152.12333113908997
    Total Energy =                       -152.1233311390899416
	 Singles Energy            =      -0.0000000000000000 [Eh]
	 Same-Spin Energy          =      -0.1369445116587818 [Eh]
	 Opposite-Spin Energy      =      -0.4308964698084305 [Eh]
	 Correlation Energy        =      -0.5678409814672123 [Eh]
	 Total Energy              =    -152.6911721205571837 [Eh]
	 SCS Total Energy          =    -152.6860550734130015 [Eh]
    Molecular point group: c1

    Geometry (in Angstrom), charge = 0, multiplicity = 1:

       Center              X                  Y                   Z               Mass
    ------------   -----------------  -----------------  -----------------  -----------------
         O           -2.127851528049    -0.038882920837     0.006281644653    15.994914619570
         H           -2.447841528049     0.863957079163    -0.015148355347     1.007825032230
         H           -1.168131528049     0.059297079163     0.001561644653     1.007825032230
         O            2.050148471951     0.034047079163    -0.005978355347    15.994914619570
         H            2.426768471951    -0.404332920837     0.760151644653     1.007825032230
         H            2.422408471951    -0.442172920837    -0.751378355347     1.007825032230

  Charge       = 0
  Multiplicity = 1
  Basis Set: AUG-CC-PVQZ
    Blend: AUG-CC-PVQZ
  Basis Set: (AUG-CC-PVQZ AUX)
    Blend: AUG-CC-PVQZ-JKFIT

    Orbital Energies [Eh]
    ---------------------

    Doubly Occupied:

       1A    -20.575449     2A    -20.554388     3A     -1.362118
       4A     -1.340123     5A     -0.725328     6A     -0.702613
       7A     -0.596774     8A     -0.575119     9A     -0.520953
      10A     -0.499469

  @DF-RHF Final Energy:  -152.13406501164889

   => Energetics <=

    Nuclear Repulsion Energy =             30.9969351671103972
    One-Electron Energy =                -271.3573292366946816
    Two-Electron Energy =                  88.2263290579354020
    Total Energy =                       -152.1340650116488860

  Dipole Moment: [D]
     X:     2.4807      Y:     0.1318      Z:    -0.0091     Total:     2.4842

  Basis Set: (AUG-CC-PVQZ AUX)
    Blend: AUG-CC-PVQZ-RI
	 Reference Energy          =    -152.1340650116488860 [Eh]
	 Singles Energy            =      -0.0000000000000000 [Eh]
	 Same-Spin Energy          =      -0.1455824867520758 [Eh]
	 Opposite-Spin Energy      =      -0.4886326096406282 [Eh]
	 Correlation Energy        =      -0.6342150963927040 [Eh]
	 Total Energy              =    -152.7682801080415800 [Eh]

	 ================> DF-SCS-MP2 Energies <==================
	-----------------------------------------------------------
	 SCS Same-Spin Scale       =       0.3333333333333333 [-]
	 SCS Opposite-Spin Scale   =       1.2000000000000000 [-]
	 SCS Same-Spin Energy      =      -0.0485274955840253 [Eh]
	 SCS Opposite-Spin Energy  =      -0.5863591315687539 [Eh]
	 SCS Correlation Energy    =      -0.6348866271527791 [Eh]
	 SCS Total Energy          =    -152.7689516388016671 [Eh]
	-----------------------------------------------------------

*** Psi4 exiting successfully. Buy a developer a beer!
