                               Psi4 1.4a2.dev224

  ==> Input File <==

--------------------------------------------------------------------------
#Generated by lconvert.py for cbs job

memory 20 GB

molecule  {
0 1
  O      -0.525330   -0.050970   -0.314520
  H      -0.942010    0.747900    0.011250
  H       0.403700    0.059790   -0.073570
--
0 1
  O       2.947440    0.040790    0.119810
  H       3.315420   -0.531290    0.797340
  C       3.412440   -0.430840   -1.142340
  H       2.981630    0.220250   -1.895460
  H       4.498410   -0.380050   -1.216660
  H       3.084100   -1.450710   -1.341430
units angstrom
no_reorient
symmetry c1
}

set {
scf_type DF
mp2_type DF
e_convergence 7
reference rhf
}

energy('mp2/aug-cc-pv[tq]z', bsse_type='cp')
--------------------------------------------------------------------------

    Molecular point group: c1
  Charge       = 0
  Multiplicity = 1
  Basis Set: AUG-CC-PVTZ
    Blend: AUG-CC-PVTZ
  Basis Set: (AUG-CC-PVTZ AUX)
    Blend: AUG-CC-PVTZ-JKFIT
  @DF-RHF Final Energy:  -115.09200811862195
    Total Energy =                       -115.0920081186219477
  Basis Set: (AUG-CC-PVTZ AUX)
    Blend: AUG-CC-PVTZ-RI
	 Reference Energy          =    -115.0920081186219477 [Eh]
	 Singles Energy            =      -0.0000000000000000 [Eh]
	 Same-Spin Energy          =      -0.1057555884491171 [Eh]
	 Opposite-Spin Energy      =      -0.3647262560832472 [Eh]
	 Correlation Energy        =      -0.4704818445323643 [Eh]
	 Total Energy              =    -115.5624899631543059 [Eh]
	 SCS Total Energy          =    -115.5649314887382104 [Eh]
    Molecular point group: c1
  Basis Set: AUG-CC-PVQZ
    Blend: AUG-CC-PVQZ
  Basis Set: (AUG-CC-PVQZ AUX)
    Blend: AUG-CC-PVQZ-JKFIT
  @DF-RHF Final Energy:  -115.09951960245817
    Total Energy =                       -115.0995196024581730
  Basis Set: (AUG-CC-PVQZ AUX)
  @DF-RHF Final Energy:  -115.09206530272316
    Total Energy =                       -115.0920653027231566
  @DF-RHF Final Energy:  -115.09954249732147
    Total Energy =                       -115.0995424973214654
  @DF-RHF Final Energy:   -76.06018618972527
    Total Energy =                        -76.0601861897252718
  @DF-RHF Final Energy:   -76.06553535739475
    Total Energy =                        -76.0655353573947650
  @DF-RHF Final Energy:   -76.06015250953774
    Total Energy =                        -76.0601525095377440
  @DF-RHF Final Energy:   -76.06552203226632
    Total Energy =                        -76.0655220322663155
  Multiplicity = 1
  @DF-RHF Final Energy:  -191.15701963117775
    Total Energy =                       -191.1570196311777465
	 Singles Energy            =      -0.0000000000000000 [Eh]
	 Same-Spin Energy          =      -0.1748286286109369 [Eh]
	 Opposite-Spin Energy      =      -0.5812192900827506 [Eh]
	 Correlation Energy        =      -0.7560479186936875 [Eh]
	 Total Energy              =    -191.9130675498714425 [Eh]
	 SCS Total Energy          =    -191.9127589888140335 [Eh]
    Molecular point group: c1

    Geometry (in Angstrom), charge = 0, multiplicity = 1:

       Center              X                  Y                   Z               Mass
    ------------   -----------------  -----------------  -----------------  -----------------
         O           -2.386688173262     0.082480988659     0.096579148985    15.994914619570
         H           -2.803368173262     0.881350988659     0.422349148985     1.007825032230
         H           -1.457658173262     0.193240988659     0.337529148985     1.007825032230
         O            1.086081826738     0.174240988659     0.530909148985    15.994914619570
         H            1.454061826738    -0.397839011341     1.208439148985     1.007825032230
         C            1.551081826738    -0.297389011341    -0.731240851015    12.000000000000
         H            1.120271826738     0.353700988659    -1.484360851015     1.007825032230
         H            2.637051826738    -0.246599011341    -0.805560851015     1.007825032230
         H            1.222741826738    -1.317259011341    -0.930330851015     1.007825032230

  Charge       = 0
  Multiplicity = 1
  Basis Set: AUG-CC-PVQZ
    Blend: AUG-CC-PVQZ
  Basis Set: (AUG-CC-PVQZ AUX)
    Blend: AUG-CC-PVQZ-JKFIT

    Orbital Energies [Eh]
    ---------------------

    Doubly Occupied:

       1A    -20.569769     2A    -20.548818     3A    -11.277092
       4A     -1.368826     5A     -1.334576     6A     -0.935248
       7A     -0.703814     8A     -0.696347     9A     -0.630611
      10A     -0.603457    11A     -0.570108    12A     -0.516428
      13A     -0.494401    14A     -0.464705

  @DF-RHF Final Energy:  -191.16985154908511

   => Energetics <=

    Nuclear Repulsion Energy =             74.8935379619135233
    One-Electron Energy =                -410.6983738698772299
    Two-Electron Energy =                 144.6349843588785973
    Total Energy =                       -191.1698515490851094

  Dipole Moment: [D]
     X:     2.2337      Y:     0.0547      Z:     0.5772     Total:     2.3077

  Basis Set: (AUG-CC-PVQZ AUX)
    Blend: AUG-CC-PVQZ-RI
	 Reference Energy          =    -191.1698515490851094 [Eh]
	 Singles Energy            =      -0.0000000000000000 [Eh]
	 Same-Spin Energy          =      -0.1858469110478100 [Eh]
	 Opposite-Spin Energy      =      -0.6556123102929844 [Eh]
	 Correlation Energy        =      -0.8414592213407943 [Eh]
	 Total Energy              =    -192.0113107704258937 [Eh]

	 ================> DF-SCS-MP2 Energies <==================
	-----------------------------------------------------------
	 SCS Same-Spin Scale       =       0.3333333333333333 [-]
	 SCS Opposite-Spin Scale   =       1.2000000000000000 [-]
	 SCS Same-Spin Energy      =      -0.0619489703492700 [Eh]
	 SCS Opposite-Spin Energy  =      -0.7867347723515813 [Eh]
	 SCS Correlation Energy    =      -0.8486837427008512 [Eh]
	 SCS Total Energy          =    -192.0185352917859518 [Eh]
	-----------------------------------------------------------

*** Psi4 exiting successfully. Buy a developer a beer!
