                               Psi4 1.4a2.dev224

  ==> Input File <==

--------------------------------------------------------------------------
#Generated by lconvert.py for cbs job

memory 40 GB

molecule  {
0 1
  O       -0.5253300    -0.0509710    -0.3145170
  H       -0.9420070     0.7479020     0.0112530
  H        0.4036970     0.0597860    -0.0735680
--
0 1
  O        2.5561070     0.0437130     0.0900640
  H        2.9240900    -0.5283650     0.7675920
  C        3.0211120    -0.4279170    -1.1720950
  H        2.5902950     0.2231760    -1.9252090
  H        4.1070760    -0.3771250    -1.2464070
  H        2.6927700    -1.4477870    -1.3711760
units angstrom
no_reorient
symmetry c1
}

set {
scf_type DF
mp2_type DF
e_convergence 7
reference rhf
}

energy('mp2/aug-cc-pv[tq]z', bsse_type='cp')
--------------------------------------------------------------------------

    Molecular point group: c1
  Charge       = 0
  Multiplicity = 1
  Basis Set: AUG-CC-PVTZ
    Blend: AUG-CC-PVTZ
  Basis Set: (AUG-CC-PVTZ AUX)
    Blend: AUG-CC-PVTZ-JKFIT
  @DF-RHF Final Energy:  -115.09200795703404
    Total Energy =                       -115.0920079570340420
  Basis Set: (AUG-CC-PVTZ AUX)
    Blend: AUG-CC-PVTZ-RI
	 Reference Energy          =    -115.0920079570340420 [Eh]
	 Singles Energy            =      -0.0000000000000000 [Eh]
	 Same-Spin Energy          =      -0.1057555809088301 [Eh]
	 Opposite-Spin Energy      =      -0.3647263769202230 [Eh]
	 Correlation Energy        =      -0.4704819578290531 [Eh]
	 Total Energy              =    -115.5624899148630931 [Eh]
	 SCS Total Energy          =    -115.5649314696412517 [Eh]
    Molecular point group: c1
  Basis Set: AUG-CC-PVQZ
    Blend: AUG-CC-PVQZ
  Basis Set: (AUG-CC-PVQZ AUX)
    Blend: AUG-CC-PVQZ-JKFIT
  @DF-RHF Final Energy:  -115.09951943075322
    Total Energy =                       -115.0995194307532188
  Basis Set: (AUG-CC-PVQZ AUX)
  @DF-RHF Final Energy:  -115.09207476671278
    Total Energy =                       -115.0920747667127841
  @DF-RHF Final Energy:  -115.09955045429798
    Total Energy =                       -115.0995504542979830
  @DF-RHF Final Energy:   -76.06020168761057
    Total Energy =                        -76.0602016876105722
  @DF-RHF Final Energy:   -76.06554111150595
    Total Energy =                        -76.0655411115059508
  @DF-RHF Final Energy:   -76.06015263290834
    Total Energy =                        -76.0601526329083555
  @DF-RHF Final Energy:   -76.06552216123714
    Total Energy =                        -76.0655221612371264
  Multiplicity = 1
  @DF-RHF Final Energy:  -191.15838422959823
    Total Energy =                       -191.1583842295982265
	 Singles Energy            =      -0.0000000000000000 [Eh]
	 Same-Spin Energy          =      -0.1754465660281754 [Eh]
	 Opposite-Spin Energy      =      -0.5819415172879563 [Eh]
	 Correlation Energy        =      -0.7573880833161317 [Eh]
	 Total Energy              =    -191.9157723129143562 [Eh]
	 SCS Total Energy          =    -191.9151962390198207 [Eh]
    Molecular point group: c1

    Geometry (in Angstrom), charge = 0, multiplicity = 1:

       Center              X                  Y                   Z               Mass
    ------------   -----------------  -----------------  -----------------  -----------------
         O           -2.136215384749     0.080609331295     0.115622399333    15.994914619570
         H           -2.552892384749     0.879482331295     0.441392399333     1.007825032230
         H           -1.207188384749     0.191366331295     0.356571399333     1.007825032230
         O            0.945221615251     0.175293331295     0.520203399333    15.994914619570
         H            1.313204615251    -0.396784668705     1.197731399333     1.007825032230
         C            1.410226615251    -0.296336668705    -0.741955600667    12.000000000000
         H            0.979409615251     0.354756331295    -1.495069600667     1.007825032230
         H            2.496190615251    -0.245544668705    -0.816267600667     1.007825032230
         H            1.081884615251    -1.316206668705    -0.941036600667     1.007825032230

  Charge       = 0
  Multiplicity = 1
  Basis Set: AUG-CC-PVQZ
    Blend: AUG-CC-PVQZ
  Basis Set: (AUG-CC-PVQZ AUX)
    Blend: AUG-CC-PVQZ-JKFIT

    Orbital Energies [Eh]
    ---------------------

    Doubly Occupied:

       1A    -20.574500     2A    -20.540865     3A    -11.279085
       4A     -1.374318     5A     -1.327733     6A     -0.937927
       7A     -0.709839     8A     -0.691038     9A     -0.632727
      10A     -0.607417    11A     -0.564076    12A     -0.519528
      13A     -0.487620    14A     -0.468736

  @DF-RHF Final Energy:  -191.17123905430427

   => Energetics <=

    Nuclear Repulsion Energy =             77.8277277819085356
    One-Electron Energy =                -416.5671141166690177
    Two-Electron Energy =                 147.5681472804562020
    Total Energy =                       -191.1712390543042659

  Dipole Moment: [D]
     X:     2.3890      Y:     0.0326      Z:     0.5624     Total:     2.4545

  Basis Set: (AUG-CC-PVQZ AUX)
    Blend: AUG-CC-PVQZ-RI
	 Reference Energy          =    -191.1712390543042659 [Eh]
	 Singles Energy            =      -0.0000000000000000 [Eh]
	 Same-Spin Energy          =      -0.1864647073248671 [Eh]
	 Opposite-Spin Energy      =      -0.6561938675197797 [Eh]
	 Correlation Energy        =      -0.8426585748446469 [Eh]
	 Total Energy              =    -192.0138976291489143 [Eh]

	 ================> DF-SCS-MP2 Energies <==================
	-----------------------------------------------------------
	 SCS Same-Spin Scale       =       0.3333333333333333 [-]
	 SCS Opposite-Spin Scale   =       1.2000000000000000 [-]
	 SCS Same-Spin Energy      =      -0.0621549024416224 [Eh]
	 SCS Opposite-Spin Energy  =      -0.7874326410237357 [Eh]
	 SCS Correlation Energy    =      -0.8495875434653580 [Eh]
	 SCS Total Energy          =    -192.0208265977696271 [Eh]
	-----------------------------------------------------------

*** Psi4 exiting successfully. Buy a developer a beer!
