                               Psi4 1.4a2.dev224

  ==> Input File <==

--------------------------------------------------------------------------
#Generated by lconvert.py for cbs job

memory 40 GB

molecule  {
0 1
  O       -0.5253300    -0.0509710    -0.3145170
  H       -0.9420070     0.7479020     0.0112530
  H        0.4036970     0.0597860    -0.0735680
--
0 1
  O        2.4582750     0.0444430     0.0826260
  H        2.8262580    -0.5276340     0.7601550
  C        2.9232800    -0.4271870    -1.1795330
  H        2.4924630     0.2239070    -1.9326470
  H        4.0092440    -0.3763940    -1.2538450
  H        2.5949370    -1.4470560    -1.3786130
units angstrom
no_reorient
symmetry c1
}

set {
scf_type DF
mp2_type DF
e_convergence 7
reference rhf
}

energy('mp2/aug-cc-pv[tq]z', bsse_type='cp')
--------------------------------------------------------------------------

    Molecular point group: c1
  Charge       = 0
  Multiplicity = 1
  Basis Set: AUG-CC-PVTZ
    Blend: AUG-CC-PVTZ
  Basis Set: (AUG-CC-PVTZ AUX)
    Blend: AUG-CC-PVTZ-JKFIT
  @DF-RHF Final Energy:  -115.09200796429171
    Total Energy =                       -115.0920079642917102
  Basis Set: (AUG-CC-PVTZ AUX)
    Blend: AUG-CC-PVTZ-RI
	 Reference Energy          =    -115.0920079642917102 [Eh]
	 Singles Energy            =      -0.0000000000000000 [Eh]
	 Same-Spin Energy          =      -0.1057555790153551 [Eh]
	 Opposite-Spin Energy      =      -0.3647263735336503 [Eh]
	 Correlation Energy        =      -0.4704819525490054 [Eh]
	 Total Energy              =    -115.5624899168407183 [Eh]
	 SCS Total Energy          =    -115.5649314722038810 [Eh]
    Molecular point group: c1
  Basis Set: AUG-CC-PVQZ
    Blend: AUG-CC-PVQZ
  Basis Set: (AUG-CC-PVQZ AUX)
    Blend: AUG-CC-PVQZ-JKFIT
  @DF-RHF Final Energy:  -115.09951943766970
    Total Energy =                       -115.0995194376696986
  Basis Set: (AUG-CC-PVQZ AUX)
  @DF-RHF Final Energy:  -115.09207724723375
    Total Energy =                       -115.0920772472337461
  @DF-RHF Final Energy:  -115.09955203518101
    Total Energy =                       -115.0995520351810057
  @DF-RHF Final Energy:   -76.06020710783534
    Total Energy =                        -76.0602071078353390
  @DF-RHF Final Energy:   -76.06554283391876
    Total Energy =                        -76.0655428339187552
  @DF-RHF Final Energy:   -76.06015263290145
    Total Energy =                        -76.0601526329014490
  @DF-RHF Final Energy:   -76.06552216123164
    Total Energy =                        -76.0655221612316552
  Multiplicity = 1
  @DF-RHF Final Energy:  -191.15848828351301
    Total Energy =                       -191.1584882835130088
	 Singles Energy            =      -0.0000000000000000 [Eh]
	 Same-Spin Energy          =      -0.1756845658939565 [Eh]
	 Opposite-Spin Energy      =      -0.5822011728364729 [Eh]
	 Correlation Energy        =      -0.7578857387304294 [Eh]
	 Total Energy              =    -191.9163740222434456 [Eh]
	 SCS Total Energy          =    -191.9156912128814270 [Eh]
    Molecular point group: c1

    Geometry (in Angstrom), charge = 0, multiplicity = 1:

       Center              X                  Y                   Z               Mass
    ------------   -----------------  -----------------  -----------------  -----------------
         O           -2.073597652660     0.080142011688     0.120383076826    15.994914619570
         H           -2.490274652660     0.879015011688     0.446153076826     1.007825032230
         H           -1.144570652660     0.190899011688     0.361332076826     1.007825032230
         O            0.910007347340     0.175556011688     0.517526076826    15.994914619570
         H            1.277990347340    -0.396520988312     1.195055076826     1.007825032230
         C            1.375012347340    -0.296073988312    -0.744632923174    12.000000000000
         H            0.944195347340     0.355020011688    -1.497746923174     1.007825032230
         H            2.460976347340    -0.245280988312    -0.818944923174     1.007825032230
         H            1.046669347340    -1.315942988312    -0.943712923174     1.007825032230

  Charge       = 0
  Multiplicity = 1
  Basis Set: AUG-CC-PVQZ
    Blend: AUG-CC-PVQZ
  Basis Set: (AUG-CC-PVQZ AUX)
    Blend: AUG-CC-PVQZ-JKFIT

    Orbital Energies [Eh]
    ---------------------

    Doubly Occupied:

       1A    -20.576010     2A    -20.537947     3A    -11.279738
       4A     -1.376306     5A     -1.325336     6A     -0.938834
       7A     -0.712218     8A     -0.689662     9A     -0.633065
      10A     -0.608697    11A     -0.562162    12A     -0.520319
      13A     -0.485235    14A     -0.469943

  @DF-RHF Final Energy:  -191.17135026301079

   => Energetics <=

    Nuclear Repulsion Energy =             78.6702905995815485
    One-Electron Energy =                -418.2523323699718389
    Two-Electron Energy =                 148.4106915073794823
    Total Energy =                       -191.1713502630107939

  Dipole Moment: [D]
     X:     2.4448      Y:     0.0251      Z:     0.5585     Total:     2.5079

  Basis Set: (AUG-CC-PVQZ AUX)
    Blend: AUG-CC-PVQZ-RI
	 Reference Energy          =    -191.1713502630107939 [Eh]
	 Singles Energy            =      -0.0000000000000000 [Eh]
	 Same-Spin Energy          =      -0.1867044056420076 [Eh]
	 Opposite-Spin Energy      =      -0.6564099140728650 [Eh]
	 Correlation Energy        =      -0.8431143197148726 [Eh]
	 Total Energy              =    -192.0144645827256795 [Eh]

	 ================> DF-SCS-MP2 Energies <==================
	-----------------------------------------------------------
	 SCS Same-Spin Scale       =       0.3333333333333333 [-]
	 SCS Opposite-Spin Scale   =       1.2000000000000000 [-]
	 SCS Same-Spin Energy      =      -0.0622348018806692 [Eh]
	 SCS Opposite-Spin Energy  =      -0.7876918968874379 [Eh]
	 SCS Correlation Energy    =      -0.8499266987681071 [Eh]
	 SCS Total Energy          =    -192.0212769617789093 [Eh]
	-----------------------------------------------------------

*** Psi4 exiting successfully. Buy a developer a beer!
