                               Psi4 1.4a2.dev224

  ==> Input File <==

--------------------------------------------------------------------------
#Generated by lconvert.py for cbs job

memory 40 GB

molecule  {
0 1
  O       -0.5253300    -0.0509710    -0.3145170
  H       -0.9420070     0.7479020     0.0112530
  H        0.4036970     0.0597860    -0.0735680
--
0 1
  O        2.2626100     0.0459040     0.0677510
  H        2.6305930    -0.5261730     0.7452800
  C        2.7276150    -0.4257260    -1.1944080
  H        2.2967980     0.2253680    -1.9475220
  H        3.8135790    -0.3749330    -1.2687200
  H        2.3992730    -1.4455950    -1.3934880
units angstrom
no_reorient
symmetry c1
}

set {
scf_type DF
mp2_type DF
e_convergence 7
reference rhf
}

energy('mp2/aug-cc-pv[tq]z', bsse_type='cp')
--------------------------------------------------------------------------

    Molecular point group: c1
  Charge       = 0
  Multiplicity = 1
  Basis Set: AUG-CC-PVTZ
    Blend: AUG-CC-PVTZ
  Basis Set: (AUG-CC-PVTZ AUX)
    Blend: AUG-CC-PVTZ-JKFIT
  @DF-RHF Final Energy:  -115.09200796643509
    Total Energy =                       -115.0920079664350908
  Basis Set: (AUG-CC-PVTZ AUX)
    Blend: AUG-CC-PVTZ-RI
	 Reference Energy          =    -115.0920079664350908 [Eh]
	 Singles Energy            =      -0.0000000000000000 [Eh]
	 Same-Spin Energy          =      -0.1057555792541045 [Eh]
	 Opposite-Spin Energy      =      -0.3647263719426003 [Eh]
	 Correlation Energy        =      -0.4704819511967048 [Eh]
	 Total Energy              =    -115.5624899176317939 [Eh]
	 SCS Total Energy          =    -115.5649314725175856 [Eh]
    Molecular point group: c1
  Basis Set: AUG-CC-PVQZ
    Blend: AUG-CC-PVQZ
  Basis Set: (AUG-CC-PVQZ AUX)
    Blend: AUG-CC-PVQZ-JKFIT
  @DF-RHF Final Energy:  -115.09951943993839
    Total Energy =                       -115.0995194399383905
  Basis Set: (AUG-CC-PVQZ AUX)
  @DF-RHF Final Energy:  -115.09209470166182
    Total Energy =                       -115.0920947016618214
  @DF-RHF Final Energy:  -115.09955708428902
    Total Energy =                       -115.0995570842890174
  @DF-RHF Final Energy:   -76.06022314947953
    Total Energy =                        -76.0602231494795120
  @DF-RHF Final Energy:   -76.06554697404736
    Total Energy =                        -76.0655469740473507
  @DF-RHF Final Energy:   -76.06015263291005
    Total Energy =                        -76.0601526329100466
  @DF-RHF Final Energy:   -76.06552216126067
    Total Energy =                        -76.0655221612606738
  Multiplicity = 1
  @DF-RHF Final Energy:  -191.15781432646691
    Total Energy =                       -191.1578143264669052
	 Singles Energy            =      -0.0000000000000000 [Eh]
	 Same-Spin Energy          =      -0.1763105778301529 [Eh]
	 Opposite-Spin Energy      =      -0.5828646430286335 [Eh]
	 Correlation Energy        =      -0.7591752208587864 [Eh]
	 Total Energy              =    -191.9169895473256986 [Eh]
	 SCS Total Energy          =    -191.9160220907113228 [Eh]
    Molecular point group: c1

    Geometry (in Angstrom), charge = 0, multiplicity = 1:

       Center              X                  Y                   Z               Mass
    ------------   -----------------  -----------------  -----------------  -----------------
         O           -1.948361608854     0.079206893556     0.129903872324    15.994914619570
         H           -2.365038608854     0.878079893556     0.455673872324     1.007825032230
         H           -1.019334608854     0.189963893556     0.370852872324     1.007825032230
         O            0.839578391146     0.176081893556     0.512171872324    15.994914619570
         H            1.207561391146    -0.395995106444     1.189700872324     1.007825032230
         C            1.304583391146    -0.295548106444    -0.749987127676    12.000000000000
         H            0.873766391146     0.355545893556    -1.503101127676     1.007825032230
         H            2.390547391146    -0.244755106444    -0.824299127676     1.007825032230
         H            0.976241391146    -1.315417106444    -0.949067127676     1.007825032230

  Charge       = 0
  Multiplicity = 1
  Basis Set: AUG-CC-PVQZ
    Blend: AUG-CC-PVQZ
  Basis Set: (AUG-CC-PVQZ AUX)
    Blend: AUG-CC-PVQZ-JKFIT

    Orbital Energies [Eh]
    ---------------------

    Doubly Occupied:

       1A    -20.579551     2A    -20.530357     3A    -11.281331
       4A     -1.381547     5A     -1.319324     6A     -0.941098
       7A     -0.718765     8A     -0.687635     9A     -0.632955
      10A     -0.611536    11A     -0.558100    12A     -0.521464
      13A     -0.479399    14A     -0.472299

  @DF-RHF Final Energy:  -191.17066570562281

   => Energetics <=

    Nuclear Repulsion Energy =             80.5161267616642675
    One-Electron Energy =                -421.9428597414834030
    Two-Electron Energy =                 150.2560672741963117
    Total Energy =                       -191.1706657056228096

  Dipole Moment: [D]
     X:     2.5871      Y:     0.0067      Z:     0.5506     Total:     2.6451

  Basis Set: (AUG-CC-PVQZ AUX)
    Blend: AUG-CC-PVQZ-RI
	 Reference Energy          =    -191.1706657056228096 [Eh]
	 Singles Energy            =      -0.0000000000000000 [Eh]
	 Same-Spin Energy          =      -0.1873376012147961 [Eh]
	 Opposite-Spin Energy      =      -0.6569678009009785 [Eh]
	 Correlation Energy        =      -0.8443054021157745 [Eh]
	 Total Energy              =    -192.0149711077385746 [Eh]

	 ================> DF-SCS-MP2 Energies <==================
	-----------------------------------------------------------
	 SCS Same-Spin Scale       =       0.3333333333333333 [-]
	 SCS Opposite-Spin Scale   =       1.2000000000000000 [-]
	 SCS Same-Spin Energy      =      -0.0624458670715987 [Eh]
	 SCS Opposite-Spin Energy  =      -0.7883613610811742 [Eh]
	 SCS Correlation Energy    =      -0.8508072281527729 [Eh]
	 SCS Total Energy          =    -192.0214729337755841 [Eh]
	-----------------------------------------------------------

*** Psi4 exiting successfully. Buy a developer a beer!
