                               Psi4 1.4a2.dev224

  ==> Input File <==

--------------------------------------------------------------------------
#Generated by lconvert.py for cbs job

memory 40 GB

molecule  {
0 1
  O       -0.5253300    -0.0509710    -0.3145170
  H       -0.9420070     0.7479020     0.0112530
  H        0.4036970     0.0597860    -0.0735680
--
0 1
  O        1.9690140     0.0480970     0.0454310
  H        2.3369960    -0.5239810     0.7229600
  C        2.4340190    -0.4235330    -1.2167280
  H        2.0032020     0.2275610    -1.9698420
  H        3.5199820    -0.3727400    -1.2910400
  H        2.1056760    -1.4434030    -1.4158080
units angstrom
no_reorient
symmetry c1
}

set {
scf_type DF
mp2_type DF
e_convergence 7
reference rhf
}

energy('mp2/aug-cc-pv[tq]z', bsse_type='cp')
--------------------------------------------------------------------------

    Molecular point group: c1
  Charge       = 0
  Multiplicity = 1
  Basis Set: AUG-CC-PVTZ
    Blend: AUG-CC-PVTZ
  Basis Set: (AUG-CC-PVTZ AUX)
    Blend: AUG-CC-PVTZ-JKFIT
  @DF-RHF Final Energy:  -115.09200795590037
    Total Energy =                       -115.0920079559003710
  Basis Set: (AUG-CC-PVTZ AUX)
    Blend: AUG-CC-PVTZ-RI
	 Reference Energy          =    -115.0920079559003710 [Eh]
	 Singles Energy            =      -0.0000000000000000 [Eh]
	 Same-Spin Energy          =      -0.1057555812700687 [Eh]
	 Opposite-Spin Energy      =      -0.3647263796108463 [Eh]
	 Correlation Energy        =      -0.4704819608809150 [Eh]
	 Total Energy              =    -115.5624899167812885 [Eh]
	 SCS Total Energy          =    -115.5649314718567382 [Eh]
    Molecular point group: c1
  Basis Set: AUG-CC-PVQZ
    Blend: AUG-CC-PVQZ
  Basis Set: (AUG-CC-PVQZ AUX)
    Blend: AUG-CC-PVQZ-JKFIT
  @DF-RHF Final Energy:  -115.09951942861647
    Total Energy =                       -115.0995194286164747
  Basis Set: (AUG-CC-PVQZ AUX)
  @DF-RHF Final Energy:  -115.09214535948669
    Total Energy =                       -115.0921453594866932
  @DF-RHF Final Energy:  -115.09956866637756
    Total Energy =                       -115.0995686663775643
  @DF-RHF Final Energy:   -76.06025640428791
    Total Energy =                        -76.0602564042879123
  @DF-RHF Final Energy:   -76.06555480878373
    Total Energy =                        -76.0655548087837303
  @DF-RHF Final Energy:   -76.06015263290780
    Total Energy =                        -76.0601526329078013
  @DF-RHF Final Energy:   -76.06552216125010
    Total Energy =                        -76.0655221612501009
  Multiplicity = 1
  @DF-RHF Final Energy:  -191.15113256898326
    Total Energy =                       -191.1511325689832574
	 Singles Energy            =      -0.0000000000000000 [Eh]
	 Same-Spin Energy          =      -0.1777545961017390 [Eh]
	 Opposite-Spin Energy      =      -0.5842686570486276 [Eh]
	 Correlation Energy        =      -0.7620232531503667 [Eh]
	 Total Energy              =    -191.9131558221336320 [Eh]
	 SCS Total Energy          =    -191.9115064894755278 [Eh]
    Molecular point group: c1

    Geometry (in Angstrom), charge = 0, multiplicity = 1:

       Center              X                  Y                   Z               Mass
    ------------   -----------------  -----------------  -----------------  -----------------
         O           -1.760444407239     0.077803296560     0.144189865973    15.994914619570
         H           -2.177121407239     0.876676296560     0.469959865973     1.007825032230
         H           -0.831417407239     0.188560296560     0.385138865973     1.007825032230
         O            0.733899592761     0.176871296560     0.504137865973    15.994914619570
         H            1.101881592761    -0.395206703440     1.181666865973     1.007825032230
         C            1.198904592761    -0.294758703440    -0.758021134027    12.000000000000
         H            0.768087592761     0.356335296560    -1.511135134027     1.007825032230
         H            2.284867592761    -0.243965703440    -0.832333134027     1.007825032230
         H            0.870561592761    -1.314628703440    -0.957101134027     1.007825032230

  Charge       = 0
  Multiplicity = 1
  Basis Set: AUG-CC-PVQZ
    Blend: AUG-CC-PVQZ
  Basis Set: (AUG-CC-PVQZ AUX)
    Blend: AUG-CC-PVQZ-JKFIT

    Orbital Energies [Eh]
    ---------------------

    Doubly Occupied:

       1A    -20.586631     2A    -20.512372     3A    -11.284788
       4A     -1.394987     5A     -1.306002     6A     -0.946278
       7A     -0.736331     8A     -0.689617     9A     -0.631488
      10A     -0.613236    11A     -0.554158    12A     -0.519527
      13A     -0.475854    14A     -0.464716

  @DF-RHF Final Energy:  -191.16390380762800

   => Energetics <=

    Nuclear Repulsion Energy =             83.7773853610429882
    One-Electron Energy =                -428.4506109426537250
    Two-Electron Energy =                 153.5093217739827196
    Total Energy =                       -191.1639038076280031

  Dipole Moment: [D]
     X:     2.9116      Y:    -0.0333      Z:     0.5387     Total:     2.9612

  Basis Set: (AUG-CC-PVQZ AUX)
    Blend: AUG-CC-PVQZ-RI
	 Reference Energy          =    -191.1639038076280031 [Eh]
	 Singles Energy            =      -0.0000000000000000 [Eh]
	 Same-Spin Energy          =      -0.1888156073436920 [Eh]
	 Opposite-Spin Energy      =      -0.6582465756570463 [Eh]
	 Correlation Energy        =      -0.8470621830007383 [Eh]
	 Total Energy              =    -192.0109659906287334 [Eh]

	 ================> DF-SCS-MP2 Energies <==================
	-----------------------------------------------------------
	 SCS Same-Spin Scale       =       0.3333333333333333 [-]
	 SCS Opposite-Spin Scale   =       1.2000000000000000 [-]
	 SCS Same-Spin Energy      =      -0.0629385357812307 [Eh]
	 SCS Opposite-Spin Energy  =      -0.7898958907884555 [Eh]
	 SCS Correlation Energy    =      -0.8528344265696861 [Eh]
	 SCS Total Energy          =    -192.0167382341977032 [Eh]
	-----------------------------------------------------------

*** Psi4 exiting successfully. Buy a developer a beer!
