                               Psi4 1.4a2.dev224

  ==> Input File <==

--------------------------------------------------------------------------
#Generated by lconvert.py for cbs job

memory 40 GB

molecule  {
0 1
  O       -0.5253300    -0.0509710    -0.3145170
  H       -0.9420070     0.7479020     0.0112530
  H        0.4036970     0.0597860    -0.0735680
--
0 1
  O        1.7733490     0.0495580     0.0305560
  H        2.1413320    -0.5225200     0.7080850
  C        2.2383540    -0.4220720    -1.2316030
  H        1.8075370     0.2290220    -1.9847170
  H        3.3243180    -0.3712790    -1.3059150
  H        1.9100110    -1.4419420    -1.4306830
units angstrom
no_reorient
symmetry c1
}

set {
scf_type DF
mp2_type DF
e_convergence 7
reference rhf
}

energy('mp2/aug-cc-pv[tq]z', bsse_type='cp')
--------------------------------------------------------------------------

    Molecular point group: c1
  Charge       = 0
  Multiplicity = 1
  Basis Set: AUG-CC-PVTZ
    Blend: AUG-CC-PVTZ
  Basis Set: (AUG-CC-PVTZ AUX)
    Blend: AUG-CC-PVTZ-JKFIT
  @DF-RHF Final Energy:  -115.09200792971981
    Total Energy =                       -115.0920079297198129
  Basis Set: (AUG-CC-PVTZ AUX)
    Blend: AUG-CC-PVTZ-RI
	 Reference Energy          =    -115.0920079297198129 [Eh]
	 Singles Energy            =      -0.0000000000000000 [Eh]
	 Same-Spin Energy          =      -0.1057555856946673 [Eh]
	 Opposite-Spin Energy      =      -0.3647263983483412 [Eh]
	 Correlation Energy        =      -0.4704819840430084 [Eh]
	 Total Energy              =    -115.5624899137628177 [Eh]
	 SCS Total Energy          =    -115.5649314696360506 [Eh]
    Molecular point group: c1
  Basis Set: AUG-CC-PVQZ
    Blend: AUG-CC-PVQZ
  Basis Set: (AUG-CC-PVQZ AUX)
    Blend: AUG-CC-PVQZ-JKFIT
  @DF-RHF Final Energy:  -115.09951940094255
    Total Energy =                       -115.0995194009425546
  Basis Set: (AUG-CC-PVQZ AUX)
  @DF-RHF Final Energy:  -115.09218457971944
    Total Energy =                       -115.0921845797194436
  @DF-RHF Final Energy:  -115.09957842076459
    Total Energy =                       -115.0995784207645869
  @DF-RHF Final Energy:   -76.06028349935751
    Total Energy =                        -76.0602834993575243
  @DF-RHF Final Energy:   -76.06556090231423
    Total Energy =                        -76.0655609023142318
  @DF-RHF Final Energy:   -76.06015263291056
    Total Energy =                        -76.0601526329105582
  @DF-RHF Final Energy:   -76.06552216125162
    Total Energy =                        -76.0655221612516215
  Multiplicity = 1
  @DF-RHF Final Energy:  -191.13707111944970
    Total Energy =                       -191.1370711194497005
	 Singles Energy            =      -0.0000000000000000 [Eh]
	 Same-Spin Energy          =      -0.1791565877637936 [Eh]
	 Opposite-Spin Energy      =      -0.5854909901537639 [Eh]
	 Correlation Energy        =      -0.7646475779175574 [Eh]
	 Total Energy              =    -191.9017186973672437 [Eh]
	 SCS Total Energy          =    -191.8993791702221472 [Eh]
    Molecular point group: c1

    Geometry (in Angstrom), charge = 0, multiplicity = 1:

       Center              X                  Y                   Z               Mass
    ------------   -----------------  -----------------  -----------------  -----------------
         O           -1.635208383574     0.076868178427     0.153710661472    15.994914619570
         H           -2.051885383574     0.875741178427     0.479480661472     1.007825032230
         H           -0.706181383574     0.187625178427     0.394659661472     1.007825032230
         O            0.663470616426     0.177397178427     0.498783661472    15.994914619570
         H            1.031453616426    -0.394680821573     1.176312661472     1.007825032230
         C            1.128475616426    -0.294232821573    -0.763375338528    12.000000000000
         H            0.697658616426     0.356861178427    -1.516489338528     1.007825032230
         H            2.214439616426    -0.243439821573    -0.837687338528     1.007825032230
         H            0.800132616426    -1.314102821573    -0.962455338528     1.007825032230

  Charge       = 0
  Multiplicity = 1
  Basis Set: AUG-CC-PVQZ
    Blend: AUG-CC-PVQZ
  Basis Set: (AUG-CC-PVQZ AUX)
    Blend: AUG-CC-PVQZ-JKFIT

    Orbital Energies [Eh]
    ---------------------

    Doubly Occupied:

       1A    -20.593004     2A    -20.493671     3A    -11.288186
       4A     -1.411182     5A     -1.293109     6A     -0.951746
       7A     -0.757218     8A     -0.696325     9A     -0.636044
      10A     -0.605539    11A     -0.555346    12A     -0.516035
      13A     -0.471337    14A     -0.451413

  @DF-RHF Final Energy:  -191.14981078411435

   => Energetics <=

    Nuclear Repulsion Energy =             86.3734791133099691
    One-Electron Energy =                -433.6062738263049141
    Two-Electron Energy =                 156.0829839288806227
    Total Energy =                       -191.1498107841143508

  Dipole Moment: [D]
     X:     3.2342      Y:    -0.0723      Z:     0.5294     Total:     3.2781

  Basis Set: (AUG-CC-PVQZ AUX)
    Blend: AUG-CC-PVQZ-RI
	 Reference Energy          =    -191.1498107841143508 [Eh]
	 Singles Energy            =      -0.0000000000000000 [Eh]
	 Same-Spin Energy          =      -0.1902467534031195 [Eh]
	 Opposite-Spin Energy      =      -0.6594506673625409 [Eh]
	 Correlation Energy        =      -0.8496974207656603 [Eh]
	 Total Energy              =    -191.9995082048800157 [Eh]

	 ================> DF-SCS-MP2 Energies <==================
	-----------------------------------------------------------
	 SCS Same-Spin Scale       =       0.3333333333333333 [-]
	 SCS Opposite-Spin Scale   =       1.2000000000000000 [-]
	 SCS Same-Spin Energy      =      -0.0634155844677065 [Eh]
	 SCS Opposite-Spin Energy  =      -0.7913408008350490 [Eh]
	 SCS Correlation Energy    =      -0.8547563853027554 [Eh]
	 SCS Total Energy          =    -192.0045671694171006 [Eh]
	-----------------------------------------------------------

*** Psi4 exiting successfully. Buy a developer a beer!
