                               Psi4 1.4a2.dev224

  ==> Input File <==

--------------------------------------------------------------------------
#Generated by lconvert.py for cbs job

memory 40 GB

molecule  {
0 1
  O       -0.5253300    -0.0509710    -0.3145170
  H       -0.9420070     0.7479020     0.0112530
  H        0.4036970     0.0597860    -0.0735680
--
0 1
  O        2.3603430     0.0451740     0.0751810
  H        2.7283260    -0.5269030     0.7527100
  C        2.8253480    -0.4264550    -1.1869780
  H        2.3945310     0.2246380    -1.9400920
  H        3.9113120    -0.3756630    -1.2612900
  H        2.4970050    -1.4463250    -1.3860580
units angstrom
no_reorient
symmetry c1
}

set {
scf_type DF
mp2_type DF
e_convergence 7
reference rhf
}

energy('mp2/aug-cc-pv[tq]z', bsse_type='cp')
--------------------------------------------------------------------------

    Molecular point group: c1
  Charge       = 0
  Multiplicity = 1
  Basis Set: AUG-CC-PVTZ
    Blend: AUG-CC-PVTZ
  Basis Set: (AUG-CC-PVTZ AUX)
    Blend: AUG-CC-PVTZ-JKFIT
  @DF-RHF Final Energy:  -115.09200797827179
    Total Energy =                       -115.0920079782717949
  Basis Set: (AUG-CC-PVTZ AUX)
    Blend: AUG-CC-PVTZ-RI
	 Reference Energy          =    -115.0920079782717949 [Eh]
	 Singles Energy            =      -0.0000000000000000 [Eh]
	 Same-Spin Energy          =      -0.1057555767168520 [Eh]
	 Opposite-Spin Energy      =      -0.3647263642163865 [Eh]
	 Correlation Energy        =      -0.4704819409332385 [Eh]
	 Total Energy              =    -115.5624899192050350 [Eh]
	 SCS Total Energy          =    -115.5649314742370706 [Eh]
    Molecular point group: c1
  Basis Set: AUG-CC-PVQZ
    Blend: AUG-CC-PVQZ
  Basis Set: (AUG-CC-PVQZ AUX)
    Blend: AUG-CC-PVQZ-JKFIT
  @DF-RHF Final Energy:  -115.09951945214445
    Total Energy =                       -115.0995194521444489
  Basis Set: (AUG-CC-PVQZ AUX)
  @DF-RHF Final Energy:  -115.09208355754741
    Total Energy =                       -115.0920835575474115
  @DF-RHF Final Energy:  -115.09955402904478
    Total Energy =                       -115.0995540290447821
  @DF-RHF Final Energy:   -76.06021420863010
    Total Energy =                        -76.0602142086301143
  @DF-RHF Final Energy:   -76.06554477892249
    Total Energy =                        -76.0655447789224866
  @DF-RHF Final Energy:   -76.06015263291766
    Total Energy =                        -76.0601526329176636
  @DF-RHF Final Energy:   -76.06552216125867
    Total Energy =                        -76.0655221612586843
  Multiplicity = 1
  @DF-RHF Final Energy:  -191.15834653998562
    Total Energy =                       -191.1583465399856152
	 Singles Energy            =      -0.0000000000000000 [Eh]
	 Same-Spin Energy          =      -0.1759701891082112 [Eh]
	 Opposite-Spin Energy      =      -0.5825074144576996 [Eh]
	 Correlation Energy        =      -0.7584776035659109 [Eh]
	 Total Energy              =    -191.9168241435515370 [Eh]
	 SCS Total Energy          =    -191.9160121670375929 [Eh]
    Molecular point group: c1

    Geometry (in Angstrom), charge = 0, multiplicity = 1:

       Center              X                  Y                   Z               Mass
    ------------   -----------------  -----------------  -----------------  -----------------
         O           -2.010915935365     0.079673892772     0.125148274976    15.994914619570
         H           -2.427592935365     0.878546892772     0.450918274976     1.007825032230
         H           -1.081888935365     0.190430892772     0.366097274976     1.007825032230
         O            0.874757064635     0.175818892772     0.514846274976    15.994914619570
         H            1.242740064635    -0.396258107228     1.192375274976     1.007825032230
         C            1.339762064635    -0.295810107228    -0.747312725024    12.000000000000
         H            0.908945064635     0.355282892772    -1.500426725024     1.007825032230
         H            2.425726064635    -0.245018107228    -0.821624725024     1.007825032230
         H            1.011419064635    -1.315680107228    -0.946392725024     1.007825032230

  Charge       = 0
  Multiplicity = 1
  Basis Set: AUG-CC-PVQZ
    Blend: AUG-CC-PVQZ
  Basis Set: (AUG-CC-PVQZ AUX)
    Blend: AUG-CC-PVQZ-JKFIT

    Orbital Energies [Eh]
    ---------------------

    Doubly Occupied:

       1A    -20.577687     2A    -20.534481     3A    -11.280481
       4A     -1.378681     5A     -1.322554     6A     -0.939881
       7A     -0.715144     8A     -0.688466     9A     -0.633175
      10A     -0.610089    11A     -0.560134    12A     -0.521008
      13A     -0.482487    14A     -0.471178

  @DF-RHF Final Energy:  -191.17120855274123

   => Energetics <=

    Nuclear Repulsion Energy =             79.5656534795496384
    One-Electron Energy =                -420.0428290475280164
    Two-Electron Energy =                 149.3059670152371723
    Total Energy =                       -191.1712085527412341

  Dipole Moment: [D]
     X:     2.5103      Y:     0.0166      Z:     0.5545     Total:     2.5708

  Basis Set: (AUG-CC-PVQZ AUX)
    Blend: AUG-CC-PVQZ-RI
	 Reference Energy          =    -191.1712085527412341 [Eh]
	 Singles Energy            =      -0.0000000000000000 [Eh]
	 Same-Spin Energy          =      -0.1869927319886147 [Eh]
	 Opposite-Spin Energy      =      -0.6566658592100623 [Eh]
	 Correlation Energy        =      -0.8436585911986769 [Eh]
	 Total Energy              =    -192.0148671439399095 [Eh]

	 ================> DF-SCS-MP2 Energies <==================
	-----------------------------------------------------------
	 SCS Same-Spin Scale       =       0.3333333333333333 [-]
	 SCS Opposite-Spin Scale   =       1.2000000000000000 [-]
	 SCS Same-Spin Energy      =      -0.0623309106628716 [Eh]
	 SCS Opposite-Spin Energy  =      -0.7879990310520747 [Eh]
	 SCS Correlation Energy    =      -0.8503299417149462 [Eh]
	 SCS Total Energy          =    -192.0215384944561663 [Eh]
	-----------------------------------------------------------

*** Psi4 exiting successfully. Buy a developer a beer!
