                               Psi4 1.4a2.dev224

  ==> Input File <==

--------------------------------------------------------------------------
#Generated by lconvert.py for cbs job

memory 40 GB

molecule  {
0 1
  O       -0.5253300    -0.0509710    -0.3145170
  H       -0.9420070     0.7479020     0.0112530
  H        0.4036970     0.0597860    -0.0735680
--
0 1
  O        2.1647780     0.0466350     0.0603140
  H        2.5327610    -0.5254430     0.7378420
  C        2.6297830    -0.4249950    -1.2018450
  H        2.1989660     0.2260990    -1.9549590
  H        3.7157470    -0.3742020    -1.2761570
  H        2.3014400    -1.4448650    -1.4009260
units angstrom
no_reorient
symmetry c1
}

set {
scf_type DF
mp2_type DF
e_convergence 7
reference rhf
}

energy('mp2/aug-cc-pv[tq]z', bsse_type='cp')
--------------------------------------------------------------------------

    Molecular point group: c1
  Charge       = 0
  Multiplicity = 1
  Basis Set: AUG-CC-PVTZ
    Blend: AUG-CC-PVTZ
  Basis Set: (AUG-CC-PVTZ AUX)
    Blend: AUG-CC-PVTZ-JKFIT
  @DF-RHF Final Energy:  -115.09200795036955
    Total Energy =                       -115.0920079503695490
  Basis Set: (AUG-CC-PVTZ AUX)
    Blend: AUG-CC-PVTZ-RI
	 Reference Energy          =    -115.0920079503695490 [Eh]
	 Singles Energy            =      -0.0000000000000000 [Eh]
	 Same-Spin Energy          =      -0.1057555804563756 [Eh]
	 Opposite-Spin Energy      =      -0.3647263826276601 [Eh]
	 Correlation Energy        =      -0.4704819630840357 [Eh]
	 Total Energy              =    -115.5624899134535895 [Eh]
	 SCS Total Energy          =    -115.5649314696748604 [Eh]
    Molecular point group: c1
  Basis Set: AUG-CC-PVQZ
    Blend: AUG-CC-PVQZ
  Basis Set: (AUG-CC-PVQZ AUX)
    Blend: AUG-CC-PVQZ-JKFIT
  @DF-RHF Final Energy:  -115.09951942347637
    Total Energy =                       -115.0995194234763659
  Basis Set: (AUG-CC-PVQZ AUX)
  @DF-RHF Final Energy:  -115.09210961219698
    Total Energy =                       -115.0921096121969782
  @DF-RHF Final Energy:  -115.09956120833091
    Total Energy =                       -115.0995612083309112
  @DF-RHF Final Energy:   -76.06023358215099
    Total Energy =                        -76.0602335821509996
  @DF-RHF Final Energy:   -76.06554941630975
    Total Energy =                        -76.0655494163097501
  @DF-RHF Final Energy:   -76.06015263290891
    Total Energy =                        -76.0601526329089097
  @DF-RHF Final Energy:   -76.06552216124265
    Total Energy =                        -76.0655221612426544
  Multiplicity = 1
  @DF-RHF Final Energy:  -191.15667244624791
    Total Energy =                       -191.1566724462479101
	 Singles Energy            =      -0.0000000000000000 [Eh]
	 Same-Spin Energy          =      -0.1767152441671776 [Eh]
	 Opposite-Spin Energy      =      -0.5832766557115446 [Eh]
	 Correlation Energy        =      -0.7599918998787223 [Eh]
	 Total Energy              =    -191.9166643461266233 [Eh]
	 SCS Total Energy          =    -191.9155095144908216 [Eh]
    Molecular point group: c1

    Geometry (in Angstrom), charge = 0, multiplicity = 1:

       Center              X                  Y                   Z               Mass
    ------------   -----------------  -----------------  -----------------  -----------------
         O           -1.885743876765     0.078739054746     0.134663990330    15.994914619570
         H           -2.302420876765     0.877612054746     0.460433990330     1.007825032230
         H           -0.956716876765     0.189496054746     0.375612990330     1.007825032230
         O            0.804364123235     0.176345054746     0.509494990330    15.994914619570
         H            1.172347123235    -0.395732945254     1.187022990330     1.007825032230
         C            1.269369123235    -0.295284945254    -0.752664009670    12.000000000000
         H            0.838552123235     0.355809054746    -1.505778009670     1.007825032230
         H            2.355333123235    -0.244491945254    -0.826976009670     1.007825032230
         H            0.941026123235    -1.315154945254    -0.951745009670     1.007825032230

  Charge       = 0
  Multiplicity = 1
  Basis Set: AUG-CC-PVQZ
    Blend: AUG-CC-PVQZ
  Basis Set: (AUG-CC-PVQZ AUX)
    Blend: AUG-CC-PVQZ-JKFIT

    Orbital Energies [Eh]
    ---------------------

    Doubly Occupied:

       1A    -20.581637     2A    -20.525418     3A    -11.282312
       4A     -1.385069     5A     -1.315552     6A     -0.942531
       7A     -0.723307     8A     -0.687396     9A     -0.632370
      10A     -0.612885    11A     -0.556241    12A     -0.521500
      13A     -0.476499    14A     -0.472590

  @DF-RHF Final Energy:  -191.16950242396081

   => Energetics <=

    Nuclear Repulsion Energy =             81.5304245506016798
    One-Electron Energy =                -423.9692390097374073
    Two-Electron Energy =                 151.2693120351749485
    Total Energy =                       -191.1695024239608074

  Dipole Moment: [D]
     X:     2.6779      Y:    -0.0046      Z:     0.5467     Total:     2.7331

  Basis Set: (AUG-CC-PVQZ AUX)
    Blend: AUG-CC-PVQZ-RI
	 Reference Energy          =    -191.1695024239608074 [Eh]
	 Singles Energy            =      -0.0000000000000000 [Eh]
	 Same-Spin Energy          =      -0.1877496721204975 [Eh]
	 Opposite-Spin Energy      =      -0.6573250916051130 [Eh]
	 Correlation Energy        =      -0.8450747637256104 [Eh]
	 Total Energy              =    -192.0145771876864274 [Eh]

	 ================> DF-SCS-MP2 Energies <==================
	-----------------------------------------------------------
	 SCS Same-Spin Scale       =       0.3333333333333333 [-]
	 SCS Opposite-Spin Scale   =       1.2000000000000000 [-]
	 SCS Same-Spin Energy      =      -0.0625832240401658 [Eh]
	 SCS Opposite-Spin Energy  =      -0.7887901099261355 [Eh]
	 SCS Correlation Energy    =      -0.8513733339663013 [Eh]
	 SCS Total Energy          =    -192.0208757579271150 [Eh]
	-----------------------------------------------------------

*** Psi4 exiting successfully. Buy a developer a beer!
