                               Psi4 1.4a2.dev224

  ==> Input File <==

--------------------------------------------------------------------------
#Generated by lconvert.py for cbs job

memory 40 GB

molecule  {
0 1
  O       -0.5253300    -0.0509710    -0.3145170
  H       -0.9420070     0.7479020     0.0112530
  H        0.4036970     0.0597860    -0.0735680
--
0 1
  O        1.7733490     0.0495580     0.0305560
  H        2.1413320    -0.5225200     0.7080850
  C        2.2383540    -0.4220720    -1.2316030
  H        1.8075370     0.2290220    -1.9847170
  H        3.3243180    -0.3712790    -1.3059150
  H        1.9100110    -1.4419420    -1.4306830
units angstrom
no_reorient
symmetry c1
}

set {
scf_type DF
mp2_type DF
e_convergence 7
reference rhf
}

energy('mp2/aug-cc-pv[tq]z', bsse_type='cp')
--------------------------------------------------------------------------

    Molecular point group: c1
  Charge       = 0
  Multiplicity = 1
  Basis Set: AUG-CC-PVTZ
    Blend: AUG-CC-PVTZ
  Basis Set: (AUG-CC-PVTZ AUX)
    Blend: AUG-CC-PVTZ-JKFIT
  @DF-RHF Final Energy:  -115.09200792971981
    Total Energy =                       -115.0920079297198129
  Basis Set: (AUG-CC-PVTZ AUX)
    Blend: AUG-CC-PVTZ-RI
	 Reference Energy          =    -115.0920079297198129 [Eh]
	 Singles Energy            =      -0.0000000000000000 [Eh]
	 Same-Spin Energy          =      -0.1057555856946673 [Eh]
	 Opposite-Spin Energy      =      -0.3647263983483412 [Eh]
	 Correlation Energy        =      -0.4704819840430084 [Eh]
	 Total Energy              =    -115.5624899137628177 [Eh]
	 SCS Total Energy          =    -115.5649314696360506 [Eh]
    Molecular point group: c1
  Basis Set: AUG-CC-PVQZ
    Blend: AUG-CC-PVQZ
  Basis Set: (AUG-CC-PVQZ AUX)
    Blend: AUG-CC-PVQZ-JKFIT
  @DF-RHF Final Energy:  -115.09951940094255
    Total Energy =                       -115.0995194009425546
  Basis Set: (AUG-CC-PVQZ AUX)
  @DF-RHF Final Energy:  -115.09218457971944
    Total Energy =                       -115.0921845797194436
  @DF-RHF Final Energy:  -115.09957842076459
    Total Energy =                       -115.0995784207645869
  @DF-RHF Final Energy:   -76.06028349935751
    Total Energy =                        -76.0602834993575243
  @DF-RHF Final Energy:   -76.06556090231423
    Total Energy =                        -76.0655609023142318
  @DF-RHF Final Energy:   -76.06015263291056
    Total Energy =                        -76.0601526329105582
  @DF-RHF Final Energy:   -76.06552216125162
    Total Energy =                        -76.0655221612516215
  @DF-RHF Final Energy:  -191.13707111944970
    Total Energy =                       -191.1370711194497005
  @DF-RHF Final Energy:  -191.14981078411435
    Total Energy =                       -191.1498107841143508
*** Psi4 exiting successfully. Buy a developer a beer!
                               Psi4 1.4a2.dev224
  @DF-RHF Final Energy:  -115.09200795590037
    Total Energy =                       -115.0920079559003710
  @DF-RHF Final Energy:  -115.09951942861647
    Total Energy =                       -115.0995194286164747
  @DF-RHF Final Energy:  -115.09214535948669
    Total Energy =                       -115.0921453594866932
  @DF-RHF Final Energy:  -115.09956866637756
    Total Energy =                       -115.0995686663775643
  @DF-RHF Final Energy:   -76.06025640428791
    Total Energy =                        -76.0602564042879123
  @DF-RHF Final Energy:   -76.06555480878373
    Total Energy =                        -76.0655548087837303
  @DF-RHF Final Energy:   -76.06015263290780
    Total Energy =                        -76.0601526329078013
  @DF-RHF Final Energy:   -76.06552216125010
    Total Energy =                        -76.0655221612501009
  @DF-RHF Final Energy:  -191.15113256898326
    Total Energy =                       -191.1511325689832574
  @DF-RHF Final Energy:  -191.16390380762800
    Total Energy =                       -191.1639038076280031
*** Psi4 exiting successfully. Buy a developer a beer!
                               Psi4 1.4a2.dev224
                               Psi4 1.4a2.dev224
                               Psi4 1.4a2.dev224
                               Psi4 1.4a2.dev224
                               Psi4 1.4a2.dev224
                               Psi4 1.4a2.dev224
                               Psi4 1.4a2.dev224
  @DF-RHF Final Energy:  -115.09200787516029
    Total Energy =                       -115.0920078751602915
  @DF-RHF Final Energy:  -115.09951934651373
    Total Energy =                       -115.0995193465137305
  @DF-RHF Final Energy:  -115.09202854071054
    Total Energy =                       -115.0920285407105439
  @DF-RHF Final Energy:  -115.09953233933287
    Total Energy =                       -115.0995323393328675
  @DF-RHF Final Energy:   -76.06017044060080
    Total Energy =                        -76.0601704406007997
  @DF-RHF Final Energy:   -76.06552954152627
    Total Energy =                        -76.0655295415262600
  @DF-RHF Final Energy:   -76.06015250954661
    Total Energy =                        -76.0601525095466116
  @DF-RHF Final Energy:   -76.06552203224021
    Total Energy =                        -76.0655220322402243
  @DF-RHF Final Energy:  -191.15503861356248
    Total Energy =                       -191.1550386135624819
  @DF-RHF Final Energy:  -191.16789285773513
    Total Energy =                       -191.1678928577351257
*** Psi4 exiting successfully. Buy a developer a beer!
                               Psi4 1.4a2.dev224
  @DF-RHF Final Energy:  -115.09200835790440
    Total Energy =                       -115.0920083579044046
  @DF-RHF Final Energy:  -115.09951985127155
    Total Energy =                       -115.0995198512715518
  @DF-RHF Final Energy:  -115.09201781116769
    Total Energy =                       -115.0920178111676933
  @DF-RHF Final Energy:  -115.09952530988653
    Total Energy =                       -115.0995253098865305
  @DF-RHF Final Energy:   -76.06016318234022
    Total Energy =                        -76.0601631823402187
  @DF-RHF Final Energy:   -76.06552609733906
    Total Energy =                        -76.0655260973390455
  @DF-RHF Final Energy:   -76.06015250954763
    Total Energy =                        -76.0601525095476347
  @DF-RHF Final Energy:   -76.06552203224237
    Total Energy =                        -76.0655220322423844
  Multiplicity = 1
  @DF-RHF Final Energy:  -191.15390995755035
    Total Energy =                       -191.1539099575503542
	 Singles Energy            =      -0.0000000000000000 [Eh]
	 Same-Spin Energy          =      -0.1742867114012200 [Eh]
	 Opposite-Spin Energy      =      -0.5803141318152394 [Eh]
	 Correlation Energy        =      -0.7546008432164594 [Eh]
	 Total Energy              =    -191.9085108007668055 [Eh]
	 SCS Total Energy          =    -191.9083824861957055 [Eh]
    Molecular point group: c1

    Geometry (in Angstrom), charge = 0, multiplicity = 1:

       Center              X                  Y                   Z               Mass
    ------------   -----------------  -----------------  -----------------  -----------------
         O           -3.138104556950     0.088093653418     0.039454375994    15.994914619570
         H           -3.554784556950     0.886963653418     0.365224375994     1.007825032230
         H           -2.209074556950     0.198853653418     0.280404375994     1.007825032230
         O            1.508655443050     0.171083653418     0.563034375994    15.994914619570
         H            1.876635443050    -0.400986346582     1.240564375994     1.007825032230
         C            1.973655443050    -0.300546346582    -0.699115624006    12.000000000000
         H            1.542845443050     0.350553653418    -1.452235624006     1.007825032230
         H            3.059625443050    -0.249746346582    -0.773435624006     1.007825032230
         H            1.645315443050    -1.320416346582    -0.898205624006     1.007825032230

  Charge       = 0
  Multiplicity = 1
  Basis Set: AUG-CC-PVQZ
    Blend: AUG-CC-PVQZ
  Basis Set: (AUG-CC-PVQZ AUX)
    Blend: AUG-CC-PVQZ-JKFIT

    Orbital Energies [Eh]
    ---------------------

    Doubly Occupied:

       1A    -20.562772     2A    -20.558119     3A    -11.273957
       4A     -1.361818     5A     -1.343255     6A     -0.931319
       7A     -0.705972     8A     -0.696079     9A     -0.626197
      10A     -0.597889    11A     -0.578229    12A     -0.511159
      13A     -0.502840    14A     -0.458650

  @DF-RHF Final Energy:  -191.16677544108001

   => Energetics <=

    Nuclear Repulsion Energy =             68.8610855213013622
    One-Electron Energy =                -398.6392114398924491
    Two-Electron Energy =                 138.6113504775110528
    Total Energy =                       -191.1667754410800057

  Dipole Moment: [D]
     X:     2.0536      Y:     0.0850      Z:     0.6065     Total:     2.1430

  Basis Set: (AUG-CC-PVQZ AUX)
    Blend: AUG-CC-PVQZ-RI
	 Reference Energy          =    -191.1667754410800057 [Eh]
	 Singles Energy            =      -0.0000000000000000 [Eh]
	 Same-Spin Energy          =      -0.1853316706645236 [Eh]
	 Opposite-Spin Energy      =      -0.6551034903067969 [Eh]
	 Correlation Energy        =      -0.8404351609713205 [Eh]
	 Total Energy              =    -192.0072106020513161 [Eh]

	 ================> DF-SCS-MP2 Energies <==================
	-----------------------------------------------------------
	 SCS Same-Spin Scale       =       0.3333333333333333 [-]
	 SCS Opposite-Spin Scale   =       1.2000000000000000 [-]
	 SCS Same-Spin Energy      =      -0.0617772235548412 [Eh]
	 SCS Opposite-Spin Energy  =      -0.7861241883681563 [Eh]
	 SCS Correlation Energy    =      -0.8479014119229975 [Eh]
	 SCS Total Energy          =    -192.0146768530030101 [Eh]
	-----------------------------------------------------------

*** Psi4 exiting successfully. Buy a developer a beer!
