                               Psi4 1.4a2.dev224

  ==> Input File <==

--------------------------------------------------------------------------
#Generated by lconvert.py for cbs job

memory 20 GB

molecule  {
0 1
  O      -0.525330   -0.050970   -0.314520
  H      -0.942010    0.747900    0.011250
  H       0.403700    0.059790   -0.073570
--
0 1
  O       3.534430    0.036410    0.164440
  H       3.902410   -0.535670    0.841970
  C       3.999440   -0.435220   -1.097720
  H       3.568620    0.215870   -1.850830
  H       5.085400   -0.384430   -1.172030
  H       3.671100   -1.455090   -1.296800
units angstrom
no_reorient
symmetry c1
}

set {
scf_type DF
mp2_type DF
e_convergence 7
reference rhf
}

energy('mp2/aug-cc-pv[tq]z', bsse_type='cp')
--------------------------------------------------------------------------

    Molecular point group: c1
  Charge       = 0
  Multiplicity = 1
  Basis Set: AUG-CC-PVTZ
    Blend: AUG-CC-PVTZ
  Basis Set: (AUG-CC-PVTZ AUX)
    Blend: AUG-CC-PVTZ-JKFIT
  @DF-RHF Final Energy:  -115.09200787516029
    Total Energy =                       -115.0920078751602915
  Basis Set: (AUG-CC-PVTZ AUX)
    Blend: AUG-CC-PVTZ-RI
	 Reference Energy          =    -115.0920078751602915 [Eh]
	 Singles Energy            =      -0.0000000000000000 [Eh]
	 Same-Spin Energy          =      -0.1057556038414560 [Eh]
	 Opposite-Spin Energy      =      -0.3647264301776756 [Eh]
	 Correlation Energy        =      -0.4704820340191316 [Eh]
	 Total Energy              =    -115.5624899091794191 [Eh]
	 SCS Total Energy          =    -115.5649314593206611 [Eh]
    Molecular point group: c1
  Basis Set: AUG-CC-PVQZ
    Blend: AUG-CC-PVQZ
  Basis Set: (AUG-CC-PVQZ AUX)
    Blend: AUG-CC-PVQZ-JKFIT
  @DF-RHF Final Energy:  -115.09951934651373
    Total Energy =                       -115.0995193465137305
  Basis Set: (AUG-CC-PVQZ AUX)
  @DF-RHF Final Energy:  -115.09202854071054
    Total Energy =                       -115.0920285407105439
  @DF-RHF Final Energy:  -115.09953233933287
    Total Energy =                       -115.0995323393328675
  @DF-RHF Final Energy:   -76.06017044060080
    Total Energy =                        -76.0601704406007997
  @DF-RHF Final Energy:   -76.06552954152627
    Total Energy =                        -76.0655295415262600
  @DF-RHF Final Energy:   -76.06015250954661
    Total Energy =                        -76.0601525095466116
  @DF-RHF Final Energy:   -76.06552203224021
    Total Energy =                        -76.0655220322402243
  Multiplicity = 1
  @DF-RHF Final Energy:  -191.15503861356248
    Total Energy =                       -191.1550386135624819
	 Singles Energy            =      -0.0000000000000000 [Eh]
	 Same-Spin Energy          =      -0.1744325005341945 [Eh]
	 Opposite-Spin Energy      =      -0.5805958830483603 [Eh]
	 Correlation Energy        =      -0.7550283835825549 [Eh]
	 Total Energy              =    -191.9100669971450372 [Eh]
	 SCS Total Energy          =    -191.9098978400652413 [Eh]
    Molecular point group: c1

    Geometry (in Angstrom), charge = 0, multiplicity = 1:

       Center              X                  Y                   Z               Mass
    ------------   -----------------  -----------------  -----------------  -----------------
         O           -2.762395764492     0.085284422896     0.068015960458    15.994914619570
         H           -3.179075764492     0.884154422896     0.393785960458     1.007825032230
         H           -1.833365764492     0.196044422896     0.308965960458     1.007825032230
         O            1.297364235508     0.172664422896     0.546975960458    15.994914619570
         H            1.665344235508    -0.399415577104     1.224505960458     1.007825032230
         C            1.762374235508    -0.298965577104    -0.715184039542    12.000000000000
         H            1.331554235508     0.352124422896    -1.468294039542     1.007825032230
         H            2.848334235508    -0.248175577104    -0.789494039542     1.007825032230
         H            1.434034235508    -1.318835577104    -0.914264039542     1.007825032230

  Charge       = 0
  Multiplicity = 1
  Basis Set: AUG-CC-PVQZ
    Blend: AUG-CC-PVQZ
  Basis Set: (AUG-CC-PVQZ AUX)
    Blend: AUG-CC-PVQZ-JKFIT

    Orbital Energies [Eh]
    ---------------------

    Doubly Occupied:

       1A    -20.565352     2A    -20.554913     3A    -11.275187
       4A     -1.364325     5A     -1.340184     6A     -0.932818
       7A     -0.703085     8A     -0.698129     9A     -0.627911
      10A     -0.599924    11A     -0.575342    12A     -0.513161
      13A     -0.499873    14A     -0.460880

  @DF-RHF Final Energy:  -191.16789285773513

   => Energetics <=

    Nuclear Repulsion Energy =             71.4742092472008750
    One-Electron Energy =                -403.8620337375776899
    Two-Electron Energy =                 141.2199316326417033
    Total Energy =                       -191.1678928577351257

  Dipole Moment: [D]
     X:     2.1138      Y:     0.0741      Z:     0.5948     Total:     2.1972

  Basis Set: (AUG-CC-PVQZ AUX)
    Blend: AUG-CC-PVQZ-RI
	 Reference Energy          =    -191.1678928577351257 [Eh]
	 Singles Energy            =      -0.0000000000000000 [Eh]
	 Same-Spin Energy          =      -0.1854648482682605 [Eh]
	 Opposite-Spin Energy      =      -0.6552298389994526 [Eh]
	 Correlation Energy        =      -0.8406946872677131 [Eh]
	 Total Energy              =    -192.0085875450028254 [Eh]

	 ================> DF-SCS-MP2 Energies <==================
	-----------------------------------------------------------
	 SCS Same-Spin Scale       =       0.3333333333333333 [-]
	 SCS Opposite-Spin Scale   =       1.2000000000000000 [-]
	 SCS Same-Spin Energy      =      -0.0618216160894202 [Eh]
	 SCS Opposite-Spin Energy  =      -0.7862758067993432 [Eh]
	 SCS Correlation Energy    =      -0.8480974228887633 [Eh]
	 SCS Total Energy          =    -192.0159902806238961 [Eh]
	-----------------------------------------------------------

*** Psi4 exiting successfully. Buy a developer a beer!
