                               Psi4 1.4a2.dev224

  ==> Input File <==

--------------------------------------------------------------------------
#Generated by lconvert.py for cbs job

memory 40 GB

molecule  {
0 1
  O       -0.6874650    -0.1117440    -0.0196250
  H       -1.0461220     0.7759380     0.0127070
  H        0.2740430     0.0258510    -0.0034970
--
0 1
  N        1.6813060     0.0813760     0.0032170
  H        1.9766710    -0.4712620    -0.7915740
  H        1.9913870    -0.4293450     0.8200760
  C        2.3406410     1.3897400    -0.0370250
  H        2.0300990     1.9714650     0.8274910
  H        3.4319510     1.3504450    -0.0459800
  H        2.0139290     1.9256580    -0.9248490
units angstrom
no_reorient
symmetry c1
}

set {
scf_type DF
mp2_type DF
e_convergence 7
reference rhf
}

energy('mp2/aug-cc-pv[tq]z', bsse_type='cp')
--------------------------------------------------------------------------

    Molecular point group: c1
  Charge       = 0
  Multiplicity = 1
  Basis Set: AUG-CC-PVTZ
    Blend: AUG-CC-PVTZ
  Basis Set: (AUG-CC-PVTZ AUX)
    Blend: AUG-CC-PVTZ-JKFIT
  @DF-RHF Final Energy:   -95.25546302950744
    Total Energy =                        -95.2554630295074389
  Basis Set: (AUG-CC-PVTZ AUX)
    Blend: AUG-CC-PVTZ-RI
	 Reference Energy          =     -95.2554630295074389 [Eh]
	 Singles Energy            =      -0.0000000000000000 [Eh]
	 Same-Spin Energy          =      -0.0953942378231771 [Eh]
	 Opposite-Spin Energy      =      -0.3516648452405233 [Eh]
	 Correlation Energy        =      -0.4470590830637005 [Eh]
	 Total Energy              =     -95.7025221125711454 [Eh]
	 SCS Total Energy          =     -95.7092589230704647 [Eh]
    Molecular point group: c1
  Basis Set: AUG-CC-PVQZ
    Blend: AUG-CC-PVQZ
  Basis Set: (AUG-CC-PVQZ AUX)
    Blend: AUG-CC-PVQZ-JKFIT
  @DF-RHF Final Energy:   -95.26144601537113
    Total Energy =                        -95.2614460153711349
  Basis Set: (AUG-CC-PVQZ AUX)
  @DF-RHF Final Energy:   -95.25556088038515
    Total Energy =                        -95.2555608803851470
  @DF-RHF Final Energy:   -95.26147894833657
    Total Energy =                        -95.2614789483365740
  @DF-RHF Final Energy:   -76.06002120072807
    Total Energy =                        -76.0600212007280732
  @DF-RHF Final Energy:   -76.06527442516722
    Total Energy =                        -76.0652744251672175
  @DF-RHF Final Energy:   -76.05987710549303
    Total Energy =                        -76.0598771054930296
  @DF-RHF Final Energy:   -76.06523393674033
    Total Energy =                        -76.0652339367403130
  Multiplicity = 1
  @DF-RHF Final Energy:  -171.29992963069108
    Total Energy =                       -171.2999296306910821
	 Singles Energy            =      -0.0000000000000000 [Eh]
	 Same-Spin Energy          =      -0.1695604286579120 [Eh]
	 Opposite-Spin Energy      =      -0.5737494208588281 [Eh]
	 Correlation Energy        =      -0.7433098495167401 [Eh]
	 Total Energy              =    -172.0432394802078306 [Eh]
	 SCS Total Energy          =    -172.0449490786076581 [Eh]
    Molecular point group: c1

    Geometry (in Angstrom), charge = 0, multiplicity = 1:

       Center              X                  Y                   Z               Mass
    ------------   -----------------  -----------------  -----------------  -----------------
         O           -1.735125982692    -0.544300616192    -0.002916362752    15.994914619570
         H           -2.093782982692     0.343381383808     0.029415637248     1.007825032230
         H           -0.773617982692    -0.406705616192     0.013211637248     1.007825032230
         N            0.633645017308    -0.351180616192     0.019925637248    14.003074004430
         H            0.929010017308    -0.903818616192    -0.774865362752     1.007825032230
         H            0.943726017308    -0.861901616192     0.836784637248     1.007825032230
         C            1.292980017308     0.957183383808    -0.020316362752    12.000000000000
         H            0.982438017308     1.538908383808     0.844199637248     1.007825032230
         H            2.384290017308     0.917888383808    -0.029271362752     1.007825032230
         H            0.966268017308     1.493101383808    -0.908140362752     1.007825032230

  Charge       = 0
  Multiplicity = 1
  Basis Set: AUG-CC-PVQZ
    Blend: AUG-CC-PVQZ
  Basis Set: (AUG-CC-PVQZ AUX)
    Blend: AUG-CC-PVQZ-JKFIT

    Orbital Energies [Eh]
    ---------------------

    Doubly Occupied:

       1A    -20.478099     2A    -15.570414     3A    -11.265687
       4A     -1.289112     5A     -1.209908     6A     -0.929736
       7A     -0.699449     8A     -0.691112     9A     -0.633653
      10A     -0.580026    11A     -0.546716    12A     -0.531064
      13A     -0.437540    14A     -0.411832

  @DF-RHF Final Energy:  -171.31116656745746

   => Energetics <=

    Nuclear Repulsion Energy =             85.5378441040324589
    One-Electron Energy =                -403.1493213483827276
    Two-Electron Energy =                 146.3003106768928205
    Total Energy =                       -171.3111665674574624

  Dipole Moment: [D]
     X:     4.0261      Y:     1.6364      Z:     0.0759     Total:     4.3466

  Basis Set: (AUG-CC-PVQZ AUX)
    Blend: AUG-CC-PVQZ-RI
	 Reference Energy          =    -171.3111665674574624 [Eh]
	 Singles Energy            =      -0.0000000000000000 [Eh]
	 Same-Spin Energy          =      -0.1796413126814103 [Eh]
	 Opposite-Spin Energy      =      -0.6426101423650965 [Eh]
	 Correlation Energy        =      -0.8222514550465069 [Eh]
	 Total Energy              =    -172.1334180225039745 [Eh]

	 ================> DF-SCS-MP2 Energies <==================
	-----------------------------------------------------------
	 SCS Same-Spin Scale       =       0.3333333333333333 [-]
	 SCS Opposite-Spin Scale   =       1.2000000000000000 [-]
	 SCS Same-Spin Energy      =      -0.0598804375604701 [Eh]
	 SCS Opposite-Spin Energy  =      -0.7711321708381158 [Eh]
	 SCS Correlation Energy    =      -0.8310126083985859 [Eh]
	 SCS Total Energy          =    -172.1421791758560573 [Eh]
	-----------------------------------------------------------

*** Psi4 exiting successfully. Buy a developer a beer!
