                               Psi4 1.4a2.dev224

  ==> Input File <==

--------------------------------------------------------------------------
#Generated by lconvert.py for cbs job

memory 40 GB

molecule  {
0 1
  O       -0.6874650    -0.1117440    -0.0196250
  H       -1.0461220     0.7759380     0.0127070
  H        0.2740430     0.0258510    -0.0034970
--
0 1
  N        2.1840000     0.1012110     0.0056150
  H        2.4793650    -0.4514270    -0.7891760
  H        2.4940810    -0.4095100     0.8224750
  C        2.8433350     1.4095750    -0.0346260
  H        2.5327930     1.9913000     0.8298890
  H        3.9346450     1.3702800    -0.0435820
  H        2.5166230     1.9454920    -0.9224500
units angstrom
no_reorient
symmetry c1
}

set {
scf_type DF
mp2_type DF
e_convergence 7
reference rhf
}

energy('mp2/aug-cc-pv[tq]z', bsse_type='cp')
--------------------------------------------------------------------------

    Molecular point group: c1
  Charge       = 0
  Multiplicity = 1
  Basis Set: AUG-CC-PVTZ
    Blend: AUG-CC-PVTZ
  Basis Set: (AUG-CC-PVTZ AUX)
    Blend: AUG-CC-PVTZ-JKFIT
  @DF-RHF Final Energy:   -95.25546302133770
    Total Energy =                        -95.2554630213377038
  Basis Set: (AUG-CC-PVTZ AUX)
    Blend: AUG-CC-PVTZ-RI
	 Reference Energy          =     -95.2554630213377038 [Eh]
	 Singles Energy            =      -0.0000000000000000 [Eh]
	 Same-Spin Energy          =      -0.0953942419043393 [Eh]
	 Opposite-Spin Energy      =      -0.3516648510279057 [Eh]
	 Correlation Energy        =      -0.4470590929322450 [Eh]
	 Total Energy              =     -95.7025221142699536 [Eh]
	 SCS Total Energy          =     -95.7092589232059652 [Eh]
    Molecular point group: c1
  Basis Set: AUG-CC-PVQZ
    Blend: AUG-CC-PVQZ
  Basis Set: (AUG-CC-PVQZ AUX)
    Blend: AUG-CC-PVQZ-JKFIT
  @DF-RHF Final Energy:   -95.26144600736257
    Total Energy =                        -95.2614460073625651
  Basis Set: (AUG-CC-PVQZ AUX)
  @DF-RHF Final Energy:   -95.25551681307415
    Total Energy =                        -95.2555168130741521
  @DF-RHF Final Energy:   -95.26146888836203
    Total Energy =                        -95.2614688883620317
  @DF-RHF Final Energy:   -76.05996254006529
    Total Energy =                        -76.0599625400652712
  @DF-RHF Final Energy:   -76.06526191674971
    Total Energy =                        -76.0652619167497193
  @DF-RHF Final Energy:   -76.05987710549451
    Total Energy =                        -76.0598771054945075
  @DF-RHF Final Energy:   -76.06523393673135
    Total Energy =                        -76.0652339367313459
  Multiplicity = 1
  @DF-RHF Final Energy:  -171.32244149941215
    Total Energy =                       -171.3224414994121503
	 Singles Energy            =      -0.0000000000000000 [Eh]
	 Same-Spin Energy          =      -0.1663693685195641 [Eh]
	 Opposite-Spin Energy      =      -0.5704747518543378 [Eh]
	 Correlation Energy        =      -0.7368441203739019 [Eh]
	 Total Energy              =    -172.0592856197860385 [Eh]
	 SCS Total Energy          =    -172.0624676578105436 [Eh]
    Molecular point group: c1

    Geometry (in Angstrom), charge = 0, multiplicity = 1:

       Center              X                  Y                   Z               Mass
    ------------   -----------------  -----------------  -----------------  -----------------
         O           -2.053247247280    -0.556852834748    -0.004434181594    15.994914619570
         H           -2.411904247280     0.330829165252     0.027897818406     1.007825032230
         H           -1.091739247280    -0.419257834748     0.011693818406     1.007825032230
         N            0.818217752720    -0.343897834748     0.020805818406    14.003074004430
         H            1.113582752720    -0.896535834748    -0.773985181594     1.007825032230
         H            1.128298752720    -0.854618834748     0.837665818406     1.007825032230
         C            1.477552752720     0.964466165252    -0.019435181594    12.000000000000
         H            1.167010752720     1.546191165252     0.845079818406     1.007825032230
         H            2.568862752720     0.925171165252    -0.028391181594     1.007825032230
         H            1.150840752720     1.500383165252    -0.907259181594     1.007825032230

  Charge       = 0
  Multiplicity = 1
  Basis Set: AUG-CC-PVQZ
    Blend: AUG-CC-PVQZ
  Basis Set: (AUG-CC-PVQZ AUX)
    Blend: AUG-CC-PVQZ-JKFIT

    Orbital Energies [Eh]
    ---------------------

    Doubly Occupied:

       1A    -20.518364     2A    -15.561979     3A    -11.256946
       4A     -1.307863     5A     -1.195095     6A     -0.916644
       7A     -0.684728     8A     -0.677825     9A     -0.625600
      10A     -0.576994    11A     -0.546190    12A     -0.536558
      13A     -0.467467    14A     -0.419877

  @DF-RHF Final Energy:  -171.33371097226740

   => Energetics <=

    Nuclear Repulsion Energy =             80.2171582571269539
    One-Electron Energy =                -392.5174747283779766
    Two-Electron Energy =                 140.9666054989835970
    Total Energy =                       -171.3337109722673972

  Dipole Moment: [D]
     X:     3.3325      Y:     1.5699      Z:     0.0729     Total:     3.6845

  Basis Set: (AUG-CC-PVQZ AUX)
    Blend: AUG-CC-PVQZ-RI
	 Reference Energy          =    -171.3337109722673972 [Eh]
	 Singles Energy            =      -0.0000000000000000 [Eh]
	 Same-Spin Energy          =      -0.1763950769915083 [Eh]
	 Opposite-Spin Energy      =      -0.6394735877714861 [Eh]
	 Correlation Energy        =      -0.8158686647629945 [Eh]
	 Total Energy              =    -172.1495796370303992 [Eh]

	 ================> DF-SCS-MP2 Energies <==================
	-----------------------------------------------------------
	 SCS Same-Spin Scale       =       0.3333333333333333 [-]
	 SCS Opposite-Spin Scale   =       1.2000000000000000 [-]
	 SCS Same-Spin Energy      =      -0.0587983589971694 [Eh]
	 SCS Opposite-Spin Energy  =      -0.7673683053257833 [Eh]
	 SCS Correlation Energy    =      -0.8261666643229527 [Eh]
	 SCS Total Energy          =    -172.1598776365903518 [Eh]
	-----------------------------------------------------------

*** Psi4 exiting successfully. Buy a developer a beer!
