                               Psi4 1.4a2.dev224

  ==> Input File <==

--------------------------------------------------------------------------
#Generated by lconvert.py for cbs job

memory 40 GB

molecule  {
0 1
  O       -0.6874650    -0.1117440    -0.0196250
  H       -1.0461220     0.7759380     0.0127070
  H        0.2740430     0.0258510    -0.0034970
--
0 1
  N        2.2844190     0.1051730     0.0060940
  H        2.5797840    -0.4474650    -0.7886970
  H        2.5945000    -0.4055480     0.8229540
  C        2.9437540     1.4135370    -0.0341470
  H        2.6332120     1.9952620     0.8303680
  H        4.0350640     1.3742420    -0.0431030
  H        2.6170420     1.9494540    -0.9219710
units angstrom
no_reorient
symmetry c1
}

set {
scf_type DF
mp2_type DF
e_convergence 7
reference rhf
}

energy('mp2/aug-cc-pv[tq]z', bsse_type='cp')
--------------------------------------------------------------------------

    Molecular point group: c1
  Charge       = 0
  Multiplicity = 1
  Basis Set: AUG-CC-PVTZ
    Blend: AUG-CC-PVTZ
  Basis Set: (AUG-CC-PVTZ AUX)
    Blend: AUG-CC-PVTZ-JKFIT
  @DF-RHF Final Energy:   -95.25546302129069
    Total Energy =                        -95.2554630212906943
  Basis Set: (AUG-CC-PVTZ AUX)
    Blend: AUG-CC-PVTZ-RI
	 Reference Energy          =     -95.2554630212906943 [Eh]
	 Singles Energy            =      -0.0000000000000000 [Eh]
	 Same-Spin Energy          =      -0.0953942419044148 [Eh]
	 Opposite-Spin Energy      =      -0.3516648510281105 [Eh]
	 Correlation Energy        =      -0.4470590929325252 [Eh]
	 Total Energy              =     -95.7025221142232141 [Eh]
	 SCS Total Energy          =     -95.7092589231592257 [Eh]
    Molecular point group: c1
  Basis Set: AUG-CC-PVQZ
    Blend: AUG-CC-PVQZ
  Basis Set: (AUG-CC-PVQZ AUX)
    Blend: AUG-CC-PVQZ-JKFIT
  @DF-RHF Final Energy:   -95.26144600739600
    Total Energy =                        -95.2614460073960032
  Basis Set: (AUG-CC-PVQZ AUX)
  @DF-RHF Final Energy:   -95.25550766697319
    Total Energy =                        -95.2555076669731875
  @DF-RHF Final Energy:   -95.26146612833124
    Total Energy =                        -95.2614661283312358
  @DF-RHF Final Energy:   -76.05995177527338
    Total Energy =                        -76.0599517752733618
  @DF-RHF Final Energy:   -76.06525989110777
    Total Energy =                        -76.0652598911077718
  @DF-RHF Final Energy:   -76.05987710549360
    Total Energy =                        -76.0598771054935980
  @DF-RHF Final Energy:   -76.06523393672248
    Total Energy =                        -76.0652339367224783
  Multiplicity = 1
  @DF-RHF Final Energy:  -171.32303160701119
    Total Energy =                       -171.3230316070111883
	 Singles Energy            =      -0.0000000000000000 [Eh]
	 Same-Spin Energy          =      -0.1659792725860692 [Eh]
	 Opposite-Spin Energy      =      -0.5700583691287124 [Eh]
	 Correlation Energy        =      -0.7360376417147816 [Eh]
	 Total Energy              =    -172.0590692487259616 [Eh]
	 SCS Total Energy          =    -172.0624280741610050 [Eh]
    Molecular point group: c1

    Geometry (in Angstrom), charge = 0, multiplicity = 1:

       Center              X                  Y                   Z               Mass
    ------------   -----------------  -----------------  -----------------  -----------------
         O           -2.116795686825    -0.559360118404    -0.004737308518    15.994914619570
         H           -2.475452686825     0.328321881596     0.027594691482     1.007825032230
         H           -1.155287686825    -0.421765118404     0.011390691482     1.007825032230
         N            0.855088313175    -0.342443118404     0.020981691482    14.003074004430
         H            1.150453313175    -0.895081118404    -0.773809308518     1.007825032230
         H            1.165169313175    -0.853164118404     0.837841691482     1.007825032230
         C            1.514423313175     0.965920881596    -0.019259308518    12.000000000000
         H            1.203881313175     1.547645881596     0.845255691482     1.007825032230
         H            2.605733313175     0.926625881596    -0.028215308518     1.007825032230
         H            1.187711313175     1.501837881596    -0.907083308518     1.007825032230

  Charge       = 0
  Multiplicity = 1
  Basis Set: AUG-CC-PVQZ
    Blend: AUG-CC-PVQZ
  Basis Set: (AUG-CC-PVQZ AUX)
    Blend: AUG-CC-PVQZ-JKFIT

    Orbital Energies [Eh]
    ---------------------

    Doubly Occupied:

       1A    -20.523377     2A    -15.560548     3A    -11.255740
       4A     -1.311418     5A     -1.192944     6A     -0.915055
       7A     -0.682887     8A     -0.679080     9A     -0.624140
      10A     -0.575710    11A     -0.549122    12A     -0.535197
      13A     -0.471500    14A     -0.418757

  @DF-RHF Final Energy:  -171.33431981684734

   => Energetics <=

    Nuclear Repulsion Energy =             79.3521776420180203
    One-Electron Energy =                -390.7820414868825196
    Two-Electron Energy =                 140.0955440280171445
    Total Energy =                       -171.3343198168473407

  Dipole Moment: [D]
     X:     3.2415      Y:     1.5622      Z:     0.0726     Total:     3.5990

  Basis Set: (AUG-CC-PVQZ AUX)
    Blend: AUG-CC-PVQZ-RI
	 Reference Energy          =    -171.3343198168473407 [Eh]
	 Singles Energy            =      -0.0000000000000000 [Eh]
	 Same-Spin Energy          =      -0.1759996120250491 [Eh]
	 Opposite-Spin Energy      =      -0.6390922301328748 [Eh]
	 Correlation Energy        =      -0.8150918421579239 [Eh]
	 Total Energy              =    -172.1494116590052670 [Eh]

	 ================> DF-SCS-MP2 Energies <==================
	-----------------------------------------------------------
	 SCS Same-Spin Scale       =       0.3333333333333333 [-]
	 SCS Opposite-Spin Scale   =       1.2000000000000000 [-]
	 SCS Same-Spin Energy      =      -0.0586665373416830 [Eh]
	 SCS Opposite-Spin Energy  =      -0.7669106761594496 [Eh]
	 SCS Correlation Energy    =      -0.8255772135011327 [Eh]
	 SCS Total Energy          =    -172.1598970303484748 [Eh]
	-----------------------------------------------------------

*** Psi4 exiting successfully. Buy a developer a beer!
