                               Psi4 1.4a2.dev224

  ==> Input File <==

--------------------------------------------------------------------------
#Generated by lconvert.py for cbs job

memory 20 GB

molecule  {
0 1
  O      -0.687460   -0.111740   -0.019630
  H      -1.046120    0.775940    0.012710
  H       0.274040    0.025850   -0.003500
--
0 1
  N       3.490750    0.152770    0.011850
  H       3.786110   -0.399870   -0.782940
  H       3.800830   -0.357950    0.828710
  C       4.150080    1.461130   -0.028390
  H       3.839540    2.042860    0.836120
  H       5.241390    1.421840   -0.037350
  H       3.823370    1.997050   -0.916220
units angstrom
no_reorient
symmetry c1
}

set {
scf_type DF
mp2_type DF
e_convergence 7
reference rhf
}

energy('mp2/aug-cc-pv[tq]z', bsse_type='cp')
--------------------------------------------------------------------------

    Molecular point group: c1
  Charge       = 0
  Multiplicity = 1
  Basis Set: AUG-CC-PVTZ
    Blend: AUG-CC-PVTZ
  Basis Set: (AUG-CC-PVTZ AUX)
    Blend: AUG-CC-PVTZ-JKFIT
  @DF-RHF Final Energy:   -95.25546313962747
    Total Energy =                        -95.2554631396274658
  Basis Set: (AUG-CC-PVTZ AUX)
    Blend: AUG-CC-PVTZ-RI
	 Reference Energy          =     -95.2554631396274658 [Eh]
	 Singles Energy            =      -0.0000000000000000 [Eh]
	 Same-Spin Energy          =      -0.0953942503335106 [Eh]
	 Opposite-Spin Energy      =      -0.3516647656241558 [Eh]
	 Correlation Energy        =      -0.4470590159576664 [Eh]
	 Total Energy              =     -95.7025221555851289 [Eh]
	 SCS Total Energy          =     -95.7092589418209627 [Eh]
    Molecular point group: c1
  Basis Set: AUG-CC-PVQZ
    Blend: AUG-CC-PVQZ
  Basis Set: (AUG-CC-PVQZ AUX)
    Blend: AUG-CC-PVQZ-JKFIT
  @DF-RHF Final Energy:   -95.26144613275275
    Total Energy =                        -95.2614461327527522
  Basis Set: (AUG-CC-PVQZ AUX)
  @DF-RHF Final Energy:   -95.25547737432309
    Total Energy =                        -95.2554773743230925
  @DF-RHF Final Energy:   -95.26145144871121
    Total Energy =                        -95.2614514487112132
  @DF-RHF Final Energy:   -76.05989423311904
    Total Energy =                        -76.0598942331190528
  @DF-RHF Final Energy:   -76.06524220645592
    Total Energy =                        -76.0652422064559204
  @DF-RHF Final Energy:   -76.05987766221615
    Total Energy =                        -76.0598776622161381
  @DF-RHF Final Energy:   -76.06523451502859
    Total Energy =                        -76.0652345150286067
  Multiplicity = 1
  @DF-RHF Final Energy:  -171.31883591207256
    Total Energy =                       -171.3188359120725579
	 Singles Energy            =      -0.0000000000000000 [Eh]
	 Same-Spin Energy          =      -0.1641758834427246 [Eh]
	 Opposite-Spin Energy      =      -0.5678007982250017 [Eh]
	 Correlation Energy        =      -0.7319766816677263 [Eh]
	 Total Energy              =    -172.0508125937402895 [Eh]
	 SCS Total Energy          =    -172.0549221644234592 [Eh]
    Molecular point group: c1

    Geometry (in Angstrom), charge = 0, multiplicity = 1:

       Center              X                  Y                   Z               Mass
    ------------   -----------------  -----------------  -----------------  -----------------
         O           -2.880196579918    -0.589477408729    -0.008383282517    15.994914619570
         H           -3.238856579918     0.298202591271     0.023956717483     1.007825032230
         H           -1.918696579918    -0.451887408729     0.007746717483     1.007825032230
         N            1.298013420082    -0.324967408729     0.023096717483    14.003074004430
         H            1.593373420082    -0.877607408729    -0.771693282517     1.007825032230
         H            1.608093420082    -0.835687408729     0.839956717483     1.007825032230
         C            1.957343420082     0.983392591271    -0.017143282517    12.000000000000
         H            1.646803420082     1.565122591271     0.847366717483     1.007825032230
         H            3.048653420082     0.944102591271    -0.026103282517     1.007825032230
         H            1.630633420082     1.519312591271    -0.904973282517     1.007825032230

  Charge       = 0
  Multiplicity = 1
  Basis Set: AUG-CC-PVQZ
    Blend: AUG-CC-PVQZ
  Basis Set: (AUG-CC-PVQZ AUX)
    Blend: AUG-CC-PVQZ-JKFIT

    Orbital Energies [Eh]
    ---------------------

    Doubly Occupied:

       1A    -20.550812     2A    -15.548682     3A    -11.247475
       4A     -1.334452     5A     -1.179817     6A     -0.905170
       7A     -0.697115     8A     -0.671088     9A     -0.613321
      10A     -0.570566    11A     -0.564673    12A     -0.526113
      13A     -0.495254    14A     -0.404877

  @DF-RHF Final Energy:  -171.33015250313355

   => Energetics <=

    Nuclear Repulsion Energy =             71.9585924280418823
    One-Electron Energy =                -375.9586593594364103
    Two-Electron Energy =                 132.6699144282609950
    Total Energy =                       -171.3301525031335473

  Dipole Moment: [D]
     X:     2.7023      Y:     1.5221      Z:     0.0723     Total:     3.1023

  Basis Set: (AUG-CC-PVQZ AUX)
    Blend: AUG-CC-PVQZ-RI
	 Reference Energy          =    -171.3301525031335473 [Eh]
	 Singles Energy            =      -0.0000000000000000 [Eh]
	 Same-Spin Energy          =      -0.1742035987662868 [Eh]
	 Opposite-Spin Energy      =      -0.6373143816040712 [Eh]
	 Correlation Energy        =      -0.8115179803703579 [Eh]
	 Total Energy              =    -172.1416704835039013 [Eh]

	 ================> DF-SCS-MP2 Energies <==================
	-----------------------------------------------------------
	 SCS Same-Spin Scale       =       0.3333333333333333 [-]
	 SCS Opposite-Spin Scale   =       1.2000000000000000 [-]
	 SCS Same-Spin Energy      =      -0.0580678662554289 [Eh]
	 SCS Opposite-Spin Energy  =      -0.7647772579248854 [Eh]
	 SCS Correlation Energy    =      -0.8228451241803143 [Eh]
	 SCS Total Energy          =    -172.1529976273138516 [Eh]
	-----------------------------------------------------------

*** Psi4 exiting successfully. Buy a developer a beer!
