                               Psi4 1.4a2.dev224

  ==> Input File <==

--------------------------------------------------------------------------
#Generated by lconvert.py for cbs job

memory 40 GB

molecule  {
0 1
  O       -0.6874650    -0.1117440    -0.0196250
  H       -1.0461220     0.7759380     0.0127070
  H        0.2740430     0.0258510    -0.0034970
--
0 1
  N        1.6813060     0.0813760     0.0032170
  H        1.9766710    -0.4712620    -0.7915740
  H        1.9913870    -0.4293450     0.8200760
  C        2.3406410     1.3897400    -0.0370250
  H        2.0300990     1.9714650     0.8274910
  H        3.4319510     1.3504450    -0.0459800
  H        2.0139290     1.9256580    -0.9248490
units angstrom
no_reorient
symmetry c1
}

set {
scf_type DF
mp2_type DF
e_convergence 7
reference rhf
}

energy('mp2/aug-cc-pv[tq]z', bsse_type='cp')
--------------------------------------------------------------------------

    Molecular point group: c1
  Charge       = 0
  Multiplicity = 1
  Basis Set: AUG-CC-PVTZ
    Blend: AUG-CC-PVTZ
  Basis Set: (AUG-CC-PVTZ AUX)
    Blend: AUG-CC-PVTZ-JKFIT
  @DF-RHF Final Energy:   -95.25546302950744
    Total Energy =                        -95.2554630295074389
  Basis Set: (AUG-CC-PVTZ AUX)
    Blend: AUG-CC-PVTZ-RI
	 Reference Energy          =     -95.2554630295074389 [Eh]
	 Singles Energy            =      -0.0000000000000000 [Eh]
	 Same-Spin Energy          =      -0.0953942378231771 [Eh]
	 Opposite-Spin Energy      =      -0.3516648452405233 [Eh]
	 Correlation Energy        =      -0.4470590830637005 [Eh]
	 Total Energy              =     -95.7025221125711454 [Eh]
	 SCS Total Energy          =     -95.7092589230704647 [Eh]
    Molecular point group: c1
  Basis Set: AUG-CC-PVQZ
    Blend: AUG-CC-PVQZ
  Basis Set: (AUG-CC-PVQZ AUX)
    Blend: AUG-CC-PVQZ-JKFIT
  @DF-RHF Final Energy:   -95.26144601537113
    Total Energy =                        -95.2614460153711349
  Basis Set: (AUG-CC-PVQZ AUX)
  @DF-RHF Final Energy:   -95.25556088038515
    Total Energy =                        -95.2555608803851470
  @DF-RHF Final Energy:   -95.26147894833657
    Total Energy =                        -95.2614789483365740
  @DF-RHF Final Energy:   -76.06002120072807
    Total Energy =                        -76.0600212007280732
  @DF-RHF Final Energy:   -76.06527442516722
    Total Energy =                        -76.0652744251672175
  @DF-RHF Final Energy:   -76.05987710549303
    Total Energy =                        -76.0598771054930296
  @DF-RHF Final Energy:   -76.06523393674033
    Total Energy =                        -76.0652339367403130
  @DF-RHF Final Energy:  -171.29992963069108
    Total Energy =                       -171.2999296306910821
  @DF-RHF Final Energy:  -171.31116656745746
    Total Energy =                       -171.3111665674574624
*** Psi4 exiting successfully. Buy a developer a beer!
                               Psi4 1.4a2.dev224
  @DF-RHF Final Energy:   -95.25546304433692
    Total Energy =                        -95.2554630443369206
  @DF-RHF Final Energy:   -95.26144603125204
    Total Energy =                        -95.2614460312520350
  @DF-RHF Final Energy:   -95.25554636680781
    Total Energy =                        -95.2555463668078062
  @DF-RHF Final Energy:   -95.26147591735797
    Total Energy =                        -95.2614759173579699
  @DF-RHF Final Energy:   -76.05999612339872
    Total Energy =                        -76.0599961233987045
  @DF-RHF Final Energy:   -76.06526828628337
    Total Energy =                        -76.0652682862833558
  @DF-RHF Final Energy:   -76.05987710547521
    Total Energy =                        -76.0598771054752092
  @DF-RHF Final Energy:   -76.06523393673136
    Total Energy =                        -76.0652339367313601
  @DF-RHF Final Energy:  -171.31504705737689
    Total Energy =                       -171.3150470573768871
  @DF-RHF Final Energy:  -171.32627342909001
    Total Energy =                       -171.3262734290900084
*** Psi4 exiting successfully. Buy a developer a beer!
                               Psi4 1.4a2.dev224
                               Psi4 1.4a2.dev224
                               Psi4 1.4a2.dev224
                               Psi4 1.4a2.dev224
                               Psi4 1.4a2.dev224
                               Psi4 1.4a2.dev224
                               Psi4 1.4a2.dev224
  @DF-RHF Final Energy:   -95.25546313962747
    Total Energy =                        -95.2554631396274658
  @DF-RHF Final Energy:   -95.26144613275275
    Total Energy =                        -95.2614461327527522
  @DF-RHF Final Energy:   -95.25547737432309
    Total Energy =                        -95.2554773743230925
  @DF-RHF Final Energy:   -95.26145144871121
    Total Energy =                        -95.2614514487112132
  @DF-RHF Final Energy:   -76.05989423311904
    Total Energy =                        -76.0598942331190528
  @DF-RHF Final Energy:   -76.06524220645592
    Total Energy =                        -76.0652422064559204
  @DF-RHF Final Energy:   -76.05987766221615
    Total Energy =                        -76.0598776622161381
  @DF-RHF Final Energy:   -76.06523451502859
    Total Energy =                        -76.0652345150286067
  @DF-RHF Final Energy:  -171.31883591207256
    Total Energy =                       -171.3188359120725579
  @DF-RHF Final Energy:  -171.33015250313355
    Total Energy =                       -171.3301525031335473
*** Psi4 exiting successfully. Buy a developer a beer!
                               Psi4 1.4a2.dev224
  @DF-RHF Final Energy:   -95.25546296650391
    Total Energy =                        -95.2554629665039130
  @DF-RHF Final Energy:   -95.26144594535592
    Total Energy =                        -95.2614459453559164
  @DF-RHF Final Energy:   -95.25547023480314
    Total Energy =                        -95.2554702348031412
  @DF-RHF Final Energy:   -95.26144959021850
    Total Energy =                        -95.2614495902185041
  @DF-RHF Final Energy:   -76.05988820835823
    Total Energy =                        -76.0598882083582311
  @DF-RHF Final Energy:   -76.06523812019830
    Total Energy =                        -76.0652381201983019
  @DF-RHF Final Energy:   -76.05987766221071
    Total Energy =                        -76.0598776622107096
  @DF-RHF Final Energy:   -76.06523451501987
    Total Energy =                        -76.0652345150198670
  Multiplicity = 1
  @DF-RHF Final Energy:  -171.31740260650918
    Total Energy =                       -171.3174026065091766
	 Singles Energy            =      -0.0000000000000000 [Eh]
	 Same-Spin Energy          =      -0.1639975411543801 [Eh]
	 Opposite-Spin Energy      =      -0.5674441852698777 [Eh]
	 Correlation Energy        =      -0.7314417264242579 [Eh]
	 Total Energy              =    -172.0488443329334416 [Eh]
	 SCS Total Energy          =    -172.0530014758844857 [Eh]
    Molecular point group: c1

    Geometry (in Angstrom), charge = 0, multiplicity = 1:

       Center              X                  Y                   Z               Mass
    ------------   -----------------  -----------------  -----------------  -----------------
         O           -3.261866831898    -0.604535358918    -0.010203189253    15.994914619570
         H           -3.620526831898     0.283144641082     0.022136810747     1.007825032230
         H           -2.300366831898    -0.466945358918     0.005926810747     1.007825032230
         N            1.519453168102    -0.316235358918     0.024156810747    14.003074004430
         H            1.814813168102    -0.868865358918    -0.770643189253     1.007825032230
         H            1.829533168102    -0.826955358918     0.841016810747     1.007825032230
         C            2.178793168102     0.992134641082    -0.016093189253    12.000000000000
         H            1.868243168102     1.573854641082     0.848426810747     1.007825032230
         H            3.270093168102     0.952834641082    -0.025043189253     1.007825032230
         H            1.852073168102     1.528054641082    -0.903913189253     1.007825032230

  Charge       = 0
  Multiplicity = 1
  Basis Set: AUG-CC-PVQZ
    Blend: AUG-CC-PVQZ
  Basis Set: (AUG-CC-PVQZ AUX)
    Blend: AUG-CC-PVQZ-JKFIT

    Orbital Energies [Eh]
    ---------------------

    Doubly Occupied:

       1A    -20.555472     2A    -15.545681     3A    -11.245481
       4A     -1.338904     5A     -1.177082     6A     -0.902969
       7A     -0.701593     8A     -0.668501     9A     -0.610904
      10A     -0.574632    11A     -0.562433    12A     -0.523976
      13A     -0.499601    14A     -0.401581

  @DF-RHF Final Energy:  -171.32872738999131

   => Energetics <=

    Nuclear Repulsion Energy =             69.5536528901408246
    One-Electron Energy =                -371.1471373269409355
    Two-Electron Energy =                 130.2647570468087963
    Total Energy =                       -171.3287273899913146

  Dipole Moment: [D]
     X:     2.6055      Y:     1.5170      Z:     0.0726     Total:     3.0158

  Basis Set: (AUG-CC-PVQZ AUX)
    Blend: AUG-CC-PVQZ-RI
	 Reference Energy          =    -171.3287273899913146 [Eh]
	 Singles Energy            =      -0.0000000000000000 [Eh]
	 Same-Spin Energy          =      -0.1740403872278697 [Eh]
	 Opposite-Spin Energy      =      -0.6371469800333303 [Eh]
	 Correlation Energy        =      -0.8111873672612000 [Eh]
	 Total Energy              =    -172.1399147572525123 [Eh]

	 ================> DF-SCS-MP2 Energies <==================
	-----------------------------------------------------------
	 SCS Same-Spin Scale       =       0.3333333333333333 [-]
	 SCS Opposite-Spin Scale   =       1.2000000000000000 [-]
	 SCS Same-Spin Energy      =      -0.0580134624092899 [Eh]
	 SCS Opposite-Spin Energy  =      -0.7645763760399963 [Eh]
	 SCS Correlation Energy    =      -0.8225898384492862 [Eh]
	 SCS Total Energy          =    -172.1513172284406039 [Eh]
	-----------------------------------------------------------

*** Psi4 exiting successfully. Buy a developer a beer!
