                               Psi4 1.4a2.dev224

  ==> Input File <==

--------------------------------------------------------------------------
#Generated by lconvert.py for cbs job

memory 20 GB

molecule  {
0 1
  O      -0.687460   -0.111740   -0.019630
  H      -1.046120    0.775940    0.012710
  H       0.274040    0.025850   -0.003500
--
0 1
  N       2.887630    0.128970    0.008970
  H       3.183000   -0.423670   -0.785820
  H       3.197710   -0.381750    0.825830
  C       3.546970    1.437340   -0.031270
  H       3.236430    2.019060    0.833250
  H       4.638280    1.398040   -0.040220
  H       3.220260    1.973250   -0.919090
units angstrom
no_reorient
symmetry c1
}

set {
scf_type DF
mp2_type DF
e_convergence 7
reference rhf
}

energy('mp2/aug-cc-pv[tq]z', bsse_type='cp')
--------------------------------------------------------------------------

    Molecular point group: c1
  Charge       = 0
  Multiplicity = 1
  Basis Set: AUG-CC-PVTZ
    Blend: AUG-CC-PVTZ
  Basis Set: (AUG-CC-PVTZ AUX)
    Blend: AUG-CC-PVTZ-JKFIT
  @DF-RHF Final Energy:   -95.25546293378434
    Total Energy =                        -95.2554629337843437
  Basis Set: (AUG-CC-PVTZ AUX)
    Blend: AUG-CC-PVTZ-RI
	 Reference Energy          =     -95.2554629337843437 [Eh]
	 Singles Energy            =      -0.0000000000000000 [Eh]
	 Same-Spin Energy          =      -0.0953942216576683 [Eh]
	 Opposite-Spin Energy      =      -0.3516649133222488 [Eh]
	 Correlation Energy        =      -0.4470591349799171 [Eh]
	 Total Energy              =     -95.7025220687642673 [Eh]
	 SCS Total Energy          =     -95.7092589036569308 [Eh]
    Molecular point group: c1
  Basis Set: AUG-CC-PVQZ
    Blend: AUG-CC-PVQZ
  Basis Set: (AUG-CC-PVQZ AUX)
    Blend: AUG-CC-PVQZ-JKFIT
  @DF-RHF Final Energy:   -95.26144591356989
    Total Energy =                        -95.2614459135698866
  Basis Set: (AUG-CC-PVQZ AUX)
  @DF-RHF Final Energy:   -95.25548494214860
    Total Energy =                        -95.2554849421485983
  @DF-RHF Final Energy:   -95.26145695414905
    Total Energy =                        -95.2614569541490539
  @DF-RHF Final Energy:   -76.05991293049971
    Total Energy =                        -76.0599129304997064
  @DF-RHF Final Energy:   -76.06524940301293
    Total Energy =                        -76.0652494030129276
  @DF-RHF Final Energy:   -76.05987766221857
    Total Energy =                        -76.0598776622185540
  @DF-RHF Final Energy:   -76.06523451501944
    Total Energy =                        -76.0652345150194549
  Multiplicity = 1
  @DF-RHF Final Energy:  -171.32131524548248
    Total Energy =                       -171.3213152454824808
	 Singles Energy            =      -0.0000000000000000 [Eh]
	 Same-Spin Energy          =      -0.1646448989698165 [Eh]
	 Opposite-Spin Energy      =      -0.5684893942305578 [Eh]
	 Correlation Energy        =      -0.7331342932003744 [Eh]
	 Total Energy              =    -172.0544495386828601 [Eh]
	 SCS Total Energy          =    -172.0583841515490917 [Eh]
    Molecular point group: c1

    Geometry (in Angstrom), charge = 0, multiplicity = 1:

       Center              X                  Y                   Z               Mass
    ------------   -----------------  -----------------  -----------------  -----------------
         O           -2.498525714131    -0.574418433818    -0.006561340350    15.994914619570
         H           -2.857185714131     0.313261566182     0.025778659650     1.007825032230
         H           -1.537025714131    -0.436828433818     0.009568659650     1.007825032230
         N            1.076564285869    -0.333708433818     0.022038659650    14.003074004430
         H            1.371934285869    -0.886348433818    -0.772751340350     1.007825032230
         H            1.386644285869    -0.844428433818     0.838898659650     1.007825032230
         C            1.735904285869     0.974661566182    -0.018201340350    12.000000000000
         H            1.425364285869     1.556381566182     0.846318659650     1.007825032230
         H            2.827214285869     0.935361566182    -0.027151340350     1.007825032230
         H            1.409194285869     1.510571566182    -0.906021340350     1.007825032230

  Charge       = 0
  Multiplicity = 1
  Basis Set: AUG-CC-PVQZ
    Blend: AUG-CC-PVQZ
  Basis Set: (AUG-CC-PVQZ AUX)
    Blend: AUG-CC-PVQZ-JKFIT

    Orbital Energies [Eh]
    ---------------------

    Doubly Occupied:

       1A    -20.542119     2A    -15.553446     3A    -11.250572
       4A     -1.326519     5A     -1.184392     6A     -0.908708
       7A     -0.689615     8A     -0.675316     9A     -0.617300
      10A     -0.569376    11A     -0.562364    12A     -0.529474
      13A     -0.487388    14A     -0.410522

  @DF-RHF Final Energy:  -171.33262956015454

   => Energetics <=

    Nuclear Repulsion Energy =             75.0908020325412906
    One-Electron Energy =                -382.2326373065606049
    Two-Electron Energy =                 135.8092057138647419
    Total Energy =                       -171.3326295601545439

  Dipole Moment: [D]
     X:     2.8822      Y:     1.5342      Z:     0.0720     Total:     3.2659

  Basis Set: (AUG-CC-PVQZ AUX)
    Blend: AUG-CC-PVQZ-RI
	 Reference Energy          =    -171.3326295601545439 [Eh]
	 Singles Energy            =      -0.0000000000000000 [Eh]
	 Same-Spin Energy          =      -0.1746623110423974 [Eh]
	 Opposite-Spin Energy      =      -0.6377953232599229 [Eh]
	 Correlation Energy        =      -0.8124576343023203 [Eh]
	 Total Energy              =    -172.1450871944568632 [Eh]

	 ================> DF-SCS-MP2 Energies <==================
	-----------------------------------------------------------
	 SCS Same-Spin Scale       =       0.3333333333333333 [-]
	 SCS Opposite-Spin Scale   =       1.2000000000000000 [-]
	 SCS Same-Spin Energy      =      -0.0582207703474658 [Eh]
	 SCS Opposite-Spin Energy  =      -0.7653543879119075 [Eh]
	 SCS Correlation Energy    =      -0.8235751582593732 [Eh]
	 SCS Total Energy          =    -172.1562047184139033 [Eh]
	-----------------------------------------------------------

*** Psi4 exiting successfully. Buy a developer a beer!
