                               Psi4 1.4a2.dev224

  ==> Input File <==

--------------------------------------------------------------------------
#Generated by lconvert.py for cbs job

memory 40 GB

molecule  {
0 1
  O       -0.6874650    -0.1117440    -0.0196250
  H       -1.0461220     0.7759380     0.0127070
  H        0.2740430     0.0258510    -0.0034970
--
0 1
  N        2.0834810     0.0972450     0.0051360
  H        2.3788460    -0.4553930    -0.7896550
  H        2.3935620    -0.4134760     0.8219950
  C        2.7428170     1.4056090    -0.0351060
  H        2.4322740     1.9873340     0.8294090
  H        3.8341260     1.3663140    -0.0440620
  H        2.4161040     1.9415260    -0.9229300
units angstrom
no_reorient
symmetry c1
}

set {
scf_type DF
mp2_type DF
e_convergence 7
reference rhf
}

energy('mp2/aug-cc-pv[tq]z', bsse_type='cp')
--------------------------------------------------------------------------

    Molecular point group: c1
  Charge       = 0
  Multiplicity = 1
  Basis Set: AUG-CC-PVTZ
    Blend: AUG-CC-PVTZ
  Basis Set: (AUG-CC-PVTZ AUX)
    Blend: AUG-CC-PVTZ-JKFIT
  @DF-RHF Final Energy:   -95.25546302935869
    Total Energy =                        -95.2554630293586939
  Basis Set: (AUG-CC-PVTZ AUX)
    Blend: AUG-CC-PVTZ-RI
	 Reference Energy          =     -95.2554630293586939 [Eh]
	 Singles Energy            =      -0.0000000000000000 [Eh]
	 Same-Spin Energy          =      -0.0953942388576674 [Eh]
	 Opposite-Spin Energy      =      -0.3516648448348857 [Eh]
	 Correlation Energy        =      -0.4470590836925532 [Eh]
	 Total Energy              =     -95.7025221130512449 [Eh]
	 SCS Total Energy          =     -95.7092589227797816 [Eh]
    Molecular point group: c1
  Basis Set: AUG-CC-PVQZ
    Blend: AUG-CC-PVQZ
  Basis Set: (AUG-CC-PVQZ AUX)
    Blend: AUG-CC-PVQZ-JKFIT
  @DF-RHF Final Energy:   -95.26144601580779
    Total Energy =                        -95.2614460158077918
  Basis Set: (AUG-CC-PVQZ AUX)
  @DF-RHF Final Energy:   -95.25552674736502
    Total Energy =                        -95.2555267473650247
  @DF-RHF Final Energy:   -95.26147134138674
    Total Energy =                        -95.2614713413867378
  @DF-RHF Final Energy:   -76.05997384930291
    Total Energy =                        -76.0599738493029065
  @DF-RHF Final Energy:   -76.06526395526258
    Total Energy =                        -76.0652639552625800
  @DF-RHF Final Energy:   -76.05987710548294
    Total Energy =                        -76.0598771054829399
  @DF-RHF Final Energy:   -76.06523393674375
    Total Energy =                        -76.0652339367437378
  Multiplicity = 1
  @DF-RHF Final Energy:  -171.32116305640426
    Total Energy =                       -171.3211630564042594
	 Singles Energy            =      -0.0000000000000000 [Eh]
	 Same-Spin Energy          =      -0.1668294259223013 [Eh]
	 Opposite-Spin Energy      =      -0.5709519800264119 [Eh]
	 Correlation Energy        =      -0.7377814059487132 [Eh]
	 Total Energy              =    -172.0589444623529687 [Eh]
	 SCS Total Energy          =    -172.0619152410767185 [Eh]
    Molecular point group: c1

    Geometry (in Angstrom), charge = 0, multiplicity = 1:

       Center              X                  Y                   Z               Mass
    ------------   -----------------  -----------------  -----------------  -----------------
         O           -1.989635769087    -0.554343019760    -0.004130727853    15.994914619570
         H           -2.348292769087     0.333338980240     0.028201272147     1.007825032230
         H           -1.028127769087    -0.416748019760     0.011997272147     1.007825032230
         N            0.781310230913    -0.345354019760     0.020630272147    14.003074004430
         H            1.076675230913    -0.897992019760    -0.774160727853     1.007825032230
         H            1.091391230913    -0.856075019760     0.837489272147     1.007825032230
         C            1.440646230913     0.963009980240    -0.019611727853    12.000000000000
         H            1.130103230913     1.544734980240     0.844903272147     1.007825032230
         H            2.531955230913     0.923714980240    -0.028567727853     1.007825032230
         H            1.113933230913     1.498926980240    -0.907435727853     1.007825032230

  Charge       = 0
  Multiplicity = 1
  Basis Set: AUG-CC-PVQZ
    Blend: AUG-CC-PVQZ
  Basis Set: (AUG-CC-PVQZ AUX)
    Blend: AUG-CC-PVQZ-JKFIT

    Orbital Energies [Eh]
    ---------------------

    Doubly Occupied:

       1A    -20.512529     2A    -15.563492     3A    -11.258298
       4A     -1.303997     5A     -1.197556     6A     -0.918482
       7A     -0.686848     8A     -0.677240     9A     -0.627098
      10A     -0.578232    11A     -0.543118    12A     -0.538096
      13A     -0.462870    14A     -0.420572

  @DF-RHF Final Energy:  -171.33241195922110

   => Energetics <=

    Nuclear Repulsion Energy =             81.1396411422655603
    One-Electron Energy =                -394.3672450265327143
    Two-Electron Energy =                 141.8951919250460776
    Total Energy =                       -171.3324119592211048

  Dipole Moment: [D]
     X:     3.4368      Y:     1.5790      Z:     0.0733     Total:     3.7829

  Basis Set: (AUG-CC-PVQZ AUX)
    Blend: AUG-CC-PVQZ-RI
	 Reference Energy          =    -171.3324119592211048 [Eh]
	 Singles Energy            =      -0.0000000000000000 [Eh]
	 Same-Spin Energy          =      -0.1768640177391412 [Eh]
	 Opposite-Spin Energy      =      -0.6399280314879017 [Eh]
	 Correlation Energy        =      -0.8167920492270428 [Eh]
	 Total Energy              =    -172.1492040084481516 [Eh]

	 ================> DF-SCS-MP2 Energies <==================
	-----------------------------------------------------------
	 SCS Same-Spin Scale       =       0.3333333333333333 [-]
	 SCS Opposite-Spin Scale   =       1.2000000000000000 [-]
	 SCS Same-Spin Energy      =      -0.0589546725797137 [Eh]
	 SCS Opposite-Spin Energy  =      -0.7679136377854819 [Eh]
	 SCS Correlation Energy    =      -0.8268683103651957 [Eh]
	 SCS Total Energy          =    -172.1592802695863043 [Eh]
	-----------------------------------------------------------

*** Psi4 exiting successfully. Buy a developer a beer!
