                               Psi4 1.4a2.dev224

  ==> Input File <==

--------------------------------------------------------------------------
#Generated by lconvert.py for cbs job

memory 40 GB

molecule  {
0 1
  O       -0.6874650    -0.1117440    -0.0196250
  H       -1.0461220     0.7759380     0.0127070
  H        0.2740430     0.0258510    -0.0034970
--
0 1
  N        2.3850380     0.1091430     0.0065740
  H        2.6804020    -0.4434950    -0.7882160
  H        2.6951180    -0.4015780     0.8234340
  C        3.0443730     1.4175070    -0.0336670
  H        2.7338310     1.9992320     0.8308480
  H        4.1356820     1.3782120    -0.0426230
  H        2.7176610     1.9534240    -0.9214910
units angstrom
no_reorient
symmetry c1
}

set {
scf_type DF
mp2_type DF
e_convergence 7
reference rhf
}

energy('mp2/aug-cc-pv[tq]z', bsse_type='cp')
--------------------------------------------------------------------------

    Molecular point group: c1
  Charge       = 0
  Multiplicity = 1
  Basis Set: AUG-CC-PVTZ
    Blend: AUG-CC-PVTZ
  Basis Set: (AUG-CC-PVTZ AUX)
    Blend: AUG-CC-PVTZ-JKFIT
  @DF-RHF Final Energy:   -95.25546306368615
    Total Energy =                        -95.2554630636861503
  Basis Set: (AUG-CC-PVTZ AUX)
    Blend: AUG-CC-PVTZ-RI
	 Reference Energy          =     -95.2554630636861503 [Eh]
	 Singles Energy            =      -0.0000000000000000 [Eh]
	 Same-Spin Energy          =      -0.0953942365473276 [Eh]
	 Opposite-Spin Energy      =      -0.3516648215723757 [Eh]
	 Correlation Energy        =      -0.4470590581197033 [Eh]
	 Total Energy              =     -95.7025221218058562 [Eh]
	 SCS Total Energy          =     -95.7092589284221162 [Eh]
    Molecular point group: c1
  Basis Set: AUG-CC-PVQZ
    Blend: AUG-CC-PVQZ
  Basis Set: (AUG-CC-PVQZ AUX)
    Blend: AUG-CC-PVQZ-JKFIT
  @DF-RHF Final Energy:   -95.26144605198753
    Total Energy =                        -95.2614460519875337
  Basis Set: (AUG-CC-PVQZ AUX)
  @DF-RHF Final Energy:   -95.25549969995525
    Total Energy =                        -95.2554996999552515
  @DF-RHF Final Energy:   -95.26146365774360
    Total Energy =                        -95.2614636577436045
  @DF-RHF Final Energy:   -76.05994223651760
    Total Energy =                        -76.0599422365175997
  @DF-RHF Final Energy:   -76.06525789336661
    Total Energy =                        -76.0652578933666064
  @DF-RHF Final Energy:   -76.05987710548686
    Total Energy =                        -76.0598771054868621
  @DF-RHF Final Energy:   -76.06523393672177
    Total Energy =                        -76.0652339367217678
  Multiplicity = 1
  @DF-RHF Final Energy:  -171.32317092974745
    Total Energy =                       -171.3231709297474481
	 Singles Energy            =      -0.0000000000000000 [Eh]
	 Same-Spin Energy          =      -0.1656493722068160 [Eh]
	 Opposite-Spin Energy      =      -0.5696949853352125 [Eh]
	 Correlation Energy        =      -0.7353443575420284 [Eh]
	 Total Energy              =    -172.0585152872894810 [Eh]
	 SCS Total Energy          =    -172.0620213695519851 [Eh]
    Molecular point group: c1

    Geometry (in Angstrom), charge = 0, multiplicity = 1:

       Center              X                  Y                   Z               Mass
    ------------   -----------------  -----------------  -----------------  -----------------
         O           -2.180470631297    -0.561872464723    -0.005041088820    15.994914619570
         H           -2.539127631297     0.325809535277     0.027290911180     1.007825032230
         H           -1.218962631297    -0.424277464723     0.011086911180     1.007825032230
         N            0.892032368703    -0.340985464723     0.021157911180    14.003074004430
         H            1.187396368703    -0.893623464723    -0.773632088820     1.007825032230
         H            1.202112368703    -0.851706464723     0.838017911180     1.007825032230
         C            1.551367368703     0.967378535277    -0.019083088820    12.000000000000
         H            1.240825368703     1.549103535277     0.845431911180     1.007825032230
         H            2.642676368703     0.928083535277    -0.028039088820     1.007825032230
         H            1.224655368703     1.503295535277    -0.906907088820     1.007825032230

  Charge       = 0
  Multiplicity = 1
  Basis Set: AUG-CC-PVQZ
    Blend: AUG-CC-PVQZ
  Basis Set: (AUG-CC-PVQZ AUX)
    Blend: AUG-CC-PVQZ-JKFIT

    Orbital Energies [Eh]
    ---------------------

    Doubly Occupied:

       1A    -20.527705     2A    -15.559189     3A    -11.254656
       4A     -1.314654     5A     -1.191057     6A     -0.913665
       7A     -0.681367     8A     -0.680609     9A     -0.622752
      10A     -0.574447    11A     -0.551873    12A     -0.533981
      13A     -0.475050    14A     -0.417407

  @DF-RHF Final Energy:  -171.33447307503087

   => Energetics <=

    Nuclear Repulsion Energy =             78.5368832641735821
    One-Electron Energy =                -389.1458856267385045
    Two-Electron Energy =                 139.2745292875340510
    Total Energy =                       -171.3344730750308713

  Dipole Moment: [D]
     X:     3.1615      Y:     1.5556      Z:     0.0724     Total:     3.5242

  Basis Set: (AUG-CC-PVQZ AUX)
    Blend: AUG-CC-PVQZ-RI
	 Reference Energy          =    -171.3344730750308713 [Eh]
	 Singles Energy            =      -0.0000000000000000 [Eh]
	 Same-Spin Energy          =      -0.1756667021306271 [Eh]
	 Opposite-Spin Energy      =      -0.6387717158847201 [Eh]
	 Correlation Energy        =      -0.8144384180153472 [Eh]
	 Total Energy              =    -172.1489114930462279 [Eh]

	 ================> DF-SCS-MP2 Energies <==================
	-----------------------------------------------------------
	 SCS Same-Spin Scale       =       0.3333333333333333 [-]
	 SCS Opposite-Spin Scale   =       1.2000000000000000 [-]
	 SCS Same-Spin Energy      =      -0.0585555673768757 [Eh]
	 SCS Opposite-Spin Energy  =      -0.7665260590616642 [Eh]
	 SCS Correlation Energy    =      -0.8250816264385399 [Eh]
	 SCS Total Energy          =    -172.1595547014694034 [Eh]
	-----------------------------------------------------------

*** Psi4 exiting successfully. Buy a developer a beer!
