                               Psi4 1.4a2.dev224

  ==> Input File <==

--------------------------------------------------------------------------
#Generated by lconvert.py for cbs job

memory 40 GB

molecule  {
0 1
  O       -0.6874650    -0.1117440    -0.0196250
  H       -1.0461220     0.7759380     0.0127070
  H        0.2740430     0.0258510    -0.0034970
--
0 1
  N        2.4855570     0.1131090     0.0070540
  H        2.7809210    -0.4395290    -0.7877370
  H        2.7956370    -0.3976120     0.8239130
  C        3.1448920     1.4214730    -0.0331880
  H        2.8343500     2.0031980     0.8313280
  H        4.2362010     1.3821780    -0.0421430
  H        2.8181800     1.9573900    -0.9210110
units angstrom
no_reorient
symmetry c1
}

set {
scf_type DF
mp2_type DF
e_convergence 7
reference rhf
}

energy('mp2/aug-cc-pv[tq]z', bsse_type='cp')
--------------------------------------------------------------------------

    Molecular point group: c1
  Charge       = 0
  Multiplicity = 1
  Basis Set: AUG-CC-PVTZ
    Blend: AUG-CC-PVTZ
  Basis Set: (AUG-CC-PVTZ AUX)
    Blend: AUG-CC-PVTZ-JKFIT
  @DF-RHF Final Energy:   -95.25546306395616
    Total Energy =                        -95.2554630639561566
  Basis Set: (AUG-CC-PVTZ AUX)
    Blend: AUG-CC-PVTZ-RI
	 Reference Energy          =     -95.2554630639561566 [Eh]
	 Singles Energy            =      -0.0000000000000000 [Eh]
	 Same-Spin Energy          =      -0.0953942363764606 [Eh]
	 Opposite-Spin Energy      =      -0.3516648214158225 [Eh]
	 Correlation Energy        =      -0.4470590577922831 [Eh]
	 Total Energy              =     -95.7025221217484443 [Eh]
	 SCS Total Energy          =     -95.7092589284472979 [Eh]
    Molecular point group: c1
  Basis Set: AUG-CC-PVQZ
    Blend: AUG-CC-PVQZ
  Basis Set: (AUG-CC-PVQZ AUX)
    Blend: AUG-CC-PVQZ-JKFIT
  @DF-RHF Final Energy:   -95.26144605211815
    Total Energy =                        -95.2614460521181456
  Basis Set: (AUG-CC-PVQZ AUX)
  @DF-RHF Final Energy:   -95.25549351743061
    Total Energy =                        -95.2554935174306081
  @DF-RHF Final Energy:   -95.26146171111391
    Total Energy =                        -95.2614617111139097
  @DF-RHF Final Energy:   -76.05993424996423
    Total Energy =                        -76.0599342499642290
  @DF-RHF Final Energy:   -76.06525594401130
    Total Energy =                        -76.0652559440112981
  @DF-RHF Final Energy:   -76.05987710548116
    Total Energy =                        -76.0598771054811778
  @DF-RHF Final Energy:   -76.06523393673088
    Total Energy =                        -76.0652339367308770
  Multiplicity = 1
  @DF-RHF Final Energy:  -171.32302241351306
    Total Energy =                       -171.3230224135130584
	 Singles Energy            =      -0.0000000000000000 [Eh]
	 Same-Spin Energy          =      -0.1653724844360778 [Eh]
	 Opposite-Spin Energy      =      -0.5693798247906317 [Eh]
	 Correlation Energy        =      -0.7347523092267094 [Eh]
	 Total Energy              =    -172.0577747227397651 [Eh]
	 SCS Total Energy          =    -172.0614023647405020 [Eh]
    Molecular point group: c1

    Geometry (in Angstrom), charge = 0, multiplicity = 1:

       Center              X                  Y                   Z               Mass
    ------------   -----------------  -----------------  -----------------  -----------------
         O           -2.244082354125    -0.564382279710    -0.005344562850    15.994914619570
         H           -2.602739354125     0.323299720290     0.026987437150     1.007825032230
         H           -1.282574354125    -0.426787279710     0.010783437150     1.007825032230
         N            0.928939645875    -0.339529279710     0.021334437150    14.003074004430
         H            1.224303645875    -0.892167279710    -0.773456562850     1.007825032230
         H            1.239019645875    -0.850250279710     0.838193437150     1.007825032230
         C            1.588274645875     0.968834720290    -0.018907562850    12.000000000000
         H            1.277732645875     1.550559720290     0.845608437150     1.007825032230
         H            2.679583645875     0.929539720290    -0.027862562850     1.007825032230
         H            1.261562645875     1.504751720290    -0.906730562850     1.007825032230

  Charge       = 0
  Multiplicity = 1
  Basis Set: AUG-CC-PVQZ
    Blend: AUG-CC-PVQZ
  Basis Set: (AUG-CC-PVQZ AUX)
    Blend: AUG-CC-PVQZ-JKFIT

    Orbital Energies [Eh]
    ---------------------

    Doubly Occupied:

       1A    -20.531441     2A    -15.557903     3A    -11.253679
       4A     -1.317569     5A     -1.189397     6A     -0.912441
       7A     -0.682587     8A     -0.679754     9A     -0.621461
      10A     -0.573247    11A     -0.554409    12A     -0.532893
      13A     -0.478168    14A     -0.415966

  @DF-RHF Final Energy:  -171.33433289034880

   => Energetics <=

    Nuclear Repulsion Energy =             77.7691261230395128
    One-Electron Energy =                -387.6050860743819158
    Two-Electron Energy =                 138.5016270609935702
    Total Energy =                       -171.3343328903488043

  Dipole Moment: [D]
     X:     3.0912      Y:     1.5500      Z:     0.0722     Total:     3.4588

  Basis Set: (AUG-CC-PVQZ AUX)
    Blend: AUG-CC-PVQZ-RI
	 Reference Energy          =    -171.3343328903488043 [Eh]
	 Singles Energy            =      -0.0000000000000000 [Eh]
	 Same-Spin Energy          =      -0.1753882559353568 [Eh]
	 Opposite-Spin Energy      =      -0.6385039921952669 [Eh]
	 Correlation Energy        =      -0.8138922481306237 [Eh]
	 Total Energy              =    -172.1482251384794324 [Eh]

	 ================> DF-SCS-MP2 Energies <==================
	-----------------------------------------------------------
	 SCS Same-Spin Scale       =       0.3333333333333333 [-]
	 SCS Opposite-Spin Scale   =       1.2000000000000000 [-]
	 SCS Same-Spin Energy      =      -0.0584627519784523 [Eh]
	 SCS Opposite-Spin Energy  =      -0.7662047906343202 [Eh]
	 SCS Correlation Energy    =      -0.8246675426127725 [Eh]
	 SCS Total Energy          =    -172.1590004329615908 [Eh]
	-----------------------------------------------------------

*** Psi4 exiting successfully. Buy a developer a beer!
