                               Psi4 1.4a2.dev224

  ==> Input File <==

--------------------------------------------------------------------------
#Generated by lconvert.py for cbs job

memory 40 GB

molecule  {
0 1
  O       -0.6874650    -0.1117440    -0.0196250
  H       -1.0461220     0.7759380     0.0127070
  H        0.2740430     0.0258510    -0.0034970
--
0 1
  N        1.8823440     0.0893080     0.0041760
  H        2.1777080    -0.4633300    -0.7906150
  H        2.1924240    -0.4214130     0.8210360
  C        2.5416790     1.3976720    -0.0360660
  H        2.2311370     1.9793970     0.8284500
  H        3.6329880     1.3583770    -0.0450210
  H        2.2149670     1.9335900    -0.9238890
units angstrom
no_reorient
symmetry c1
}

set {
scf_type DF
mp2_type DF
e_convergence 7
reference rhf
}

energy('mp2/aug-cc-pv[tq]z', bsse_type='cp')
--------------------------------------------------------------------------

    Molecular point group: c1
  Charge       = 0
  Multiplicity = 1
  Basis Set: AUG-CC-PVTZ
    Blend: AUG-CC-PVTZ
  Basis Set: (AUG-CC-PVTZ AUX)
    Blend: AUG-CC-PVTZ-JKFIT
  @DF-RHF Final Energy:   -95.25546304433692
    Total Energy =                        -95.2554630443369206
  Basis Set: (AUG-CC-PVTZ AUX)
    Blend: AUG-CC-PVTZ-RI
	 Reference Energy          =     -95.2554630443369206 [Eh]
	 Singles Energy            =      -0.0000000000000000 [Eh]
	 Same-Spin Energy          =      -0.0953942391521152 [Eh]
	 Opposite-Spin Energy      =      -0.3516648353021534 [Eh]
	 Correlation Energy        =      -0.4470590744542686 [Eh]
	 Total Energy              =     -95.7025221187911939 [Eh]
	 SCS Total Energy          =     -95.7092589264168794 [Eh]
    Molecular point group: c1
  Basis Set: AUG-CC-PVQZ
    Blend: AUG-CC-PVQZ
  Basis Set: (AUG-CC-PVQZ AUX)
    Blend: AUG-CC-PVQZ-JKFIT
  @DF-RHF Final Energy:   -95.26144603125204
    Total Energy =                        -95.2614460312520350
  Basis Set: (AUG-CC-PVQZ AUX)
  @DF-RHF Final Energy:   -95.25554636680781
    Total Energy =                        -95.2555463668078062
  @DF-RHF Final Energy:   -95.26147591735797
    Total Energy =                        -95.2614759173579699
  @DF-RHF Final Energy:   -76.05999612339872
    Total Energy =                        -76.0599961233987045
  @DF-RHF Final Energy:   -76.06526828628337
    Total Energy =                        -76.0652682862833558
  @DF-RHF Final Energy:   -76.05987710547521
    Total Energy =                        -76.0598771054752092
  @DF-RHF Final Energy:   -76.06523393673136
    Total Energy =                        -76.0652339367313601
  Multiplicity = 1
  @DF-RHF Final Energy:  -171.31504705737689
    Total Energy =                       -171.3150470573768871
	 Singles Energy            =      -0.0000000000000000 [Eh]
	 Same-Spin Energy          =      -0.1679989522149309 [Eh]
	 Opposite-Spin Energy      =      -0.5721359176343951 [Eh]
	 Correlation Energy        =      -0.7401348698493260 [Eh]
	 Total Energy              =    -172.0551819272262151 [Eh]
	 SCS Total Energy          =    -172.0576098092764710 [Eh]
    Molecular point group: c1

    Geometry (in Angstrom), charge = 0, multiplicity = 1:

       Center              X                  Y                   Z               Mass
    ------------   -----------------  -----------------  -----------------  -----------------
         O           -1.862349366710    -0.549320246167    -0.003523290523    15.994914619570
         H           -2.221006366710     0.338361753833     0.028808709477     1.007825032230
         H           -0.900841366710    -0.411725246167     0.012604709477     1.007825032230
         N            0.707459633290    -0.348268246167     0.020277709477    14.003074004430
         H            1.002823633290    -0.900906246167    -0.774513290523     1.007825032230
         H            1.017539633290    -0.858989246167     0.837137709477     1.007825032230
         C            1.366794633290     0.960095753833    -0.019964290523    12.000000000000
         H            1.056252633290     1.541820753833     0.844551709477     1.007825032230
         H            2.458103633290     0.920800753833    -0.028919290523     1.007825032230
         H            1.040082633290     1.496013753833    -0.907787290523     1.007825032230

  Charge       = 0
  Multiplicity = 1
  Basis Set: AUG-CC-PVQZ
    Blend: AUG-CC-PVQZ
  Basis Set: (AUG-CC-PVQZ AUX)
    Blend: AUG-CC-PVQZ-JKFIT

    Orbital Energies [Eh]
    ---------------------

    Doubly Occupied:

       1A    -20.497831     2A    -15.566779     3A    -11.261543
       4A     -1.295727     5A     -1.203473     6A     -0.923160
       7A     -0.692154     8A     -0.679895     9A     -0.630077
      10A     -0.580078    11A     -0.541838    12A     -0.536882
      13A     -0.451710    14A     -0.419426

  @DF-RHF Final Energy:  -171.32627342909001

   => Energetics <=

    Nuclear Repulsion Energy =             83.1813844671262359
    One-Electron Energy =                -398.4541676730036102
    Two-Electron Energy =                 143.9465097767873658
    Total Energy =                       -171.3262734290900084

  Dipole Moment: [D]
     X:     3.6929      Y:     1.6028      Z:     0.0744     Total:     4.0264

  Basis Set: (AUG-CC-PVQZ AUX)
    Blend: AUG-CC-PVQZ-RI
	 Reference Energy          =    -171.3262734290900084 [Eh]
	 Singles Energy            =      -0.0000000000000000 [Eh]
	 Same-Spin Energy          =      -0.1780608729537118 [Eh]
	 Opposite-Spin Energy      =      -0.6410981220339773 [Eh]
	 Correlation Energy        =      -0.8191589949876892 [Eh]
	 Total Energy              =    -172.1454324240777112 [Eh]

	 ================> DF-SCS-MP2 Energies <==================
	-----------------------------------------------------------
	 SCS Same-Spin Scale       =       0.3333333333333333 [-]
	 SCS Opposite-Spin Scale   =       1.2000000000000000 [-]
	 SCS Same-Spin Energy      =      -0.0593536243179039 [Eh]
	 SCS Opposite-Spin Energy  =      -0.7693177464407728 [Eh]
	 SCS Correlation Energy    =      -0.8286713707586767 [Eh]
	 SCS Total Energy          =    -172.1549447998486926 [Eh]
	-----------------------------------------------------------

*** Psi4 exiting successfully. Buy a developer a beer!
