                               Psi4 1.4a2.dev224

  ==> Input File <==

--------------------------------------------------------------------------
#Generated by lconvert.py for cbs job

memory 40 GB

molecule  {
0 1
  O       -0.3920180    -0.3847190     0.0760710
  H       -0.9114610     0.4138120     0.1776490
  H        0.5249040    -0.0684850     0.0905110
--
0 1
  C        2.2407870    -2.2408320    -0.2310500
  H        2.8907500    -3.1019440    -0.3639650
  H        1.5598110    -2.1633600    -1.0749150
  H        1.6277700    -2.3796280     0.6559590
  C        2.9955190    -0.9428190    -0.0984560
  O        2.4188030     0.1324760     0.0581320
  N        4.3461520    -1.0403220    -0.1630740
  H        4.7471040    -1.9508560    -0.2925890
  C        5.2143940     0.1116490    -0.0536310
  H        4.5779000     0.9799490     0.0811530
  H        5.8799840     0.0201930     0.8024620
  H        5.8088600     0.2410690    -0.9558900
units angstrom
no_reorient
symmetry c1
}

set {
scf_type DF
mp2_type DF
e_convergence 7
reference rhf
}

energy('mp2/aug-cc-pv[tq]z', bsse_type='cp')
--------------------------------------------------------------------------

    Molecular point group: c1
  Charge       = 0
  Multiplicity = 1
  Basis Set: AUG-CC-PVTZ
    Blend: AUG-CC-PVTZ
  Basis Set: (AUG-CC-PVTZ AUX)
    Blend: AUG-CC-PVTZ-JKFIT
  @DF-RHF Final Energy:  -247.10244925040428
    Total Energy =                       -247.1024492504042769
  Basis Set: (AUG-CC-PVTZ AUX)
    Blend: AUG-CC-PVTZ-RI
	 Reference Energy          =    -247.1024492504042769 [Eh]
	 Singles Energy            =      -0.0000000000000000 [Eh]
	 Same-Spin Energy          =      -0.2465416086770907 [Eh]
	 Opposite-Spin Energy      =      -0.8098921891736348 [Eh]
	 Correlation Energy        =      -1.0564337978507254 [Eh]
	 Total Energy              =    -248.1588830482550065 [Eh]
	 SCS Total Energy          =    -248.1565004136383266 [Eh]
    Molecular point group: c1
  Basis Set: AUG-CC-PVQZ
    Blend: AUG-CC-PVQZ
  Basis Set: (AUG-CC-PVQZ AUX)
    Blend: AUG-CC-PVQZ-JKFIT
  @DF-RHF Final Energy:  -247.11788415990799
    Total Energy =                       -247.1178841599079874
  Basis Set: (AUG-CC-PVQZ AUX)
  @DF-RHF Final Energy:  -247.10252725565761
    Total Energy =                       -247.1025272556576056
  @DF-RHF Final Energy:  -247.11791088461138
    Total Energy =                       -247.1179108846113763
  @DF-RHF Final Energy:   -76.06003788556461
    Total Energy =                        -76.0600378855646255
  @DF-RHF Final Energy:   -76.06535008660546
    Total Energy =                        -76.0653500866054628
  @DF-RHF Final Energy:   -76.05995803480808
    Total Energy =                        -76.0599580348080622
  @DF-RHF Final Energy:   -76.06531808331660
    Total Energy =                        -76.0653180833165976
  Multiplicity = 1
  @DF-RHF Final Energy:  -323.17193985986768
    Total Energy =                       -323.1719398598676776
	 Singles Energy            =      -0.0000000000000000 [Eh]
	 Same-Spin Energy          =      -0.3172833696252234 [Eh]
	 Opposite-Spin Energy      =      -1.0281424744067857 [Eh]
	 Correlation Energy        =      -1.3454258440320093 [Eh]
	 Total Energy              =    -324.5173657038997135 [Eh]
	 SCS Total Energy          =    -324.5114719523642179 [Eh]
    Molecular point group: c1

    Geometry (in Angstrom), charge = 0, multiplicity = 1:

       Center              X                  Y                   Z               Mass
    ------------   -----------------  -----------------  -----------------  -----------------
         O           -3.089050267823     0.313018045915     0.137798634472    15.994914619570
         H           -3.608493267823     1.111549045915     0.239376634472     1.007825032230
         H           -2.172128267823     0.629252045915     0.152238634472     1.007825032230
         C           -0.456245267823    -1.543094954085    -0.169322365528    12.000000000000
         H            0.193717732177    -2.404206954085    -0.302237365528     1.007825032230
         H           -1.137221267823    -1.465622954085    -1.013187365528     1.007825032230
         H           -1.069262267823    -1.681890954085     0.717686634472     1.007825032230
         C            0.298486732177    -0.245081954085    -0.036728365528    12.000000000000
         O           -0.278229267823     0.830213045915     0.119859634472    15.994914619570
         N            1.649119732177    -0.342584954085    -0.101346365528    14.003074004430
         H            2.050071732177    -1.253118954085    -0.230861365528     1.007825032230
         C            2.517361732177     0.809386045915     0.008096634472    12.000000000000
         H            1.880867732177     1.677686045915     0.142880634472     1.007825032230
         H            3.182951732177     0.717930045915     0.864189634472     1.007825032230
         H            3.111827732177     0.938806045915    -0.894162365528     1.007825032230

  Charge       = 0
  Multiplicity = 1
  Basis Set: AUG-CC-PVQZ
    Blend: AUG-CC-PVQZ
  Basis Set: (AUG-CC-PVQZ AUX)
    Blend: AUG-CC-PVQZ-JKFIT

    Orbital Energies [Eh]
    ---------------------

    Doubly Occupied:

       1A    -20.522390     2A    -20.522238     3A    -15.595300
       4A    -11.359101     5A    -11.262530     6A    -11.234814
       7A     -1.387598     8A     -1.310603     9A     -1.241358
      10A     -1.024965    11A     -0.939791    12A     -0.802147
      13A     -0.698959    14A     -0.680241    15A     -0.664717
      16A     -0.641658    17A     -0.591665    18A     -0.591264
      19A     -0.563588    20A     -0.552464    21A     -0.543491
      22A     -0.513768    23A     -0.471216    24A     -0.436217
      25A     -0.404382

  @DF-RHF Final Energy:  -323.19268755023296

   => Energetics <=

    Nuclear Repulsion Energy =            246.2184885611336824
    One-Electron Energy =                -929.7094291808045909
    Two-Electron Energy =                 360.2982530694379761
    Total Energy =                       -323.1926875502329608

  Dipole Moment: [D]
     X:     3.9750      Y:    -1.5253      Z:    -0.3533     Total:     4.2722

  Basis Set: (AUG-CC-PVQZ AUX)
    Blend: AUG-CC-PVQZ-RI
	 Reference Energy          =    -323.1926875502329608 [Eh]
	 Singles Energy            =      -0.0000000000000000 [Eh]
	 Same-Spin Energy          =      -0.3364870134095538 [Eh]
	 Opposite-Spin Energy      =      -1.1565781090607370 [Eh]
	 Correlation Energy        =      -1.4930651224702909 [Eh]
	 Total Energy              =    -324.6857526727032450 [Eh]

	 ================> DF-SCS-MP2 Energies <==================
	-----------------------------------------------------------
	 SCS Same-Spin Scale       =       0.3333333333333333 [-]
	 SCS Opposite-Spin Scale   =       1.2000000000000000 [-]
	 SCS Same-Spin Energy      =      -0.1121623378031846 [Eh]
	 SCS Opposite-Spin Energy  =      -1.3878937308728843 [Eh]
	 SCS Correlation Energy    =      -1.5000560686760689 [Eh]
	 SCS Total Energy          =    -324.6927436189090486 [Eh]
	-----------------------------------------------------------

*** Psi4 exiting successfully. Buy a developer a beer!
