                               Psi4 1.4a2.dev224

  ==> Input File <==

--------------------------------------------------------------------------
#Generated by lconvert.py for cbs job

memory 20 GB

molecule  {
0 1
  O      -0.392020   -0.384720    0.076070
  H      -0.911460    0.413810    0.177650
  H       0.524900   -0.068490    0.090510
--
0 1
  C       3.377180   -2.120250   -0.250480
  H       4.027140   -2.981360   -0.383390
  H       2.696200   -2.042780   -1.094340
  H       2.764160   -2.259050    0.636530
  C       4.131910   -0.822240   -0.117890
  O       3.555200    0.253060    0.038700
  N       5.482550   -0.919740   -0.182500
  H       5.883500   -1.830270   -0.312020
  C       6.350790    0.232230   -0.073060
  H       5.714290    1.100530    0.061730
  H       7.016380    0.140780    0.783030
  H       6.945250    0.361650   -0.975320
units angstrom
no_reorient
symmetry c1
}

set {
scf_type DF
mp2_type DF
e_convergence 7
reference rhf
}

energy('mp2/aug-cc-pv[tq]z', bsse_type='cp')
--------------------------------------------------------------------------

    Molecular point group: c1
  Charge       = 0
  Multiplicity = 1
  Basis Set: AUG-CC-PVTZ
    Blend: AUG-CC-PVTZ
  Basis Set: (AUG-CC-PVTZ AUX)
    Blend: AUG-CC-PVTZ-JKFIT
  @DF-RHF Final Energy:  -247.10244899366000
    Total Energy =                       -247.1024489936600048
  Basis Set: (AUG-CC-PVTZ AUX)
    Blend: AUG-CC-PVTZ-RI
	 Reference Energy          =    -247.1024489936600048 [Eh]
	 Singles Energy            =      -0.0000000000000000 [Eh]
	 Same-Spin Energy          =      -0.2465416950572673 [Eh]
	 Opposite-Spin Energy      =      -0.8098923153731175 [Eh]
	 Correlation Energy        =      -1.0564340104303847 [Eh]
	 Total Energy              =    -248.1588830040903986 [Eh]
	 SCS Total Energy          =    -248.1565003371268290 [Eh]
    Molecular point group: c1
  Basis Set: AUG-CC-PVQZ
    Blend: AUG-CC-PVQZ
  Basis Set: (AUG-CC-PVQZ AUX)
    Blend: AUG-CC-PVQZ-JKFIT
  @DF-RHF Final Energy:  -247.11788389434804
    Total Energy =                       -247.1178838943480400
  Basis Set: (AUG-CC-PVQZ AUX)
  @DF-RHF Final Energy:  -247.10247317071901
    Total Energy =                       -247.1024731707190085
  @DF-RHF Final Energy:  -247.11789377375686
    Total Energy =                       -247.1178937737568617
  @DF-RHF Final Energy:   -76.05998203449606
    Total Energy =                        -76.0599820344960449
  @DF-RHF Final Energy:   -76.06532914764185
    Total Energy =                        -76.0653291476418474
  @DF-RHF Final Energy:   -76.05995829415431
    Total Energy =                        -76.0599582941543133
  @DF-RHF Final Energy:   -76.06531835617399
    Total Energy =                        -76.0653183561739894
  Multiplicity = 1
  @DF-RHF Final Energy:  -323.16714907070923
    Total Energy =                       -323.1671490707092289
	 Singles Energy            =      -0.0000000000000000 [Eh]
	 Same-Spin Energy          =      -0.3153775181855437 [Eh]
	 Opposite-Spin Energy      =      -1.0259932179436508 [Eh]
	 Correlation Energy        =      -1.3413707361291944 [Eh]
	 Total Energy              =    -324.5085198068384216 [Eh]
	 SCS Total Energy          =    -324.5034667716367949 [Eh]
    Molecular point group: c1

    Geometry (in Angstrom), charge = 0, multiplicity = 1:

       Center              X                  Y                   Z               Mass
    ------------   -----------------  -----------------  -----------------  -----------------
         O           -4.000689825000     0.216284228479     0.153384897528    15.994914619570
         H           -4.520129825000     1.014814228479     0.254964897528     1.007825032230
         H           -3.083769825000     0.532514228479     0.167824897528     1.007825032230
         C           -0.231489825000    -1.519245771521    -0.173165102472    12.000000000000
         H            0.418470175000    -2.380355771521    -0.306075102472     1.007825032230
         H           -0.912469825000    -1.441775771521    -1.017025102472     1.007825032230
         H           -0.844509825000    -1.658045771521     0.713844897528     1.007825032230
         C            0.523240175000    -0.221235771521    -0.040575102472    12.000000000000
         O           -0.053469825000     0.854064228479     0.116014897528    15.994914619570
         N            1.873880175000    -0.318735771521    -0.105185102472    14.003074004430
         H            2.274830175000    -1.229265771521    -0.234705102472     1.007825032230
         C            2.742120175000     0.833234228479     0.004254897528    12.000000000000
         H            2.105620175000     1.701534228479     0.139044897528     1.007825032230
         H            3.407710175000     0.741784228479     0.860344897528     1.007825032230
         H            3.336580175000     0.962654228479    -0.898005102472     1.007825032230

  Charge       = 0
  Multiplicity = 1
  Basis Set: AUG-CC-PVQZ
    Blend: AUG-CC-PVQZ
  Basis Set: (AUG-CC-PVQZ AUX)
    Blend: AUG-CC-PVQZ-JKFIT

    Orbital Energies [Eh]
    ---------------------

    Doubly Occupied:

       1A    -20.549143     2A    -20.512881     3A    -15.589910
       4A    -11.351625     5A    -11.258813     6A    -11.236472
       7A     -1.376127     8A     -1.333335     9A     -1.235068
      10A     -1.023109    11A     -0.937010    12A     -0.794669
      13A     -0.696380    14A     -0.694877    15A     -0.657584
      16A     -0.637503    17A     -0.590210    18A     -0.584351
      19A     -0.569397    20A     -0.560004    21A     -0.548747
      22A     -0.507970    23A     -0.494021    24A     -0.426744
      25A     -0.396842

  @DF-RHF Final Energy:  -323.18790777317525

   => Energetics <=

    Nuclear Repulsion Energy =            233.2257692576387171
    One-Electron Energy =                -903.7017722332003586
    Two-Electron Energy =                 347.2880952023863870
    Total Energy =                       -323.1879077731752545

  Dipole Moment: [D]
     X:     3.5242      Y:    -1.4270      Z:    -0.3268     Total:     3.8162

  Basis Set: (AUG-CC-PVQZ AUX)
    Blend: AUG-CC-PVQZ-RI
	 Reference Energy          =    -323.1879077731752545 [Eh]
	 Singles Energy            =      -0.0000000000000000 [Eh]
	 Same-Spin Energy          =      -0.3345750986213656 [Eh]
	 Opposite-Spin Energy      =      -1.1549625960123633 [Eh]
	 Correlation Energy        =      -1.4895376946337289 [Eh]
	 Total Energy              =    -324.6774454678089796 [Eh]

	 ================> DF-SCS-MP2 Energies <==================
	-----------------------------------------------------------
	 SCS Same-Spin Scale       =       0.3333333333333333 [-]
	 SCS Opposite-Spin Scale   =       1.2000000000000000 [-]
	 SCS Same-Spin Energy      =      -0.1115250328737885 [Eh]
	 SCS Opposite-Spin Energy  =      -1.3859551152148359 [Eh]
	 SCS Correlation Energy    =      -1.4974801480886244 [Eh]
	 SCS Total Energy          =    -324.6853879212638958 [Eh]
	-----------------------------------------------------------

*** Psi4 exiting successfully. Buy a developer a beer!
