                               Psi4 1.4a2.dev224

  ==> Input File <==

--------------------------------------------------------------------------
#Generated by lconvert.py for cbs job

memory 40 GB

molecule  {
0 1
  O       -0.3920180    -0.3847190     0.0760710
  H       -0.9114610     0.4138120     0.1776490
  H        0.5249040    -0.0684850     0.0905110
--
0 1
  C        1.8620070    -2.2810240    -0.2245740
  H        2.5119700    -3.1421360    -0.3574890
  H        1.1810310    -2.2035520    -1.0684390
  H        1.2489900    -2.4198200     0.6624340
  C        2.6167390    -0.9830110    -0.0919810
  O        2.0400230     0.0922840     0.0646080
  N        3.9673720    -1.0805140    -0.1565980
  H        4.3683240    -1.9910480    -0.2861140
  C        4.8356140     0.0714560    -0.0471550
  H        4.1991200     0.9397570     0.0876290
  H        5.5012040    -0.0199990     0.8089370
  H        5.4300800     0.2008770    -0.9494150
units angstrom
no_reorient
symmetry c1
}

set {
scf_type DF
mp2_type DF
e_convergence 7
reference rhf
}

energy('mp2/aug-cc-pv[tq]z', bsse_type='cp')
--------------------------------------------------------------------------

    Molecular point group: c1
  Charge       = 0
  Multiplicity = 1
  Basis Set: AUG-CC-PVTZ
    Blend: AUG-CC-PVTZ
  Basis Set: (AUG-CC-PVTZ AUX)
    Blend: AUG-CC-PVTZ-JKFIT
  @DF-RHF Final Energy:  -247.10244923402479
    Total Energy =                       -247.1024492340247889
  Basis Set: (AUG-CC-PVTZ AUX)
    Blend: AUG-CC-PVTZ-RI
	 Reference Energy          =    -247.1024492340247889 [Eh]
	 Singles Energy            =      -0.0000000000000000 [Eh]
	 Same-Spin Energy          =      -0.2465416191027922 [Eh]
	 Opposite-Spin Energy      =      -0.8098921952386114 [Eh]
	 Correlation Energy        =      -1.0564338143414036 [Eh]
	 Total Energy              =    -248.1588830483661923 [Eh]
	 SCS Total Energy          =    -248.1565004080120502 [Eh]
    Molecular point group: c1
  Basis Set: AUG-CC-PVQZ
    Blend: AUG-CC-PVQZ
  Basis Set: (AUG-CC-PVQZ AUX)
    Blend: AUG-CC-PVQZ-JKFIT
  @DF-RHF Final Energy:  -247.11788414407809
    Total Energy =                       -247.1178841440780616
  Basis Set: (AUG-CC-PVQZ AUX)
  @DF-RHF Final Energy:  -247.10259098333944
    Total Energy =                       -247.1025909833394394
  @DF-RHF Final Energy:  -247.11792243058017
    Total Energy =                       -247.1179224305801654
  @DF-RHF Final Energy:   -76.06009049155504
    Total Energy =                        -76.0600904915550302
  @DF-RHF Final Energy:   -76.06536040136722
    Total Energy =                        -76.0653604013672293
  @DF-RHF Final Energy:   -76.05995803481410
    Total Energy =                        -76.0599580348141018
  @DF-RHF Final Energy:   -76.06531808332355
    Total Energy =                        -76.0653180833235467
  Multiplicity = 1
  @DF-RHF Final Energy:  -323.16389454003001
    Total Energy =                       -323.1638945400300145
	 Singles Energy            =      -0.0000000000000000 [Eh]
	 Same-Spin Energy          =      -0.3191962974415903 [Eh]
	 Opposite-Spin Energy      =      -1.0298953103353075 [Eh]
	 Correlation Energy        =      -1.3490916077768977 [Eh]
	 Total Energy              =    -324.5129861478068847 [Eh]
	 SCS Total Energy          =    -324.5061676782462428 [Eh]
    Molecular point group: c1

    Geometry (in Angstrom), charge = 0, multiplicity = 1:

       Center              X                  Y                   Z               Mass
    ------------   -----------------  -----------------  -----------------  -----------------
         O           -2.785185623992     0.345260977640     0.132603638033    15.994914619570
         H           -3.304628623992     1.143791977640     0.234181638033     1.007825032230
         H           -1.868263623992     0.661494977640     0.147043638033     1.007825032230
         C           -0.531160623992    -1.551044022360    -0.168041361967    12.000000000000
         H            0.118802376008    -2.412156022360    -0.300956361967     1.007825032230
         H           -1.212136623992    -1.473572022360    -1.011906361967     1.007825032230
         H           -1.144177623992    -1.689840022360     0.718966638033     1.007825032230
         C            0.223571376008    -0.253031022360    -0.035448361967    12.000000000000
         O           -0.353144623992     0.822263977640     0.121140638033    15.994914619570
         N            1.574204376008    -0.350534022360    -0.100065361967    14.003074004430
         H            1.975156376008    -1.261068022360    -0.229581361967     1.007825032230
         C            2.442446376008     0.801435977640     0.009377638033    12.000000000000
         H            1.805952376008     1.669736977640     0.144161638033     1.007825032230
         H            3.108036376008     0.709980977640     0.865469638033     1.007825032230
         H            3.036912376008     0.930856977640    -0.892882361967     1.007825032230

  Charge       = 0
  Multiplicity = 1
  Basis Set: AUG-CC-PVQZ
    Blend: AUG-CC-PVQZ
  Basis Set: (AUG-CC-PVQZ AUX)
    Blend: AUG-CC-PVQZ-JKFIT

    Orbital Energies [Eh]
    ---------------------

    Doubly Occupied:

       1A    -20.528657     2A    -20.495736     3A    -15.600248
       4A    -11.365809     5A    -11.265787     6A    -11.234364
       7A     -1.400782     8A     -1.292513     9A     -1.246636
      10A     -1.027188    11A     -0.942410    12A     -0.811942
      13A     -0.703467    14A     -0.686246    15A     -0.667203
      16A     -0.645793    17A     -0.593807    18A     -0.589055
      19A     -0.565335    20A     -0.555224    21A     -0.523583
      22A     -0.519342    23A     -0.451914    24A     -0.438220
      25A     -0.410051

  @DF-RHF Final Energy:  -323.18453987573031

   => Energetics <=

    Nuclear Repulsion Energy =            252.4138952835724581
    One-Electron Energy =                -942.0742536792250803
    Two-Electron Energy =                 366.4758185199222567
    Total Energy =                       -323.1845398757303087

  Dipole Moment: [D]
     X:     4.4309      Y:    -1.5848      Z:    -0.3747     Total:     4.7207

  Basis Set: (AUG-CC-PVQZ AUX)
    Blend: AUG-CC-PVQZ-RI
	 Reference Energy          =    -323.1845398757303087 [Eh]
	 Singles Energy            =      -0.0000000000000000 [Eh]
	 Same-Spin Energy          =      -0.3384510414918995 [Eh]
	 Opposite-Spin Energy      =      -1.1581274209588970 [Eh]
	 Correlation Energy        =      -1.4965784624507965 [Eh]
	 Total Energy              =    -324.6811183381810793 [Eh]

	 ================> DF-SCS-MP2 Energies <==================
	-----------------------------------------------------------
	 SCS Same-Spin Scale       =       0.3333333333333333 [-]
	 SCS Opposite-Spin Scale   =       1.2000000000000000 [-]
	 SCS Same-Spin Energy      =      -0.1128170138306332 [Eh]
	 SCS Opposite-Spin Energy  =      -1.3897529051506763 [Eh]
	 SCS Correlation Energy    =      -1.5025699189813095 [Eh]
	 SCS Total Energy          =    -324.6871097947116027 [Eh]
	-----------------------------------------------------------

*** Psi4 exiting successfully. Buy a developer a beer!
