                               Psi4 1.4a2.dev224

  ==> Input File <==

--------------------------------------------------------------------------
#Generated by lconvert.py for cbs job

memory 40 GB

molecule  {
0 1
  O       -0.3920180    -0.3847190     0.0760710
  H       -0.9114610     0.4138120     0.1776490
  H        0.5249040    -0.0684850     0.0905110
--
0 1
  C        2.0514960    -2.2609180    -0.2278140
  H        2.7014590    -3.1220300    -0.3607290
  H        1.3705200    -2.1834460    -1.0716790
  H        1.4384790    -2.3997140     0.6591950
  C        2.8062280    -0.9629050    -0.0952200
  O        2.2295130     0.1123900     0.0613690
  N        4.1568610    -1.0604070    -0.1598380
  H        4.5578130    -1.9709410    -0.2893530
  C        5.0251030     0.0915630    -0.0503950
  H        4.3886090     0.9598630     0.0843900
  H        5.6906930     0.0001080     0.8056980
  H        5.6195690     0.2209840    -0.9526540
units angstrom
no_reorient
symmetry c1
}

set {
scf_type DF
mp2_type DF
e_convergence 7
reference rhf
}

energy('mp2/aug-cc-pv[tq]z', bsse_type='cp')
--------------------------------------------------------------------------

    Molecular point group: c1
  Charge       = 0
  Multiplicity = 1
  Basis Set: AUG-CC-PVTZ
    Blend: AUG-CC-PVTZ
  Basis Set: (AUG-CC-PVTZ AUX)
    Blend: AUG-CC-PVTZ-JKFIT
  @DF-RHF Final Energy:  -247.10244928384753
    Total Energy =                       -247.1024492838475339
  Basis Set: (AUG-CC-PVTZ AUX)
    Blend: AUG-CC-PVTZ-RI
	 Reference Energy          =    -247.1024492838475339 [Eh]
	 Singles Energy            =      -0.0000000000000000 [Eh]
	 Same-Spin Energy          =      -0.2465416056593780 [Eh]
	 Opposite-Spin Energy      =      -0.8098921640450578 [Eh]
	 Correlation Energy        =      -1.0564337697044359 [Eh]
	 Total Energy              =    -248.1588830535519605 [Eh]
	 SCS Total Energy          =    -248.1565004159213856 [Eh]
    Molecular point group: c1
  Basis Set: AUG-CC-PVQZ
    Blend: AUG-CC-PVQZ
  Basis Set: (AUG-CC-PVQZ AUX)
    Blend: AUG-CC-PVQZ-JKFIT
  @DF-RHF Final Energy:  -247.11788419735404
    Total Energy =                       -247.1178841973540443
  Basis Set: (AUG-CC-PVQZ AUX)
  @DF-RHF Final Energy:  -247.10255499646880
    Total Energy =                       -247.1025549964688253
  @DF-RHF Final Energy:  -247.11791664667678
    Total Energy =                       -247.1179166466767470
  @DF-RHF Final Energy:   -76.06006256689982
    Total Energy =                        -76.0600625668998163
  @DF-RHF Final Energy:   -76.06535479278185
    Total Energy =                        -76.0653547927818465
  @DF-RHF Final Energy:   -76.05995803481950
    Total Energy =                        -76.0599580348195019
  @DF-RHF Final Energy:   -76.06531808331546
    Total Energy =                        -76.0653180833154465
  Multiplicity = 1
  @DF-RHF Final Energy:  -323.17009412292043
    Total Energy =                       -323.1700941229204318
	 Singles Energy            =      -0.0000000000000000 [Eh]
	 Same-Spin Energy          =      -0.3181052596229902 [Eh]
	 Opposite-Spin Energy      =      -1.0289068752219546 [Eh]
	 Correlation Energy        =      -1.3470121348449449 [Eh]
	 Total Energy              =    -324.5171062577653629 [Eh]
	 SCS Total Energy          =    -324.5108174597277753 [Eh]
    Molecular point group: c1

    Geometry (in Angstrom), charge = 0, multiplicity = 1:

       Center              X                  Y                   Z               Mass
    ------------   -----------------  -----------------  -----------------  -----------------
         O           -2.937197541269     0.329131236721     0.135202465955    15.994914619570
         H           -3.456640541269     1.127662236721     0.236780465955     1.007825032230
         H           -2.020275541269     0.645365236721     0.149642465955     1.007825032230
         C           -0.493683541269    -1.547067763279    -0.168682534045    12.000000000000
         H            0.156279458731    -2.408179763279    -0.301597534045     1.007825032230
         H           -1.174659541269    -1.469595763279    -1.012547534045     1.007825032230
         H           -1.106700541269    -1.685863763279     0.718326465955     1.007825032230
         C            0.261048458731    -0.249054763279    -0.036088534045    12.000000000000
         O           -0.315666541269     0.826240236721     0.120500465955    15.994914619570
         N            1.611681458731    -0.346556763279    -0.100706534045    14.003074004430
         H            2.012633458731    -1.257090763279    -0.230221534045     1.007825032230
         C            2.479923458731     0.805413236721     0.008736465955    12.000000000000
         H            1.843429458731     1.673713236721     0.143521465955     1.007825032230
         H            3.145513458731     0.713958236721     0.864829465955     1.007825032230
         H            3.074389458731     0.934834236721    -0.893522534045     1.007825032230

  Charge       = 0
  Multiplicity = 1
  Basis Set: AUG-CC-PVQZ
    Blend: AUG-CC-PVQZ
  Basis Set: (AUG-CC-PVQZ AUX)
    Blend: AUG-CC-PVQZ-JKFIT

    Orbital Energies [Eh]
    ---------------------

    Doubly Occupied:

       1A    -20.525236     2A    -20.511174     3A    -15.597374
       4A    -11.361941     5A    -11.263909     6A    -11.234496
       7A     -1.392764     8A     -1.302556     9A     -1.243726
      10A     -1.025830    11A     -0.940878    12A     -0.805898
      13A     -0.700762    14A     -0.680170    15A     -0.666497
      16A     -0.643354    17A     -0.592471    18A     -0.591462
      19A     -0.564348    20A     -0.553674    21A     -0.534588
      22A     -0.516073    23A     -0.462759    24A     -0.438073
      25A     -0.406993

  @DF-RHF Final Energy:  -323.19079585702980

   => Energetics <=

    Nuclear Repulsion Energy =            249.1527836564679603
    One-Electron Energy =                -935.5731572917310359
    Two-Electron Energy =                 363.2295777782333062
    Total Energy =                       -323.1907958570297978

  Dipole Moment: [D]
     X:     4.1652      Y:    -1.5515      Z:    -0.3624     Total:     4.4595

  Basis Set: (AUG-CC-PVQZ AUX)
    Blend: AUG-CC-PVQZ-RI
	 Reference Energy          =    -323.1907958570297978 [Eh]
	 Singles Energy            =      -0.0000000000000000 [Eh]
	 Same-Spin Energy          =      -0.3373245291462933 [Eh]
	 Opposite-Spin Energy      =      -1.1572345953614214 [Eh]
	 Correlation Energy        =      -1.4945591245077146 [Eh]
	 Total Energy              =    -324.6853549815375004 [Eh]

	 ================> DF-SCS-MP2 Energies <==================
	-----------------------------------------------------------
	 SCS Same-Spin Scale       =       0.3333333333333333 [-]
	 SCS Opposite-Spin Scale   =       1.2000000000000000 [-]
	 SCS Same-Spin Energy      =      -0.1124415097154311 [Eh]
	 SCS Opposite-Spin Energy  =      -1.3886815144337057 [Eh]
	 SCS Correlation Energy    =      -1.5011230241491367 [Eh]
	 SCS Total Energy          =    -324.6919188811789354 [Eh]
	-----------------------------------------------------------

*** Psi4 exiting successfully. Buy a developer a beer!
