                               Psi4 1.4a2.dev224

  ==> Input File <==

--------------------------------------------------------------------------
#Generated by lconvert.py for cbs job

memory 40 GB

molecule  {
0 1
  O       -0.3920180    -0.3847190     0.0760710
  H       -0.9114610     0.4138120     0.1776490
  H        0.5249040    -0.0684850     0.0905110
--
0 1
  C        2.3355810    -2.2307740    -0.2326700
  H        2.9855440    -3.0918850    -0.3655860
  H        1.6546050    -2.1533020    -1.0765360
  H        1.7225640    -2.3695700     0.6543380
  C        3.0903130    -0.9327610    -0.1000770
  O        2.5135980     0.1425340     0.0565120
  N        4.4409460    -1.0302630    -0.1646950
  H        4.8418980    -1.9407970    -0.2942100
  C        5.3091880     0.1217070    -0.0552520
  H        4.6726940     0.9900080     0.0795330
  H        5.9747780     0.0302520     0.8008410
  H        5.9036540     0.2511280    -0.9575110
units angstrom
no_reorient
symmetry c1
}

set {
scf_type DF
mp2_type DF
e_convergence 7
reference rhf
}

energy('mp2/aug-cc-pv[tq]z', bsse_type='cp')
--------------------------------------------------------------------------

    Molecular point group: c1
  Charge       = 0
  Multiplicity = 1
  Basis Set: AUG-CC-PVTZ
    Blend: AUG-CC-PVTZ
  Basis Set: (AUG-CC-PVTZ AUX)
    Blend: AUG-CC-PVTZ-JKFIT
  @DF-RHF Final Energy:  -247.10244928312591
    Total Energy =                       -247.1024492831259067
  Basis Set: (AUG-CC-PVTZ AUX)
    Blend: AUG-CC-PVTZ-RI
	 Reference Energy          =    -247.1024492831259067 [Eh]
	 Singles Energy            =      -0.0000000000000000 [Eh]
	 Same-Spin Energy          =      -0.2465416065086367 [Eh]
	 Opposite-Spin Energy      =      -0.8098921642677952 [Eh]
	 Correlation Energy        =      -1.0564337707764320 [Eh]
	 Total Energy              =    -248.1588830539023434 [Eh]
	 SCS Total Energy          =    -248.1565004157501448 [Eh]
    Molecular point group: c1
  Basis Set: AUG-CC-PVQZ
    Blend: AUG-CC-PVQZ
  Basis Set: (AUG-CC-PVQZ AUX)
    Blend: AUG-CC-PVQZ-JKFIT
  @DF-RHF Final Energy:  -247.11788419479655
    Total Energy =                       -247.1178841947965452
  Basis Set: (AUG-CC-PVQZ AUX)
  @DF-RHF Final Energy:  -247.10251726451139
    Total Energy =                       -247.1025172645113912
  @DF-RHF Final Energy:  -247.11790916178091
    Total Energy =                       -247.1179091617809149
  @DF-RHF Final Energy:   -76.06002811431973
    Total Energy =                        -76.0600281143197350
  @DF-RHF Final Energy:   -76.06534789642967
    Total Energy =                        -76.0653478964296568
  @DF-RHF Final Energy:   -76.05995803481572
    Total Energy =                        -76.0599580348157218
  @DF-RHF Final Energy:   -76.06531808332409
    Total Energy =                        -76.0653180833241009
  Multiplicity = 1
  @DF-RHF Final Energy:  -323.17205297456724
    Total Energy =                       -323.1720529745672366
	 Singles Energy            =      -0.0000000000000000 [Eh]
	 Same-Spin Energy          =      -0.3169560387035987 [Eh]
	 Opposite-Spin Energy      =      -1.0278305970977124 [Eh]
	 Correlation Energy        =      -1.3447866358013112 [Eh]
	 Total Energy              =    -324.5168396103685495 [Eh]
	 SCS Total Energy          =    -324.5111017039856733 [Eh]
    Molecular point group: c1

    Geometry (in Angstrom), charge = 0, multiplicity = 1:

       Center              X                  Y                   Z               Mass
    ------------   -----------------  -----------------  -----------------  -----------------
         O           -3.165096024142     0.304949114624     0.139098713541    15.994914619570
         H           -3.684539024142     1.103480114624     0.240676713541     1.007825032230
         H           -2.248174024142     0.621183114624     0.153538713541     1.007825032230
         C           -0.437497024142    -1.541105885376    -0.169642286459    12.000000000000
         H            0.212465975858    -2.402216885376    -0.302558286459     1.007825032230
         H           -1.118473024142    -1.463633885376    -1.013508286459     1.007825032230
         H           -1.050514024142    -1.679901885376     0.717365713541     1.007825032230
         C            0.317234975858    -0.243092885376    -0.037049286459    12.000000000000
         O           -0.259480024142     0.832202114624     0.119539713541    15.994914619570
         N            1.667867975858    -0.340594885376    -0.101667286459    14.003074004430
         H            2.068819975858    -1.251128885376    -0.231182286459     1.007825032230
         C            2.536109975858     0.811375114624     0.007775713541    12.000000000000
         H            1.899615975858     1.679676114624     0.142560713541     1.007825032230
         H            3.201699975858     0.719920114624     0.863868713541     1.007825032230
         H            3.130575975858     0.940796114624    -0.894483286459     1.007825032230

  Charge       = 0
  Multiplicity = 1
  Basis Set: AUG-CC-PVQZ
    Blend: AUG-CC-PVQZ
  Basis Set: (AUG-CC-PVQZ AUX)
    Blend: AUG-CC-PVQZ-JKFIT

    Orbital Energies [Eh]
    ---------------------

    Doubly Occupied:

       1A    -20.526569     2A    -20.521146     3A    -15.594479
       4A    -11.357965     5A    -11.261978     6A    -11.235004
       7A     -1.385679     8A     -1.313941     9A     -1.240396
      10A     -1.024654    11A     -0.939367    12A     -0.800800
      13A     -0.698287    14A     -0.681467    15A     -0.663671
      16A     -0.641002    17A     -0.591388    18A     -0.590694
      19A     -0.563306    20A     -0.551968    21A     -0.547143
      22A     -0.512870    23A     -0.474668    24A     -0.435127
      25A     -0.403286

  @DF-RHF Final Energy:  -323.19281059943205

   => Energetics <=

    Nuclear Repulsion Energy =            244.8542732945684008
    One-Electron Energy =                -926.9804660253093971
    Two-Electron Energy =                 358.9333821313089175
    Total Energy =                       -323.1928105994320504

  Dipole Moment: [D]
     X:     3.9009      Y:    -1.5139      Z:    -0.3496     Total:     4.1989

  Basis Set: (AUG-CC-PVQZ AUX)
    Blend: AUG-CC-PVQZ-RI
	 Reference Energy          =    -323.1928105994320504 [Eh]
	 Singles Energy            =      -0.0000000000000000 [Eh]
	 Same-Spin Energy          =      -0.3361562682632264 [Eh]
	 Opposite-Spin Energy      =      -1.1563168122102416 [Eh]
	 Correlation Energy        =      -1.4924730804734681 [Eh]
	 Total Energy              =    -324.6852836799055240 [Eh]

	 ================> DF-SCS-MP2 Energies <==================
	-----------------------------------------------------------
	 SCS Same-Spin Scale       =       0.3333333333333333 [-]
	 SCS Opposite-Spin Scale   =       1.2000000000000000 [-]
	 SCS Same-Spin Energy      =      -0.1120520894210755 [Eh]
	 SCS Opposite-Spin Energy  =      -1.3875801746522900 [Eh]
	 SCS Correlation Energy    =      -1.4996322640733655 [Eh]
	 SCS Total Energy          =    -324.6924428635053914 [Eh]
	-----------------------------------------------------------

*** Psi4 exiting successfully. Buy a developer a beer!
