                               Psi4 1.4a2.dev224

  ==> Input File <==

--------------------------------------------------------------------------
#Generated by lconvert.py for cbs job

memory 40 GB

molecule  {
0 1
  O       -0.3920180    -0.3847190     0.0760710
  H       -0.9114610     0.4138120     0.1776490
  H        0.5249040    -0.0684850     0.0905110
--
0 1
  C        2.1461910    -2.2508700    -0.2294330
  H        2.7961540    -3.1119810    -0.3623480
  H        1.4652150    -2.1733980    -1.0732980
  H        1.5331740    -2.3896660     0.6575760
  C        2.9009230    -0.9528570    -0.0968390
  O        2.3242080     0.1224380     0.0597500
  N        4.2515560    -1.0503590    -0.1614570
  H        4.6525080    -1.9608930    -0.2909720
  C        5.1197980     0.1016110    -0.0520140
  H        4.4833040     0.9699110     0.0827710
  H        5.7853880     0.0101560     0.8040790
  H        5.7142640     0.2310320    -0.9542730
units angstrom
no_reorient
symmetry c1
}

set {
scf_type DF
mp2_type DF
e_convergence 7
reference rhf
}

energy('mp2/aug-cc-pv[tq]z', bsse_type='cp')
--------------------------------------------------------------------------

    Molecular point group: c1
  Charge       = 0
  Multiplicity = 1
  Basis Set: AUG-CC-PVTZ
    Blend: AUG-CC-PVTZ
  Basis Set: (AUG-CC-PVTZ AUX)
    Blend: AUG-CC-PVTZ-JKFIT
  @DF-RHF Final Energy:  -247.10244928985881
    Total Energy =                       -247.1024492898588392
  Basis Set: (AUG-CC-PVTZ AUX)
    Blend: AUG-CC-PVTZ-RI
	 Reference Energy          =    -247.1024492898588107 [Eh]
	 Singles Energy            =      -0.0000000000000000 [Eh]
	 Same-Spin Energy          =      -0.2465416055855073 [Eh]
	 Opposite-Spin Energy      =      -0.8098921589299728 [Eh]
	 Correlation Energy        =      -1.0564337645154802 [Eh]
	 Total Energy              =    -248.1588830543742858 [Eh]
	 SCS Total Energy          =    -248.1565004157699548 [Eh]
    Molecular point group: c1
  Basis Set: AUG-CC-PVQZ
    Blend: AUG-CC-PVQZ
  Basis Set: (AUG-CC-PVQZ AUX)
    Blend: AUG-CC-PVQZ-JKFIT
  @DF-RHF Final Energy:  -247.11788420300857
    Total Energy =                       -247.1178842030086003
  Basis Set: (AUG-CC-PVQZ AUX)
  @DF-RHF Final Energy:  -247.10254015131522
    Total Energy =                       -247.1025401513152246
  @DF-RHF Final Energy:  -247.11791356051910
    Total Energy =                       -247.1179135605191277
  @DF-RHF Final Energy:   -76.06004952434257
    Total Energy =                        -76.0600495243425740
  @DF-RHF Final Energy:   -76.06535234854786
    Total Energy =                        -76.0653523485478615
  @DF-RHF Final Energy:   -76.05995803481895
    Total Energy =                        -76.0599580348189477
  @DF-RHF Final Energy:   -76.06531808330956
    Total Energy =                        -76.0653180833095490
  Multiplicity = 1
  @DF-RHF Final Energy:  -323.17136798913833
    Total Energy =                       -323.1713679891383322
	 Singles Energy            =      -0.0000000000000000 [Eh]
	 Same-Spin Energy          =      -0.3176639020334150 [Eh]
	 Opposite-Spin Energy      =      -1.0284988193000471 [Eh]
	 Correlation Energy        =      -1.3461627213334622 [Eh]
	 Total Energy              =    -324.5175307104718172 [Eh]
	 SCS Total Energy          =    -324.5114545396428412 [Eh]
    Molecular point group: c1

    Geometry (in Angstrom), charge = 0, multiplicity = 1:

       Center              X                  Y                   Z               Mass
    ------------   -----------------  -----------------  -----------------  -----------------
         O           -3.013163702227     0.321070525666     0.136501259076    15.994914619570
         H           -3.532606702227     1.119601525666     0.238079259076     1.007825032230
         H           -2.096241702227     0.637304525666     0.150941259076     1.007825032230
         C           -0.474954702227    -1.545080474334    -0.169002740924    12.000000000000
         H            0.175008297773    -2.406191474334    -0.301917740924     1.007825032230
         H           -1.155930702227    -1.467608474334    -1.012867740924     1.007825032230
         H           -1.087971702227    -1.683876474334     0.718006259076     1.007825032230
         C            0.279777297773    -0.247067474334    -0.036408740924    12.000000000000
         O           -0.296937702227     0.828227525666     0.120180259076    15.994914619570
         N            1.630410297773    -0.344569474334    -0.101026740924    14.003074004430
         H            2.031362297773    -1.255103474334    -0.230541740924     1.007825032230
         C            2.498652297773     0.807400525666     0.008416259076    12.000000000000
         H            1.862158297773     1.675700525666     0.143201259076     1.007825032230
         H            3.164242297773     0.715945525666     0.864509259076     1.007825032230
         H            3.093118297773     0.936821525666    -0.893842740924     1.007825032230

  Charge       = 0
  Multiplicity = 1
  Basis Set: AUG-CC-PVQZ
    Blend: AUG-CC-PVQZ
  Basis Set: (AUG-CC-PVQZ AUX)
    Blend: AUG-CC-PVQZ-JKFIT

    Orbital Energies [Eh]
    ---------------------

    Doubly Occupied:

       1A    -20.523747     2A    -20.517162     3A    -15.596255
       4A    -11.360413     5A    -11.263167     6A    -11.234640
       7A     -1.389916     8A     -1.306827     9A     -1.242463
      10A     -1.025350    11A     -0.940288    12A     -0.803811
      13A     -0.699771    14A     -0.679645    15A     -0.665724
      16A     -0.642431    17A     -0.592018    18A     -0.591578
      19A     -0.563937    20A     -0.553030    21A     -0.539317
      22A     -0.514822    23A     -0.467272    24A     -0.437239
      25A     -0.405615

  @DF-RHF Final Energy:  -323.19209653819132

   => Energetics <=

    Nuclear Repulsion Energy =            247.6479519374106815
    One-Electron Energy =                -932.5672234389475079
    Two-Electron Energy =                 361.7271749633455329
    Total Energy =                       -323.1920965381913220

  Dipole Moment: [D]
     X:     4.0621      Y:    -1.5377      Z:    -0.3576     Total:     4.3581

  Basis Set: (AUG-CC-PVQZ AUX)
    Blend: AUG-CC-PVQZ-RI
	 Reference Energy          =    -323.1920965381913220 [Eh]
	 Singles Energy            =      -0.0000000000000000 [Eh]
	 Same-Spin Energy          =      -0.3368733296530727 [Eh]
	 Opposite-Spin Energy      =      -1.1568807498147859 [Eh]
	 Correlation Energy        =      -1.4937540794678585 [Eh]
	 Total Energy              =    -324.6858506176591845 [Eh]

	 ================> DF-SCS-MP2 Energies <==================
	-----------------------------------------------------------
	 SCS Same-Spin Scale       =       0.3333333333333333 [-]
	 SCS Opposite-Spin Scale   =       1.2000000000000000 [-]
	 SCS Same-Spin Energy      =      -0.1122911098843576 [Eh]
	 SCS Opposite-Spin Energy  =      -1.3882568997777431 [Eh]
	 SCS Correlation Energy    =      -1.5005480096621007 [Eh]
	 SCS Total Energy          =    -324.6926445478534333 [Eh]
	-----------------------------------------------------------

*** Psi4 exiting successfully. Buy a developer a beer!
