                               Psi4 1.4a2.dev224

  ==> Input File <==

--------------------------------------------------------------------------
#Generated by lconvert.py for cbs job

memory 40 GB

molecule  {
0 1
  O       -0.3920180    -0.3847190     0.0760710
  H       -0.9114610     0.4138120     0.1776490
  H        0.5249040    -0.0684850     0.0905110
--
0 1
  C        2.4302300    -2.2207300    -0.2342890
  H        3.0801930    -3.0818420    -0.3672040
  H        1.7492540    -2.1432580    -1.0781540
  H        1.8172130    -2.3595260     0.6527200
  C        3.1849620    -0.9227180    -0.1016950
  O        2.6082460     0.1525770     0.0548940
  N        4.5355950    -1.0202200    -0.1663130
  H        4.9365470    -1.9307540    -0.2958280
  C        5.4038370     0.1317500    -0.0568700
  H        4.7673430     1.0000510     0.0779150
  H        6.0694270     0.0402950     0.7992230
  H        5.9983030     0.2611710    -0.9591290
units angstrom
no_reorient
symmetry c1
}

set {
scf_type DF
mp2_type DF
e_convergence 7
reference rhf
}

energy('mp2/aug-cc-pv[tq]z', bsse_type='cp')
--------------------------------------------------------------------------

    Molecular point group: c1
  Charge       = 0
  Multiplicity = 1
  Basis Set: AUG-CC-PVTZ
    Blend: AUG-CC-PVTZ
  Basis Set: (AUG-CC-PVTZ AUX)
    Blend: AUG-CC-PVTZ-JKFIT
  @DF-RHF Final Energy:  -247.10244923940567
    Total Energy =                       -247.1024492394057006
  Basis Set: (AUG-CC-PVTZ AUX)
    Blend: AUG-CC-PVTZ-RI
	 Reference Energy          =    -247.1024492394056722 [Eh]
	 Singles Energy            =      -0.0000000000000000 [Eh]
	 Same-Spin Energy          =      -0.2465416191472988 [Eh]
	 Opposite-Spin Energy      =      -0.8098921911287269 [Eh]
	 Correlation Energy        =      -1.0564338102760258 [Eh]
	 Total Energy              =    -248.1588830496816911 [Eh]
	 SCS Total Energy          =    -248.1565004084759209 [Eh]
    Molecular point group: c1
  Basis Set: AUG-CC-PVQZ
    Blend: AUG-CC-PVQZ
  Basis Set: (AUG-CC-PVQZ AUX)
    Blend: AUG-CC-PVQZ-JKFIT
  @DF-RHF Final Energy:  -247.11788415097425
    Total Energy =                       -247.1178841509742483
  Basis Set: (AUG-CC-PVQZ AUX)
  @DF-RHF Final Energy:  -247.10251030000481
    Total Energy =                       -247.1025103000048375
  @DF-RHF Final Energy:  -247.11790791611608
    Total Energy =                       -247.1179079161160530
  @DF-RHF Final Energy:   -76.06002026261251
    Total Energy =                        -76.0600202626125110
  @DF-RHF Final Energy:   -76.06534569836413
    Total Energy =                        -76.0653456983641263
  @DF-RHF Final Energy:   -76.05995803481088
    Total Energy =                        -76.0599580348108759
  @DF-RHF Final Energy:   -76.06531808331289
    Total Energy =                        -76.0653180833128886
  Multiplicity = 1
  @DF-RHF Final Energy:  -323.17187216100712
    Total Energy =                       -323.1718721610071157
	 Singles Energy            =      -0.0000000000000000 [Eh]
	 Same-Spin Energy          =      -0.3166767018063578 [Eh]
	 Opposite-Spin Energy      =      -1.0275573515900660 [Eh]
	 Correlation Energy        =      -1.3442340533964239 [Eh]
	 Total Energy              =    -324.5161062144035213 [Eh]
	 SCS Total Energy          =    -324.5104998835172978 [Eh]
    Molecular point group: c1

    Geometry (in Angstrom), charge = 0, multiplicity = 1:

       Center              X                  Y                   Z               Mass
    ------------   -----------------  -----------------  -----------------  -----------------
         O           -3.241025107364     0.296892271823     0.140396836219    15.994914619570
         H           -3.760468107364     1.095423271823     0.241974836219     1.007825032230
         H           -2.324103107364     0.613126271823     0.154836836219     1.007825032230
         C           -0.418777107364    -1.539118728177    -0.169963163781    12.000000000000
         H            0.231185892636    -2.400230728177    -0.302878163781     1.007825032230
         H           -1.099753107364    -1.461646728177    -1.013828163781     1.007825032230
         H           -1.031794107364    -1.677914728177     0.717045836219     1.007825032230
         C            0.335954892636    -0.241106728177    -0.037369163781    12.000000000000
         O           -0.240761107364     0.834188271823     0.119219836219    15.994914619570
         N            1.686587892636    -0.338608728177    -0.101987163781    14.003074004430
         H            2.087539892636    -1.249142728177    -0.231502163781     1.007825032230
         C            2.554829892636     0.813361271823     0.007455836219    12.000000000000
         H            1.918335892636     1.681662271823     0.142240836219     1.007825032230
         H            3.220419892636     0.721906271823     0.863548836219     1.007825032230
         H            3.149295892636     0.942782271823    -0.894803163781     1.007825032230

  Charge       = 0
  Multiplicity = 1
  Basis Set: AUG-CC-PVQZ
    Blend: AUG-CC-PVQZ
  Basis Set: (AUG-CC-PVQZ AUX)
    Blend: AUG-CC-PVQZ-JKFIT

    Orbital Energies [Eh]
    ---------------------

    Doubly Occupied:

       1A    -20.530267     2A    -20.520011     3A    -15.593770
       4A    -11.356980     5A    -11.261498     6A    -11.235198
       7A     -1.384076     8A     -1.316881     9A     -1.239561
      10A     -1.024400    11A     -0.939004    12A     -0.799701
      13A     -0.697728    14A     -0.682984    15A     -0.662701
      16A     -0.640445    17A     -0.591171    18A     -0.589999
      19A     -0.563103    20A     -0.551592    21A     -0.550237
      22A     -0.512101    23A     -0.477678    24A     -0.434044
      25A     -0.402317

  @DF-RHF Final Energy:  -323.19263175490300

   => Energetics <=

    Nuclear Repulsion Energy =            243.5551497928839240
    One-Electron Energy =                -924.3806732073667263
    Two-Electron Energy =                 357.6328916595798546
    Total Energy =                       -323.1926317549030045

  Dipole Moment: [D]
     X:     3.8378      Y:    -1.5034      Z:    -0.3463     Total:     4.1363

  Basis Set: (AUG-CC-PVQZ AUX)
    Blend: AUG-CC-PVQZ-RI
	 Reference Energy          =    -323.1926317549030045 [Eh]
	 Singles Energy            =      -0.0000000000000000 [Eh]
	 Same-Spin Energy          =      -0.3358746476621149 [Eh]
	 Opposite-Spin Energy      =      -1.1560908713081126 [Eh]
	 Correlation Energy        =      -1.4919655189702277 [Eh]
	 Total Energy              =    -324.6845972738732371 [Eh]

	 ================> DF-SCS-MP2 Energies <==================
	-----------------------------------------------------------
	 SCS Same-Spin Scale       =       0.3333333333333333 [-]
	 SCS Opposite-Spin Scale   =       1.2000000000000000 [-]
	 SCS Same-Spin Energy      =      -0.1119582158873716 [Eh]
	 SCS Opposite-Spin Energy  =      -1.3873090455697350 [Eh]
	 SCS Correlation Energy    =      -1.4992672614571068 [Eh]
	 SCS Total Energy          =    -324.6918990163601393 [Eh]
	-----------------------------------------------------------

*** Psi4 exiting successfully. Buy a developer a beer!
