                               Psi4 1.4a2.dev224

  ==> Input File <==

--------------------------------------------------------------------------
#Generated by lconvert.py for cbs job

memory 40 GB

molecule  {
0 1
  O       -0.3920180    -0.3847190     0.0760710
  H       -0.9114610     0.4138120     0.1776490
  H        0.5249040    -0.0684850     0.0905110
--
0 1
  C        1.6726170    -2.3011200    -0.2213360
  H        2.3225800    -3.1622320    -0.3542520
  H        0.9916410    -2.2236480    -1.0652010
  H        1.0596000    -2.4399160     0.6656720
  C        2.4273490    -1.0031070    -0.0887430
  O        1.8506330     0.0721880     0.0678460
  N        3.7779820    -1.1006100    -0.1533610
  H        4.1789340    -2.0111440    -0.2828760
  C        4.6462240     0.0513600    -0.0439170
  H        4.0097300     0.9196610     0.0908670
  H        5.3118140    -0.0400950     0.8121750
  H        5.2406900     0.1807810    -0.9461770
units angstrom
no_reorient
symmetry c1
}

set {
scf_type DF
mp2_type DF
e_convergence 7
reference rhf
}

energy('mp2/aug-cc-pv[tq]z', bsse_type='cp')
--------------------------------------------------------------------------

    Molecular point group: c1
  Charge       = 0
  Multiplicity = 1
  Basis Set: AUG-CC-PVTZ
    Blend: AUG-CC-PVTZ
  Basis Set: (AUG-CC-PVTZ AUX)
    Blend: AUG-CC-PVTZ-JKFIT
  @DF-RHF Final Energy:  -247.10244923486127
    Total Energy =                       -247.1024492348612966
  Basis Set: (AUG-CC-PVTZ AUX)
    Blend: AUG-CC-PVTZ-RI
	 Reference Energy          =    -247.1024492348612682 [Eh]
	 Singles Energy            =      -0.0000000000000000 [Eh]
	 Same-Spin Energy          =      -0.2465416182198932 [Eh]
	 Opposite-Spin Energy      =      -0.8098921954266065 [Eh]
	 Correlation Energy        =      -1.0564338136464997 [Eh]
	 Total Energy              =    -248.1588830485077608 [Eh]
	 SCS Total Energy          =    -248.1565004087798343 [Eh]
    Molecular point group: c1
  Basis Set: AUG-CC-PVQZ
    Blend: AUG-CC-PVQZ
  Basis Set: (AUG-CC-PVQZ AUX)
    Blend: AUG-CC-PVQZ-JKFIT
  @DF-RHF Final Energy:  -247.11788414449262
    Total Energy =                       -247.1178841444926206
  Basis Set: (AUG-CC-PVQZ AUX)
  @DF-RHF Final Energy:  -247.10263329455029
    Total Energy =                       -247.1026332945502872
  @DF-RHF Final Energy:  -247.11793012601092
    Total Energy =                       -247.1179301260109469
  @DF-RHF Final Energy:   -76.06012247142860
    Total Energy =                        -76.0601224714285991
  @DF-RHF Final Energy:   -76.06536747777437
    Total Energy =                        -76.0653674777743731
  @DF-RHF Final Energy:   -76.05995803481444
    Total Energy =                        -76.0599580348144571
  @DF-RHF Final Energy:   -76.06531808330953
    Total Energy =                        -76.0653180833095348
  @DF-RHF Final Energy:  -323.14836666913067
    Total Energy =                       -323.1483666691306667
  @DF-RHF Final Energy:  -323.16899035263799
    Total Energy =                       -323.1689903526379908
*** Psi4 exiting successfully. Buy a developer a beer!
                               Psi4 1.4a2.dev224
  @DF-RHF Final Energy:  -247.10244923402479
    Total Energy =                       -247.1024492340247889
  @DF-RHF Final Energy:  -247.11788414407809
    Total Energy =                       -247.1178841440780616
  @DF-RHF Final Energy:  -247.10259098333944
    Total Energy =                       -247.1025909833394394
  @DF-RHF Final Energy:  -247.11792243058017
    Total Energy =                       -247.1179224305801654
  @DF-RHF Final Energy:   -76.06009049155504
    Total Energy =                        -76.0600904915550302
  @DF-RHF Final Energy:   -76.06536040136722
    Total Energy =                        -76.0653604013672293
  @DF-RHF Final Energy:   -76.05995803481410
    Total Energy =                        -76.0599580348141018
  @DF-RHF Final Energy:   -76.06531808332355
    Total Energy =                        -76.0653180833235467
  @DF-RHF Final Energy:  -323.16389454003001
    Total Energy =                       -323.1638945400300145
  @DF-RHF Final Energy:  -323.18453987573031
    Total Energy =                       -323.1845398757303087
*** Psi4 exiting successfully. Buy a developer a beer!
                               Psi4 1.4a2.dev224
                               Psi4 1.4a2.dev224
                               Psi4 1.4a2.dev224
                               Psi4 1.4a2.dev224
                               Psi4 1.4a2.dev224
                               Psi4 1.4a2.dev224
                               Psi4 1.4a2.dev224
  @DF-RHF Final Energy:  -247.10244899366000
    Total Energy =                       -247.1024489936600048
  @DF-RHF Final Energy:  -247.11788389434804
    Total Energy =                       -247.1178838943480400
  @DF-RHF Final Energy:  -247.10247317071901
    Total Energy =                       -247.1024731707190085
  @DF-RHF Final Energy:  -247.11789377375686
    Total Energy =                       -247.1178937737568617
  @DF-RHF Final Energy:   -76.05998203449606
    Total Energy =                        -76.0599820344960449
  @DF-RHF Final Energy:   -76.06532914764185
    Total Energy =                        -76.0653291476418474
  @DF-RHF Final Energy:   -76.05995829415431
    Total Energy =                        -76.0599582941543133
  @DF-RHF Final Energy:   -76.06531835617399
    Total Energy =                        -76.0653183561739894
  @DF-RHF Final Energy:  -323.16714907070923
    Total Energy =                       -323.1671490707092289
  @DF-RHF Final Energy:  -323.18790777317525
    Total Energy =                       -323.1879077731752545
*** Psi4 exiting successfully. Buy a developer a beer!
                               Psi4 1.4a2.dev224
  @DF-RHF Final Energy:  -247.10244961404584
    Total Energy =                       -247.1024496140458382
  @DF-RHF Final Energy:  -247.11788454527451
    Total Energy =                       -247.1178845452745350
  @DF-RHF Final Energy:  -247.10246328744921
    Total Energy =                       -247.1024632874492113
  @DF-RHF Final Energy:  -247.11789013656485
    Total Energy =                       -247.1178901365648244
  @DF-RHF Final Energy:   -76.05997389900969
    Total Energy =                        -76.0599738990097052
  @DF-RHF Final Energy:   -76.06532458939360
    Total Energy =                        -76.0653245893935832
  @DF-RHF Final Energy:   -76.05995829414948
    Total Energy =                        -76.0599582941494816
  @DF-RHF Final Energy:   -76.06531835617952
    Total Energy =                        -76.0653183561795174
  Multiplicity = 1
  @DF-RHF Final Energy:  -323.16540820790954
    Total Energy =                       -323.1654082079095360
	 Singles Energy            =      -0.0000000000000000 [Eh]
	 Same-Spin Energy          =      -0.3151592029018981 [Eh]
	 Opposite-Spin Energy      =      -1.0256612798885296 [Eh]
	 Correlation Energy        =      -1.3408204827904278 [Eh]
	 Total Energy              =    -324.5062286906999702 [Eh]
	 SCS Total Energy          =    -324.5012548114097513 [Eh]
    Molecular point group: c1

    Geometry (in Angstrom), charge = 0, multiplicity = 1:

       Center              X                  Y                   Z               Mass
    ------------   -----------------  -----------------  -----------------  -----------------
         O           -4.456486790747     0.167920401923     0.161176317125    15.994914619570
         H           -4.975926790747     0.966450401923     0.262756317125     1.007825032230
         H           -3.539566790747     0.484150401923     0.175616317125     1.007825032230
         C           -0.119116790747    -1.507319598077    -0.175083682875    12.000000000000
         H            0.530843209253    -2.368429598077    -0.308003682875     1.007825032230
         H           -0.800096790747    -1.429849598077    -1.018953682875     1.007825032230
         H           -0.732136790747    -1.646119598077     0.711926317125     1.007825032230
         C            0.635613209253    -0.209309598077    -0.042493682875    12.000000000000
         O            0.058903209253     0.865980401923     0.114096317125    15.994914619570
         N            1.986253209253    -0.306809598077    -0.107113682875    14.003074004430
         H            2.387203209253    -1.217349598077    -0.236623682875     1.007825032230
         C            2.854493209253     0.845160401923     0.002336317125    12.000000000000
         H            2.217993209253     1.713460401923     0.137116317125     1.007825032230
         H            3.520083209253     0.753700401923     0.858426317125     1.007825032230
         H            3.448953209253     0.974580401923    -0.899923682875     1.007825032230

  Charge       = 0
  Multiplicity = 1
  Basis Set: AUG-CC-PVQZ
    Blend: AUG-CC-PVQZ
  Basis Set: (AUG-CC-PVQZ AUX)
    Blend: AUG-CC-PVQZ-JKFIT

    Orbital Energies [Eh]
    ---------------------

    Doubly Occupied:

       1A    -20.553808     2A    -20.510822     3A    -15.588838
       4A    -11.350177     5A    -11.258037     6A    -11.236588
       7A     -1.374182     8A     -1.337764     9A     -1.233866
      10A     -1.022625    11A     -0.936376    12A     -0.793486
      13A     -0.700669    14A     -0.694179    15A     -0.656281
      16A     -0.636666    17A     -0.589848    18A     -0.582754
      19A     -0.573517    20A     -0.559778    21A     -0.547887
      22A     -0.506803    23A     -0.498307    24A     -0.424721
      25A     -0.395348

  @DF-RHF Final Energy:  -323.18617990198862

   => Energetics <=

    Nuclear Repulsion Energy =            228.6952891008447182
    One-Electron Energy =                -894.6362927436141490
    Two-Electron Energy =                 342.7548237407807505
    Total Energy =                       -323.1861799019886234

  Dipole Moment: [D]
     X:     3.4506      Y:    -1.3991      Z:    -0.3210     Total:     3.7372

  Basis Set: (AUG-CC-PVQZ AUX)
    Blend: AUG-CC-PVQZ-RI
	 Reference Energy          =    -323.1861799019886234 [Eh]
	 Singles Energy            =      -0.0000000000000000 [Eh]
	 Same-Spin Energy          =      -0.3343676784908268 [Eh]
	 Opposite-Spin Energy      =      -1.1548025192084381 [Eh]
	 Correlation Energy        =      -1.4891701976992651 [Eh]
	 Total Energy              =    -324.6753500996878756 [Eh]

	 ================> DF-SCS-MP2 Energies <==================
	-----------------------------------------------------------
	 SCS Same-Spin Scale       =       0.3333333333333333 [-]
	 SCS Opposite-Spin Scale   =       1.2000000000000000 [-]
	 SCS Same-Spin Energy      =      -0.1114558928302756 [Eh]
	 SCS Opposite-Spin Energy  =      -1.3857630230501257 [Eh]
	 SCS Correlation Energy    =      -1.4972189158804012 [Eh]
	 SCS Total Energy          =    -324.6833988178690333 [Eh]
	-----------------------------------------------------------

*** Psi4 exiting successfully. Buy a developer a beer!
