                               Psi4 1.4a2.dev224

  ==> Input File <==

--------------------------------------------------------------------------
#Generated by lconvert.py for cbs job

memory 40 GB

molecule  {
0 1
  O       -0.3920180    -0.3847190     0.0760710
  H       -0.9114610     0.4138120     0.1776490
  H        0.5249040    -0.0684850     0.0905110
--
0 1
  C        1.6726170    -2.3011200    -0.2213360
  H        2.3225800    -3.1622320    -0.3542520
  H        0.9916410    -2.2236480    -1.0652010
  H        1.0596000    -2.4399160     0.6656720
  C        2.4273490    -1.0031070    -0.0887430
  O        1.8506330     0.0721880     0.0678460
  N        3.7779820    -1.1006100    -0.1533610
  H        4.1789340    -2.0111440    -0.2828760
  C        4.6462240     0.0513600    -0.0439170
  H        4.0097300     0.9196610     0.0908670
  H        5.3118140    -0.0400950     0.8121750
  H        5.2406900     0.1807810    -0.9461770
units angstrom
no_reorient
symmetry c1
}

set {
scf_type DF
mp2_type DF
e_convergence 7
reference rhf
}

energy('mp2/aug-cc-pv[tq]z', bsse_type='cp')
--------------------------------------------------------------------------

    Molecular point group: c1
  Charge       = 0
  Multiplicity = 1
  Basis Set: AUG-CC-PVTZ
    Blend: AUG-CC-PVTZ
  Basis Set: (AUG-CC-PVTZ AUX)
    Blend: AUG-CC-PVTZ-JKFIT
  @DF-RHF Final Energy:  -247.10244923486127
    Total Energy =                       -247.1024492348612966
  Basis Set: (AUG-CC-PVTZ AUX)
    Blend: AUG-CC-PVTZ-RI
	 Reference Energy          =    -247.1024492348612682 [Eh]
	 Singles Energy            =      -0.0000000000000000 [Eh]
	 Same-Spin Energy          =      -0.2465416182198932 [Eh]
	 Opposite-Spin Energy      =      -0.8098921954266065 [Eh]
	 Correlation Energy        =      -1.0564338136464997 [Eh]
	 Total Energy              =    -248.1588830485077608 [Eh]
	 SCS Total Energy          =    -248.1565004087798343 [Eh]
    Molecular point group: c1
  Basis Set: AUG-CC-PVQZ
    Blend: AUG-CC-PVQZ
  Basis Set: (AUG-CC-PVQZ AUX)
    Blend: AUG-CC-PVQZ-JKFIT
  @DF-RHF Final Energy:  -247.11788414449262
    Total Energy =                       -247.1178841444926206
  Basis Set: (AUG-CC-PVQZ AUX)
  @DF-RHF Final Energy:  -247.10263329455029
    Total Energy =                       -247.1026332945502872
  @DF-RHF Final Energy:  -247.11793012601092
    Total Energy =                       -247.1179301260109469
  @DF-RHF Final Energy:   -76.06012247142860
    Total Energy =                        -76.0601224714285991
  @DF-RHF Final Energy:   -76.06536747777437
    Total Energy =                        -76.0653674777743731
  @DF-RHF Final Energy:   -76.05995803481444
    Total Energy =                        -76.0599580348144571
  @DF-RHF Final Energy:   -76.06531808330953
    Total Energy =                        -76.0653180833095348
  Multiplicity = 1
  @DF-RHF Final Energy:  -323.14836666913067
    Total Energy =                       -323.1483666691306667
	 Singles Energy            =      -0.0000000000000000 [Eh]
	 Same-Spin Energy          =      -0.3205932508004349 [Eh]
	 Opposite-Spin Energy      =      -1.0311112653618379 [Eh]
	 Correlation Energy        =      -1.3517045161622727 [Eh]
	 Total Energy              =    -324.5000711852929385 [Eh]
	 SCS Total Energy          =    -324.4925646044983409 [Eh]
    Molecular point group: c1

    Geometry (in Angstrom), charge = 0, multiplicity = 1:

       Center              X                  Y                   Z               Mass
    ------------   -----------------  -----------------  -----------------  -----------------
         O           -2.633253302076     0.361382377615     0.130006216632    15.994914619570
         H           -3.152696302076     1.159913377615     0.231584216632     1.007825032230
         H           -1.716331302076     0.677616377615     0.144446216632     1.007825032230
         C           -0.568618302076    -1.555018622385    -0.167400783368    12.000000000000
         H            0.081344697924    -2.416130622385    -0.300316783368     1.007825032230
         H           -1.249594302076    -1.477546622385    -1.011265783368     1.007825032230
         H           -1.181635302076    -1.693814622385     0.719607216632     1.007825032230
         C            0.186113697924    -0.257005622385    -0.034807783368    12.000000000000
         O           -0.390602302076     0.818289377615     0.121781216632    15.994914619570
         N            1.536746697924    -0.354508622385    -0.099425783368    14.003074004430
         H            1.937698697924    -1.265042622385    -0.228940783368     1.007825032230
         C            2.404988697924     0.797461377615     0.010018216632    12.000000000000
         H            1.768494697924     1.665762377615     0.144802216632     1.007825032230
         H            3.070578697924     0.706006377615     0.866110216632     1.007825032230
         H            2.999454697924     0.926882377615    -0.892241783368     1.007825032230

  Charge       = 0
  Multiplicity = 1
  Basis Set: AUG-CC-PVQZ
    Blend: AUG-CC-PVQZ
  Basis Set: (AUG-CC-PVQZ AUX)
    Blend: AUG-CC-PVQZ-JKFIT

    Orbital Energies [Eh]
    ---------------------

    Doubly Occupied:

       1A    -20.532693     2A    -20.474326     3A    -15.604248
       4A    -11.371065     5A    -11.268354     6A    -11.234587
       7A     -1.413928     8A     -1.281816     9A     -1.248672
      10A     -1.029319    11A     -0.944557    12A     -0.822098
      13A     -0.707590    14A     -0.699601    15A     -0.668593
      16A     -0.649348    17A     -0.596007    18A     -0.582920
      19A     -0.566403    20A     -0.557091    21A     -0.524086
      22A     -0.511506    23A     -0.439912    24A     -0.433081
      25A     -0.411851

  @DF-RHF Final Energy:  -323.16899035263799

   => Energetics <=

    Nuclear Repulsion Energy =            256.0654802506170995
    One-Electron Energy =                -949.3216433073766893
    Two-Electron Energy =                 370.0871727041215422
    Total Energy =                       -323.1689903526379908

  Dipole Moment: [D]
     X:     4.7975      Y:    -1.6291      Z:    -0.3913     Total:     5.0816

  Basis Set: (AUG-CC-PVQZ AUX)
    Blend: AUG-CC-PVQZ-RI
	 Reference Energy          =    -323.1689903526379908 [Eh]
	 Singles Energy            =      -0.0000000000000000 [Eh]
	 Same-Spin Energy          =      -0.3398842742946235 [Eh]
	 Opposite-Spin Energy      =      -1.1592090679739484 [Eh]
	 Correlation Energy        =      -1.4990933422685719 [Eh]
	 Total Energy              =    -324.6680836949065565 [Eh]

	 ================> DF-SCS-MP2 Energies <==================
	-----------------------------------------------------------
	 SCS Same-Spin Scale       =       0.3333333333333333 [-]
	 SCS Opposite-Spin Scale   =       1.2000000000000000 [-]
	 SCS Same-Spin Energy      =      -0.1132947580982078 [Eh]
	 SCS Opposite-Spin Energy  =      -1.3910508815687381 [Eh]
	 SCS Correlation Energy    =      -1.5043456396669459 [Eh]
	 SCS Total Energy          =    -324.6733359923049420 [Eh]
	-----------------------------------------------------------

*** Psi4 exiting successfully. Buy a developer a beer!
