                               Psi4 1.4a2.dev224

  ==> Input File <==

--------------------------------------------------------------------------
#Generated by lconvert.py for cbs job

memory 20 GB

molecule  {
0 1
  O      -0.392020   -0.384720    0.076070
  H      -0.911460    0.413810    0.177650
  H       0.524900   -0.068490    0.090510
--
0 1
  C       2.809010   -2.180540   -0.240770
  H       3.458970   -3.041650   -0.373680
  H       2.128030   -2.103070   -1.084630
  H       2.195990   -2.319330    0.646240
  C       3.563740   -0.882530   -0.108170
  O       2.987030    0.192770    0.048420
  N       4.914370   -0.980030   -0.172790
  H       5.315330   -1.890560   -0.302300
  C       5.782620    0.171940   -0.063350
  H       5.146120    1.040240    0.071440
  H       6.448210    0.080490    0.792750
  H       6.377080    0.301360   -0.965610
units angstrom
no_reorient
symmetry c1
}

set {
scf_type DF
mp2_type DF
e_convergence 7
reference rhf
}

energy('mp2/aug-cc-pv[tq]z', bsse_type='cp')
--------------------------------------------------------------------------

    Molecular point group: c1
  Charge       = 0
  Multiplicity = 1
  Basis Set: AUG-CC-PVTZ
    Blend: AUG-CC-PVTZ
  Basis Set: (AUG-CC-PVTZ AUX)
    Blend: AUG-CC-PVTZ-JKFIT
  @DF-RHF Final Energy:  -247.10244906018485
    Total Energy =                       -247.1024490601848242
  Basis Set: (AUG-CC-PVTZ AUX)
    Blend: AUG-CC-PVTZ-RI
	 Reference Energy          =    -247.1024490601848527 [Eh]
	 Singles Energy            =      -0.0000000000000000 [Eh]
	 Same-Spin Energy          =      -0.2465416499322220 [Eh]
	 Opposite-Spin Energy      =      -0.8098922466693936 [Eh]
	 Correlation Energy        =      -1.0564338966016156 [Eh]
	 Total Energy              =    -248.1588829567864707 [Eh]
	 SCS Total Energy          =    -248.1565003061655261 [Eh]
    Molecular point group: c1
  Basis Set: AUG-CC-PVQZ
    Blend: AUG-CC-PVQZ
  Basis Set: (AUG-CC-PVQZ AUX)
    Blend: AUG-CC-PVQZ-JKFIT
  @DF-RHF Final Energy:  -247.11788396252354
    Total Energy =                       -247.1178839625235355
  Basis Set: (AUG-CC-PVQZ AUX)
  @DF-RHF Final Energy:  -247.10249283496125
    Total Energy =                       -247.1024928349612537
  @DF-RHF Final Energy:  -247.11790195930533
    Total Energy =                       -247.1179019593053567
  @DF-RHF Final Energy:   -76.05999999342967
    Total Energy =                        -76.0599999934296704
  @DF-RHF Final Energy:   -76.06533760879759
    Total Energy =                        -76.0653376087975772
  @DF-RHF Final Energy:   -76.05995829414617
    Total Energy =                        -76.0599582941461705
  @DF-RHF Final Energy:   -76.06531835618578
    Total Energy =                        -76.0653183561857844
  Multiplicity = 1
  @DF-RHF Final Energy:  -323.16997570749874
    Total Energy =                       -323.1699757074987360
	 Singles Energy            =      -0.0000000000000000 [Eh]
	 Same-Spin Energy          =      -0.3159138907066031 [Eh]
	 Opposite-Spin Energy      =      -1.0267254230169083 [Eh]
	 Correlation Energy        =      -1.3426393137235113 [Eh]
	 Total Energy              =    -324.5126150212222456 [Eh]
	 SCS Total Energy          =    -324.5073508453545514 [Eh]
    Molecular point group: c1

    Geometry (in Angstrom), charge = 0, multiplicity = 1:

       Center              X                  Y                   Z               Mass
    ------------   -----------------  -----------------  -----------------  -----------------
         O           -3.544891321524     0.264649922169     0.145592052109    15.994914619570
         H           -4.064331321524     1.063179922169     0.247172052109     1.007825032230
         H           -2.627971321524     0.580879922169     0.160032052109     1.007825032230
         C           -0.343861321524    -1.531170077831    -0.171247947891    12.000000000000
         H            0.306098678476    -2.392280077831    -0.304157947891     1.007825032230
         H           -1.024841321524    -1.453700077831    -1.015107947891     1.007825032230
         H           -0.956881321524    -1.669960077831     0.715762052109     1.007825032230
         C            0.410868678476    -0.233160077831    -0.038647947891    12.000000000000
         O           -0.165841321524     0.842139922169     0.117942052109    15.994914619570
         N            1.761498678476    -0.330660077831    -0.103267947891    14.003074004430
         H            2.162458678476    -1.241190077831    -0.232777947891     1.007825032230
         C            2.629748678476     0.821309922169     0.006172052109    12.000000000000
         H            1.993248678476     1.689609922169     0.140962052109     1.007825032230
         H            3.295338678476     0.729859922169     0.862272052109     1.007825032230
         H            3.224208678476     0.950729922169    -0.896087947891     1.007825032230

  Charge       = 0
  Multiplicity = 1
  Basis Set: AUG-CC-PVQZ
    Blend: AUG-CC-PVQZ
  Basis Set: (AUG-CC-PVQZ AUX)
    Blend: AUG-CC-PVQZ-JKFIT

    Orbital Energies [Eh]
    ---------------------

    Doubly Occupied:

       1A    -20.540686     2A    -20.516368     3A    -15.591708
       4A    -11.354107     5A    -11.260082     6A    -11.235896
       7A     -1.379669     8A     -1.325651     9A     -1.237138
      10A     -1.023722    11A     -0.937958    12A     -0.796829
      13A     -0.696225    14A     -0.689284    15A     -0.659874
      16A     -0.638862    17A     -0.590642    18A     -0.587183
      19A     -0.563738    20A     -0.558411    21A     -0.550083
      22A     -0.509894    23A     -0.486492    24A     -0.430312
      25A     -0.399413

  @DF-RHF Final Energy:  -323.19072604838556

   => Energetics <=

    Nuclear Repulsion Energy =            238.9031316100418962
    One-Electron Energy =                -915.0672673300036877
    Two-Electron Energy =                 352.9734096715762348
    Total Energy =                       -323.1907260483855566

  Dipole Moment: [D]
     X:     3.6625      Y:    -1.4676      Z:    -0.3363     Total:     3.9599

  Basis Set: (AUG-CC-PVQZ AUX)
    Blend: AUG-CC-PVQZ-RI
	 Reference Energy          =    -323.1907260483855566 [Eh]
	 Singles Energy            =      -0.0000000000000000 [Eh]
	 Same-Spin Energy          =      -0.3351059689848429 [Eh]
	 Opposite-Spin Energy      =      -1.1554380440103769 [Eh]
	 Correlation Energy        =      -1.4905440129952199 [Eh]
	 Total Energy              =    -324.6812700613807579 [Eh]

	 ================> DF-SCS-MP2 Energies <==================
	-----------------------------------------------------------
	 SCS Same-Spin Scale       =       0.3333333333333333 [-]
	 SCS Opposite-Spin Scale   =       1.2000000000000000 [-]
	 SCS Same-Spin Energy      =      -0.1117019896616143 [Eh]
	 SCS Opposite-Spin Energy  =      -1.3865256528124521 [Eh]
	 SCS Correlation Energy    =      -1.4982276424740664 [Eh]
	 SCS Total Energy          =    -324.6889536908596483 [Eh]
	-----------------------------------------------------------

*** Psi4 exiting successfully. Buy a developer a beer!
