                               Psi4 1.4a2.dev224

  ==> Input File <==

--------------------------------------------------------------------------
#Generated by lconvert.py for cbs job

memory 20 GB

molecule  {
0 1
  O      -0.636140   -0.023280    0.280600
  H       0.308100   -0.047080    0.076460
  C      -1.152060   -1.311290    0.015260
  H      -2.209940   -1.296270    0.263960
  H      -1.056610   -1.592670   -1.036190
  H      -0.674840   -2.086270    0.620510
--
0 1
  O       3.401230   -0.169100   -0.067550
  H       3.870020    0.445290   -0.637210
  C       3.910070   -0.012080    1.254170
  H       3.356500   -0.700270    1.884300
  H       4.969060   -0.262520    1.310890
  H       3.757630    0.998620    1.632060
units angstrom
no_reorient
symmetry c1
}

set {
scf_type DF
mp2_type DF
e_convergence 7
reference rhf
}

energy('mp2/aug-cc-pv[tq]z', bsse_type='cp')
--------------------------------------------------------------------------

    Molecular point group: c1
  Charge       = 0
  Multiplicity = 1
  Basis Set: AUG-CC-PVTZ
    Blend: AUG-CC-PVTZ
  Basis Set: (AUG-CC-PVTZ AUX)
    Blend: AUG-CC-PVTZ-JKFIT
  @DF-RHF Final Energy:  -115.09203510148642
    Total Energy =                       -115.0920351014864167
  Basis Set: (AUG-CC-PVTZ AUX)
    Blend: AUG-CC-PVTZ-RI
	 Reference Energy          =    -115.0920351014864167 [Eh]
	 Singles Energy            =      -0.0000000000000000 [Eh]
	 Same-Spin Energy          =      -0.1057509733103816 [Eh]
	 Opposite-Spin Energy      =      -0.3647078402178846 [Eh]
	 Correlation Energy        =      -0.4704588135282662 [Eh]
	 Total Energy              =    -115.5624939150146844 [Eh]
	 SCS Total Energy          =    -115.5649348341846689 [Eh]
    Molecular point group: c1
  Basis Set: AUG-CC-PVQZ
    Blend: AUG-CC-PVQZ
  Basis Set: (AUG-CC-PVQZ AUX)
    Blend: AUG-CC-PVQZ-JKFIT
  @DF-RHF Final Energy:  -115.09954716720200
    Total Energy =                       -115.0995471672020045
  Basis Set: (AUG-CC-PVQZ AUX)
  @DF-RHF Final Energy:  -115.09205997827944
    Total Energy =                       -115.0920599782794369
  @DF-RHF Final Energy:  -115.09956174075869
    Total Energy =                       -115.0995617407586877
  @DF-RHF Final Energy:  -115.09182556794644
    Total Energy =                       -115.0918255679464437
  @DF-RHF Final Energy:  -115.09932651963663
    Total Energy =                       -115.0993265196366337
  @DF-RHF Final Energy:  -115.09179963491130
    Total Energy =                       -115.0917996349112968
  @DF-RHF Final Energy:  -115.09931625347238
    Total Energy =                       -115.0993162534723808
  Multiplicity = 1
  @DF-RHF Final Energy:  -230.18676459660881
    Total Energy =                       -230.1867645966088105
	 Singles Energy            =      -0.0000000000000000 [Eh]
	 Same-Spin Energy          =      -0.2118976624199574 [Eh]
	 Opposite-Spin Energy      =      -0.7299826562064869 [Eh]
	 Correlation Energy        =      -0.9418803186264444 [Eh]
	 Total Energy              =    -231.1286449152352418 [Eh]
	 SCS Total Energy          =    -231.1333763381965696 [Eh]
    Molecular point group: c1

    Geometry (in Angstrom), charge = 0, multiplicity = 1:

       Center              X                  Y                   Z               Mass
    ------------   -----------------  -----------------  -----------------  -----------------
         O           -2.037176977695     0.344141605409    -0.075168782305    15.994914619570
         H           -1.092936977695     0.320341605409    -0.279308782305     1.007825032230
         C           -2.553096977695    -0.943868394591    -0.340508782305    12.000000000000
         H           -3.610976977695    -0.928848394591    -0.091808782305     1.007825032230
         H           -2.457646977695    -1.225248394591    -1.391958782305     1.007825032230
         H           -2.075876977695    -1.718848394591     0.264741217695     1.007825032230
         O            2.000193022305     0.198321605409    -0.423318782305    15.994914619570
         H            2.468983022305     0.812711605409    -0.992978782305     1.007825032230
         C            2.509033022305     0.355341605409     0.898401217695    12.000000000000
         H            1.955463022305    -0.332848394591     1.528531217695     1.007825032230
         H            3.568023022305     0.104901605409     0.955121217695     1.007825032230
         H            2.356593022305     1.366041605409     1.276291217695     1.007825032230

  Charge       = 0
  Multiplicity = 1
  Basis Set: AUG-CC-PVQZ
    Blend: AUG-CC-PVQZ
  Basis Set: (AUG-CC-PVQZ AUX)
    Blend: AUG-CC-PVQZ-JKFIT

    Orbital Energies [Eh]
    ---------------------

    Doubly Occupied:

       1A    -20.566029     2A    -20.547081     3A    -11.276146
       4A    -11.260648     5A     -1.365108     6A     -1.348640
       7A     -0.933769     8A     -0.915826     9A     -0.699310
      10A     -0.682022    11A     -0.628727    12A     -0.611558
      13A     -0.600934    14A     -0.585999    15A     -0.513969
      16A     -0.494934    17A     -0.461564    18A     -0.441367

  @DF-RHF Final Energy:  -230.20176076261052

   => Energetics <=

    Nuclear Repulsion Energy =            117.3879978173168297
    One-Electron Energy =                -547.3122525202181805
    Two-Electron Energy =                 199.7224939402908319
    Total Energy =                       -230.2017607626105189

  Dipole Moment: [D]
     X:     2.4525      Y:    -0.2284      Z:    -0.0186     Total:     2.4632

  Basis Set: (AUG-CC-PVQZ AUX)
    Blend: AUG-CC-PVQZ-RI
	 Reference Energy          =    -230.2017607626105189 [Eh]
	 Singles Energy            =      -0.0000000000000000 [Eh]
	 Same-Spin Energy          =      -0.2253322710563347 [Eh]
	 Opposite-Spin Energy      =      -0.8215660947620346 [Eh]
	 Correlation Energy        =      -1.0468983658183693 [Eh]
	 Total Energy              =    -231.2486591284288977 [Eh]

	 ================> DF-SCS-MP2 Energies <==================
	-----------------------------------------------------------
	 SCS Same-Spin Scale       =       0.3333333333333333 [-]
	 SCS Opposite-Spin Scale   =       1.2000000000000000 [-]
	 SCS Same-Spin Energy      =      -0.0751107570187782 [Eh]
	 SCS Opposite-Spin Energy  =      -0.9858793137144415 [Eh]
	 SCS Correlation Energy    =      -1.0609900707332196 [Eh]
	 SCS Total Energy          =    -231.2627508333437447 [Eh]
	-----------------------------------------------------------

*** Psi4 exiting successfully. Buy a developer a beer!
