                               Psi4 1.4a2.dev224

  ==> Input File <==

--------------------------------------------------------------------------
#Generated by lconvert.py for cbs job

memory 40 GB

molecule  {
0 1
  O       -0.6361350    -0.0232820     0.2805990
  H        0.3080970    -0.0470790     0.0764640
  C       -1.1520650    -1.3112880     0.0152600
  H       -2.2099450    -1.2962650     0.2639560
  H       -1.0566100    -1.5926710    -1.0361910
  H       -0.6748360    -2.0862730     0.6205110
--
0 1
  O        1.8546150    -0.1080860     0.0044620
  H        2.3234040     0.5062990    -0.5652030
  C        2.3634490     0.0489330     1.3261800
  H        1.8098800    -0.6392630     1.9563110
  H        3.4224450    -0.2015060     1.3829030
  H        2.2110090     1.0596270     1.7040720
units angstrom
no_reorient
symmetry c1
}

set {
scf_type DF
mp2_type DF
e_convergence 7
reference rhf
}

energy('mp2/aug-cc-pv[tq]z', bsse_type='cp')
--------------------------------------------------------------------------

    Molecular point group: c1
  Charge       = 0
  Multiplicity = 1
  Basis Set: AUG-CC-PVTZ
    Blend: AUG-CC-PVTZ
  Basis Set: (AUG-CC-PVTZ AUX)
    Blend: AUG-CC-PVTZ-JKFIT
  @DF-RHF Final Energy:  -115.09203527568228
    Total Energy =                       -115.0920352756822780
  Basis Set: (AUG-CC-PVTZ AUX)
    Blend: AUG-CC-PVTZ-RI
	 Reference Energy          =    -115.0920352756822780 [Eh]
	 Singles Energy            =      -0.0000000000000000 [Eh]
	 Same-Spin Energy          =      -0.1057509440303526 [Eh]
	 Opposite-Spin Energy      =      -0.3647077211074022 [Eh]
	 Correlation Energy        =      -0.4704586651377549 [Eh]
	 Total Energy              =    -115.5624939408200333 [Eh]
	 SCS Total Energy          =    -115.5649348556879517 [Eh]
    Molecular point group: c1
  Basis Set: AUG-CC-PVQZ
    Blend: AUG-CC-PVQZ
  Basis Set: (AUG-CC-PVQZ AUX)
    Blend: AUG-CC-PVQZ-JKFIT
  @DF-RHF Final Energy:  -115.09954734720613
    Total Energy =                       -115.0995473472061263
  Basis Set: (AUG-CC-PVQZ AUX)
  @DF-RHF Final Energy:  -115.09218802737990
    Total Energy =                       -115.0921880273799047
  @DF-RHF Final Energy:  -115.09960349685511
    Total Energy =                       -115.0996034968551101
  @DF-RHF Final Energy:  -115.09193208619627
    Total Energy =                       -115.0919320861962660
  @DF-RHF Final Energy:  -115.09935460024481
    Total Energy =                       -115.0993546002448085
  @DF-RHF Final Energy:  -115.09180015572463
    Total Energy =                       -115.0918001557246271
  @DF-RHF Final Energy:  -115.09931679061512
    Total Energy =                       -115.0993167906151200
  Multiplicity = 1
  @DF-RHF Final Energy:  -230.18173161107515
    Total Energy =                       -230.1817316110751506
	 Singles Energy            =      -0.0000000000000000 [Eh]
	 Same-Spin Energy          =      -0.2157232966017459 [Eh]
	 Opposite-Spin Energy      =      -0.7341594870672401 [Eh]
	 Correlation Energy        =      -0.9498827836689860 [Eh]
	 Total Energy              =    -231.1316143947441333 [Eh]
	 SCS Total Energy          =    -231.1346307610897668 [Eh]
    Molecular point group: c1

    Geometry (in Angstrom), charge = 0, multiplicity = 1:

       Center              X                  Y                   Z               Mass
    ------------   -----------------  -----------------  -----------------  -----------------
         O           -1.263863413713     0.313633184979    -0.111175079224    15.994914619570
         H           -0.319631413713     0.289836184979    -0.315310079224     1.007825032230
         C           -1.779793413713    -0.974372815021    -0.376514079224    12.000000000000
         H           -2.837673413713    -0.959349815021    -0.127818079224     1.007825032230
         H           -1.684338413713    -1.255755815021    -1.427965079224     1.007825032230
         H           -1.302564413713    -1.749357815021     0.228736920776     1.007825032230
         O            1.226886586287     0.228829184979    -0.387312079224    15.994914619570
         H            1.695675586287     0.843214184979    -0.956977079224     1.007825032230
         C            1.735720586287     0.385848184979     0.934405920776    12.000000000000
         H            1.182151586287    -0.302347815021     1.564536920776     1.007825032230
         H            2.794716586287     0.135409184979     0.991128920776     1.007825032230
         H            1.583280586287     1.396542184979     1.312297920776     1.007825032230

  Charge       = 0
  Multiplicity = 1
  Basis Set: AUG-CC-PVQZ
    Blend: AUG-CC-PVQZ
  Basis Set: (AUG-CC-PVQZ AUX)
    Blend: AUG-CC-PVQZ-JKFIT

    Orbital Energies [Eh]
    ---------------------

    Doubly Occupied:

       1A    -20.589301     2A    -20.505769     3A    -11.287971
       4A    -11.243113     5A     -1.398197     6A     -1.317208
       7A     -0.949563     8A     -0.898148     9A     -0.736648
      10A     -0.680149    11A     -0.638578    12A     -0.610063
      13A     -0.590099    14A     -0.561284    15A     -0.535639
      16A     -0.492294    17A     -0.454493    18A     -0.413994

  @DF-RHF Final Energy:  -230.19662706410648

   => Energetics <=

    Nuclear Repulsion Energy =            134.8901736371630022
    One-Electron Energy =                -582.3685774835369102
    Two-Electron Energy =                 217.2817767822674284
    Total Energy =                       -230.1966270641064796

  Dipole Moment: [D]
     X:     3.3679      Y:     0.0250      Z:     0.0766     Total:     3.3688

  Basis Set: (AUG-CC-PVQZ AUX)
    Blend: AUG-CC-PVQZ-RI
	 Reference Energy          =    -230.1966270641064796 [Eh]
	 Singles Energy            =      -0.0000000000000000 [Eh]
	 Same-Spin Energy          =      -0.2291681208789902 [Eh]
	 Opposite-Spin Energy      =      -0.8250318211809847 [Eh]
	 Correlation Energy        =      -1.0541999420599750 [Eh]
	 Total Energy              =    -231.2508270061664462 [Eh]

	 ================> DF-SCS-MP2 Energies <==================
	-----------------------------------------------------------
	 SCS Same-Spin Scale       =       0.3333333333333333 [-]
	 SCS Opposite-Spin Scale   =       1.2000000000000000 [-]
	 SCS Same-Spin Energy      =      -0.0763893736263301 [Eh]
	 SCS Opposite-Spin Energy  =      -0.9900381854171816 [Eh]
	 SCS Correlation Energy    =      -1.0664275590435117 [Eh]
	 SCS Total Energy          =    -231.2630546231499977 [Eh]
	-----------------------------------------------------------

*** Psi4 exiting successfully. Buy a developer a beer!
