                               Psi4 1.4a2.dev224

  ==> Input File <==

--------------------------------------------------------------------------
#Generated by lconvert.py for cbs job

memory 40 GB

molecule  {
0 1
  O       -0.6361350    -0.0232820     0.2805990
  H        0.3080970    -0.0470790     0.0764640
  C       -1.1520650    -1.3112880     0.0152600
  H       -2.2099450    -1.2962650     0.2639560
  H       -1.0566100    -1.5926710    -1.0361910
  H       -0.6748360    -2.0862730     0.6205110
--
0 1
  O        2.1446860    -0.1195290    -0.0090420
  H        2.6134760     0.4948560    -0.5787080
  C        2.6535200     0.0374900     1.3126750
  H        2.0999510    -0.6507060     1.9428060
  H        3.7125170    -0.2129490     1.3693980
  H        2.5010810     1.0481840     1.6905670
units angstrom
no_reorient
symmetry c1
}

set {
scf_type DF
mp2_type DF
e_convergence 7
reference rhf
}

energy('mp2/aug-cc-pv[tq]z', bsse_type='cp')
--------------------------------------------------------------------------

    Molecular point group: c1
  Charge       = 0
  Multiplicity = 1
  Basis Set: AUG-CC-PVTZ
    Blend: AUG-CC-PVTZ
  Basis Set: (AUG-CC-PVTZ AUX)
    Blend: AUG-CC-PVTZ-JKFIT
  @DF-RHF Final Energy:  -115.09203525296273
    Total Energy =                       -115.0920352529627309
  Basis Set: (AUG-CC-PVTZ AUX)
    Blend: AUG-CC-PVTZ-RI
	 Reference Energy          =    -115.0920352529627309 [Eh]
	 Singles Energy            =      -0.0000000000000000 [Eh]
	 Same-Spin Energy          =      -0.1057509534472641 [Eh]
	 Opposite-Spin Energy      =      -0.3647077377672815 [Eh]
	 Correlation Energy        =      -0.4704586912145455 [Eh]
	 Total Energy              =    -115.5624939441772767 [Eh]
	 SCS Total Energy          =    -115.5649348560992280 [Eh]
    Molecular point group: c1
  Basis Set: AUG-CC-PVQZ
    Blend: AUG-CC-PVQZ
  Basis Set: (AUG-CC-PVQZ AUX)
    Blend: AUG-CC-PVQZ-JKFIT
  @DF-RHF Final Energy:  -115.09954732325298
    Total Energy =                       -115.0995473232529775
  Basis Set: (AUG-CC-PVQZ AUX)
  @DF-RHF Final Energy:  -115.09213402543189
    Total Energy =                       -115.0921340254318892
  @DF-RHF Final Energy:  -115.09959078102116
    Total Energy =                       -115.0995907810211634
  @DF-RHF Final Energy:  -115.09189378846624
    Total Energy =                       -115.0918937884662370
  @DF-RHF Final Energy:  -115.09934646789129
    Total Energy =                       -115.0993464678912943
  @DF-RHF Final Energy:  -115.09180015567567
    Total Energy =                       -115.0918001556756707
  @DF-RHF Final Energy:  -115.09931679052337
    Total Energy =                       -115.0993167905233747
  Multiplicity = 1
  @DF-RHF Final Energy:  -230.18907517146425
    Total Energy =                       -230.1890751714642533
	 Singles Energy            =      -0.0000000000000000 [Eh]
	 Same-Spin Energy          =      -0.2140841392325674 [Eh]
	 Opposite-Spin Energy      =      -0.7325841067864385 [Eh]
	 Correlation Energy        =      -0.9466682460190059 [Eh]
	 Total Energy              =    -231.1357434174832690 [Eh]
	 SCS Total Energy          =    -231.1395374793521569 [Eh]
    Molecular point group: c1

    Geometry (in Angstrom), charge = 0, multiplicity = 1:

       Center              X                  Y                   Z               Mass
    ------------   -----------------  -----------------  -----------------  -----------------
         O           -1.408898960917     0.319354684979    -0.104422828940    15.994914619570
         H           -0.464666960917     0.295557684979    -0.308557828940     1.007825032230
         C           -1.924828960917    -0.968651315021    -0.369761828940    12.000000000000
         H           -2.982708960917    -0.953628315021    -0.121065828940     1.007825032230
         H           -1.829373960917    -1.250034315021    -1.421212828940     1.007825032230
         H           -1.447599960917    -1.743636315021     0.235489171060     1.007825032230
         O            1.371922039083     0.223107684979    -0.394063828940    15.994914619570
         H            1.840712039083     0.837492684979    -0.963729828940     1.007825032230
         C            1.880756039083     0.380126684979     0.927653171060    12.000000000000
         H            1.327187039083    -0.308069315021     1.557784171060     1.007825032230
         H            2.939753039083     0.129687684979     0.984376171060     1.007825032230
         H            1.728317039083     1.390820684979     1.305545171060     1.007825032230

  Charge       = 0
  Multiplicity = 1
  Basis Set: AUG-CC-PVQZ
    Blend: AUG-CC-PVQZ
  Basis Set: (AUG-CC-PVQZ AUX)
    Blend: AUG-CC-PVQZ-JKFIT

    Orbital Energies [Eh]
    ---------------------

    Doubly Occupied:

       1A    -20.581421     2A    -20.523180     3A    -11.283723
       4A    -11.249444     5A     -1.383761     6A     -1.329300
       7A     -0.943477     8A     -0.903788     9A     -0.719547
      10A     -0.673967    11A     -0.635980    12A     -0.611180
      13A     -0.597877    14A     -0.570346    15A     -0.528398
      16A     -0.486824    17A     -0.466092    18A     -0.424597

  @DF-RHF Final Energy:  -230.20405373156274

   => Energetics <=

    Nuclear Repulsion Energy =            130.4299957487820905
    One-Electron Energy =                -573.4422934538698655
    Two-Electron Energy =                 212.8082439735250659
    Total Energy =                       -230.2040537315627375

  Dipole Moment: [D]
     X:     3.0096      Y:    -0.0790      Z:     0.0439     Total:     3.0109

  Basis Set: (AUG-CC-PVQZ AUX)
    Blend: AUG-CC-PVQZ-RI
	 Reference Energy          =    -230.2040537315627375 [Eh]
	 Singles Energy            =      -0.0000000000000000 [Eh]
	 Same-Spin Energy          =      -0.2274990024657748 [Eh]
	 Opposite-Spin Energy      =      -0.8235880161866325 [Eh]
	 Correlation Energy        =      -1.0510870186524073 [Eh]
	 Total Energy              =    -231.2551407502151335 [Eh]

	 ================> DF-SCS-MP2 Energies <==================
	-----------------------------------------------------------
	 SCS Same-Spin Scale       =       0.3333333333333333 [-]
	 SCS Opposite-Spin Scale   =       1.2000000000000000 [-]
	 SCS Same-Spin Energy      =      -0.0758330008219249 [Eh]
	 SCS Opposite-Spin Energy  =      -0.9883056194239589 [Eh]
	 SCS Correlation Energy    =      -1.0641386202458838 [Eh]
	 SCS Total Energy          =    -231.2681923518086080 [Eh]
	-----------------------------------------------------------

*** Psi4 exiting successfully. Buy a developer a beer!
