                               Psi4 1.4a2.dev224

  ==> Input File <==

--------------------------------------------------------------------------
#Generated by lconvert.py for cbs job

memory 40 GB

molecule  {
0 1
  O       -0.6361350    -0.0232820     0.2805990
  H        0.3080970    -0.0470790     0.0764640
  C       -1.1520650    -1.3112880     0.0152600
  H       -2.2099450    -1.2962650     0.2639560
  H       -1.0566100    -1.5926710    -1.0361910
  H       -0.6748360    -2.0862730     0.6205110
--
0 1
  O        2.4346580    -0.1309680    -0.0225430
  H        2.9034480     0.4834170    -0.5922090
  C        2.9434920     0.0260510     1.2991750
  H        2.3899230    -0.6621450     1.9293060
  H        4.0024890    -0.2243880     1.3558980
  H        2.7910530     1.0367450     1.6770670
units angstrom
no_reorient
symmetry c1
}

set {
scf_type DF
mp2_type DF
e_convergence 7
reference rhf
}

energy('mp2/aug-cc-pv[tq]z', bsse_type='cp')
--------------------------------------------------------------------------

    Molecular point group: c1
  Charge       = 0
  Multiplicity = 1
  Basis Set: AUG-CC-PVTZ
    Blend: AUG-CC-PVTZ
  Basis Set: (AUG-CC-PVTZ AUX)
    Blend: AUG-CC-PVTZ-JKFIT
  @DF-RHF Final Energy:  -115.09203522633103
    Total Energy =                       -115.0920352263310349
  Basis Set: (AUG-CC-PVTZ AUX)
    Blend: AUG-CC-PVTZ-RI
	 Reference Energy          =    -115.0920352263310349 [Eh]
	 Singles Energy            =      -0.0000000000000000 [Eh]
	 Same-Spin Energy          =      -0.1057509546326097 [Eh]
	 Opposite-Spin Energy      =      -0.3647077564041638 [Eh]
	 Correlation Energy        =      -0.4704587110367735 [Eh]
	 Total Energy              =    -115.5624939373678046 [Eh]
	 SCS Total Energy          =    -115.5649348522268980 [Eh]
    Molecular point group: c1
  Basis Set: AUG-CC-PVQZ
    Blend: AUG-CC-PVQZ
  Basis Set: (AUG-CC-PVQZ AUX)
    Blend: AUG-CC-PVQZ-JKFIT
  @DF-RHF Final Energy:  -115.09954729486036
    Total Energy =                       -115.0995472948603577
  Basis Set: (AUG-CC-PVQZ AUX)
  @DF-RHF Final Energy:  -115.09210915481985
    Total Energy =                       -115.0921091548198518
  @DF-RHF Final Energy:  -115.09958249701070
    Total Energy =                       -115.0995824970107009
  @DF-RHF Final Energy:  -115.09186901664418
    Total Energy =                       -115.0918690166441820
  @DF-RHF Final Energy:  -115.09934002221506
    Total Energy =                       -115.0993400222150598
  @DF-RHF Final Energy:  -115.09180015570585
    Total Energy =                       -115.0918001557058545
  @DF-RHF Final Energy:  -115.09931679052447
    Total Energy =                       -115.0993167905244690
  Multiplicity = 1
  @DF-RHF Final Energy:  -230.18994004137744
    Total Energy =                       -230.1899400413774401
	 Singles Energy            =      -0.0000000000000000 [Eh]
	 Same-Spin Energy          =      -0.2130973538221564 [Eh]
	 Opposite-Spin Energy      =      -0.7315584241968962 [Eh]
	 Correlation Energy        =      -0.9446557780190525 [Eh]
	 Total Energy              =    -231.1345958193964805 [Eh]
	 SCS Total Energy          =    -231.1388426016877702 [Eh]
    Molecular point group: c1

    Geometry (in Angstrom), charge = 0, multiplicity = 1:

       Center              X                  Y                   Z               Mass
    ------------   -----------------  -----------------  -----------------  -----------------
         O           -1.553884960917     0.325074184979    -0.097672563490    15.994914619570
         H           -0.609652960917     0.301277184979    -0.301807563490     1.007825032230
         C           -2.069814960917    -0.962931815021    -0.363011563490    12.000000000000
         H           -3.127694960917    -0.947908815021    -0.114315563490     1.007825032230
         H           -1.974359960917    -1.244314815021    -1.414462563490     1.007825032230
         H           -1.592585960917    -1.737916815021     0.242239436510     1.007825032230
         O            1.516908039083     0.217388184979    -0.400814563490    15.994914619570
         H            1.985698039083     0.831773184979    -0.970480563490     1.007825032230
         C            2.025742039083     0.374407184979     0.920903436510    12.000000000000
         H            1.472173039083    -0.313788815021     1.551034436510     1.007825032230
         H            3.084739039083     0.123968184979     0.977626436510     1.007825032230
         H            1.873303039083     1.385101184979     1.298795436510     1.007825032230

  Charge       = 0
  Multiplicity = 1
  Basis Set: AUG-CC-PVQZ
    Blend: AUG-CC-PVQZ
  Basis Set: (AUG-CC-PVQZ AUX)
    Blend: AUG-CC-PVQZ-JKFIT

    Orbital Energies [Eh]
    ---------------------

    Doubly Occupied:

       1A    -20.575873     2A    -20.533385     3A    -11.280932
       4A    -11.253661     5A     -1.375914     6A     -1.337014
       7A     -0.939736     8A     -0.908117     9A     -0.710474
      10A     -0.674305    11A     -0.634404    12A     -0.608452
      13A     -0.603029    14A     -0.576493    15A     -0.522885
      16A     -0.487173    17A     -0.468093    18A     -0.431301

  @DF-RHF Final Energy:  -230.20492948550574

   => Energetics <=

    Nuclear Repulsion Energy =            126.6600659267312068
    One-Electron Energy =                -565.8875125783970361
    Two-Electron Energy =                 209.0225171661600996
    Total Energy =                       -230.2049294855057440

  Dipole Moment: [D]
     X:     2.7827      Y:    -0.1424      Z:     0.0217     Total:     2.7864

  Basis Set: (AUG-CC-PVQZ AUX)
    Blend: AUG-CC-PVQZ-RI
	 Reference Energy          =    -230.2049294855057440 [Eh]
	 Singles Energy            =      -0.0000000000000000 [Eh]
	 Same-Spin Energy          =      -0.2265034199678554 [Eh]
	 Opposite-Spin Energy      =      -0.8227049909723743 [Eh]
	 Correlation Energy        =      -1.0492084109402298 [Eh]
	 Total Energy              =    -231.2541378964459682 [Eh]

	 ================> DF-SCS-MP2 Energies <==================
	-----------------------------------------------------------
	 SCS Same-Spin Scale       =       0.3333333333333333 [-]
	 SCS Opposite-Spin Scale   =       1.2000000000000000 [-]
	 SCS Same-Spin Energy      =      -0.0755011399892851 [Eh]
	 SCS Opposite-Spin Energy  =      -0.9872459891668490 [Eh]
	 SCS Correlation Energy    =      -1.0627471291561341 [Eh]
	 SCS Total Energy          =    -231.2676766146618661 [Eh]
	-----------------------------------------------------------

*** Psi4 exiting successfully. Buy a developer a beer!
