                               Psi4 1.4a2.dev224

  ==> Input File <==

--------------------------------------------------------------------------
#Generated by lconvert.py for cbs job

memory 20 GB

molecule  {
0 1
  O      -0.636140   -0.023280    0.280600
  H       0.308100   -0.047080    0.076460
  C      -1.152060   -1.311290    0.015260
  H      -2.209940   -1.296270    0.263960
  H      -1.056610   -1.592670   -1.036190
  H      -0.674840   -2.086270    0.620510
--
0 1
  O       3.981180   -0.191980   -0.094550
  H       4.449970    0.422410   -0.664220
  C       4.490010   -0.034960    1.227170
  H       3.936440   -0.723150    1.857300
  H       5.549010   -0.285400    1.283890
  H       4.337570    0.975740    1.605060
units angstrom
no_reorient
symmetry c1
}

set {
scf_type DF
mp2_type DF
e_convergence 7
reference rhf
}

energy('mp2/aug-cc-pv[tq]z', bsse_type='cp')
--------------------------------------------------------------------------

    Molecular point group: c1
  Charge       = 0
  Multiplicity = 1
  Basis Set: AUG-CC-PVTZ
    Blend: AUG-CC-PVTZ
  Basis Set: (AUG-CC-PVTZ AUX)
    Blend: AUG-CC-PVTZ-JKFIT
  @DF-RHF Final Energy:  -115.09203498381439
    Total Energy =                       -115.0920349838143864
  Basis Set: (AUG-CC-PVTZ AUX)
    Blend: AUG-CC-PVTZ-RI
	 Reference Energy          =    -115.0920349838143864 [Eh]
	 Singles Energy            =      -0.0000000000000000 [Eh]
	 Same-Spin Energy          =      -0.1057509989564926 [Eh]
	 Opposite-Spin Energy      =      -0.3647079313021815 [Eh]
	 Correlation Energy        =      -0.4704589302586741 [Eh]
	 Total Energy              =    -115.5624939140730589 [Eh]
	 SCS Total Energy          =    -115.5649348343625036 [Eh]
    Molecular point group: c1
  Basis Set: AUG-CC-PVQZ
    Blend: AUG-CC-PVQZ
  Basis Set: (AUG-CC-PVQZ AUX)
    Blend: AUG-CC-PVQZ-JKFIT
  @DF-RHF Final Energy:  -115.09954703448990
    Total Energy =                       -115.0995470344899019
  Basis Set: (AUG-CC-PVQZ AUX)
  @DF-RHF Final Energy:  -115.09204552317205
    Total Energy =                       -115.0920455231720467
  @DF-RHF Final Energy:  -115.09955388578248
    Total Energy =                       -115.0995538857824840
  @DF-RHF Final Energy:  -115.09181601183053
    Total Energy =                       -115.0918160118305309
  @DF-RHF Final Energy:  -115.09932212988184
    Total Energy =                       -115.0993221298818412
  @DF-RHF Final Energy:  -115.09179963490971
    Total Energy =                       -115.0917996349097052
  @DF-RHF Final Energy:  -115.09931625368417
    Total Energy =                       -115.0993162536841652
  Multiplicity = 1
  @DF-RHF Final Energy:  -230.18562415283620
    Total Energy =                       -230.1856241528361977
	 Singles Energy            =      -0.0000000000000000 [Eh]
	 Same-Spin Energy          =      -0.2117152421613095 [Eh]
	 Opposite-Spin Energy      =      -0.7296489392728142 [Eh]
	 Correlation Energy        =      -0.9413641814341237 [Eh]
	 Total Energy              =    -231.1269883342703224 [Eh]
	 SCS Total Energy          =    -231.1317746273506657 [Eh]
    Molecular point group: c1

    Geometry (in Angstrom), charge = 0, multiplicity = 1:

       Center              X                  Y                   Z               Mass
    ------------   -----------------  -----------------  -----------------  -----------------
         O           -2.327149789543     0.355581605409    -0.061668624961    15.994914619570
         H           -1.382909789543     0.331781605409    -0.265808624961     1.007825032230
         C           -2.843069789543    -0.932428394591    -0.327008624961    12.000000000000
         H           -3.900949789543    -0.917408394591    -0.078308624961     1.007825032230
         H           -2.747619789543    -1.213808394591    -1.378458624961     1.007825032230
         H           -2.365849789543    -1.707408394591     0.278241375039     1.007825032230
         O            2.290170210457     0.186881605409    -0.436818624961    15.994914619570
         H            2.758960210457     0.801271605409    -1.006488624961     1.007825032230
         C            2.799000210457     0.343901605409     0.884901375039    12.000000000000
         H            2.245430210457    -0.344288394591     1.515031375039     1.007825032230
         H            3.858000210457     0.093461605409     0.941621375039     1.007825032230
         H            2.646560210457     1.354601605409     1.262791375039     1.007825032230

  Charge       = 0
  Multiplicity = 1
  Basis Set: AUG-CC-PVQZ
    Blend: AUG-CC-PVQZ
  Basis Set: (AUG-CC-PVQZ AUX)
    Blend: AUG-CC-PVQZ-JKFIT

    Orbital Energies [Eh]
    ---------------------

    Doubly Occupied:

       1A    -20.563271     2A    -20.550241     3A    -11.274672
       4A    -11.262680     5A     -1.362407     6A     -1.351595
       7A     -0.932045     8A     -0.918067     9A     -0.696807
      10A     -0.684750    11A     -0.626816    12A     -0.613880
      13A     -0.598703    14A     -0.588488    15A     -0.511661
      16A     -0.497354    17A     -0.459173    18A     -0.443967

  @DF-RHF Final Energy:  -230.20063396858856

   => Energetics <=

    Nuclear Repulsion Energy =            113.4156006645521302
    One-Electron Energy =                -539.3593096231975323
    Two-Electron Energy =                 195.7430749900568401
    Total Energy =                       -230.2006339685885621

  Dipole Moment: [D]
     X:     2.3761      Y:    -0.2466      Z:    -0.0297     Total:     2.3891

  Basis Set: (AUG-CC-PVQZ AUX)
    Blend: AUG-CC-PVQZ-RI
	 Reference Energy          =    -230.2006339685885621 [Eh]
	 Singles Energy            =      -0.0000000000000000 [Eh]
	 Same-Spin Energy          =      -0.2251658009097496 [Eh]
	 Opposite-Spin Energy      =      -0.8214003205901647 [Eh]
	 Correlation Energy        =      -1.0465661214999142 [Eh]
	 Total Energy              =    -231.2472000900884836 [Eh]

	 ================> DF-SCS-MP2 Energies <==================
	-----------------------------------------------------------
	 SCS Same-Spin Scale       =       0.3333333333333333 [-]
	 SCS Opposite-Spin Scale   =       1.2000000000000000 [-]
	 SCS Same-Spin Energy      =      -0.0750552669699165 [Eh]
	 SCS Opposite-Spin Energy  =      -0.9856803847081975 [Eh]
	 SCS Correlation Energy    =      -1.0607356516781141 [Eh]
	 SCS Total Energy          =    -231.2613696202666631 [Eh]
	-----------------------------------------------------------

*** Psi4 exiting successfully. Buy a developer a beer!
