                               Psi4 1.4a2.dev224

  ==> Input File <==

--------------------------------------------------------------------------
#Generated by lconvert.py for cbs job

memory 40 GB

molecule  {
0 1
  O       -0.6361350    -0.0232820     0.2805990
  H        0.3080970    -0.0470790     0.0764640
  C       -1.1520650    -1.3112880     0.0152600
  H       -2.2099450    -1.2962650     0.2639560
  H       -1.0566100    -1.5926710    -1.0361910
  H       -0.6748360    -2.0862730     0.6205110
--
0 1
  O        2.0480290    -0.1157160    -0.0045420
  H        2.5168180     0.4986690    -0.5742080
  C        2.5568630     0.0413030     1.3171750
  H        2.0032940    -0.6468930     1.9473060
  H        3.6158590    -0.2091360     1.3738980
  H        2.4044230     1.0519970     1.6950680
units angstrom
no_reorient
symmetry c1
}

set {
scf_type DF
mp2_type DF
e_convergence 7
reference rhf
}

energy('mp2/aug-cc-pv[tq]z', bsse_type='cp')
--------------------------------------------------------------------------

    Molecular point group: c1
  Charge       = 0
  Multiplicity = 1
  Basis Set: AUG-CC-PVTZ
    Blend: AUG-CC-PVTZ
  Basis Set: (AUG-CC-PVTZ AUX)
    Blend: AUG-CC-PVTZ-JKFIT
  @DF-RHF Final Energy:  -115.09203527729449
    Total Energy =                       -115.0920352772944852
  Basis Set: (AUG-CC-PVTZ AUX)
    Blend: AUG-CC-PVTZ-RI
	 Reference Energy          =    -115.0920352772944852 [Eh]
	 Singles Energy            =      -0.0000000000000000 [Eh]
	 Same-Spin Energy          =      -0.1057509484853609 [Eh]
	 Opposite-Spin Energy      =      -0.3647077194547484 [Eh]
	 Correlation Energy        =      -0.4704586679401094 [Eh]
	 Total Energy              =    -115.5624939452345927 [Eh]
	 SCS Total Energy          =    -115.5649348568019690 [Eh]
    Molecular point group: c1
  Basis Set: AUG-CC-PVQZ
    Blend: AUG-CC-PVQZ
  Basis Set: (AUG-CC-PVQZ AUX)
    Blend: AUG-CC-PVQZ-JKFIT
  @DF-RHF Final Energy:  -115.09954734891079
    Total Energy =                       -115.0995473489107894
  Basis Set: (AUG-CC-PVQZ AUX)
  @DF-RHF Final Energy:  -115.09215020007477
    Total Energy =                       -115.0921502000747694
  @DF-RHF Final Energy:  -115.09959530327755
    Total Energy =                       -115.0995953032775532
  @DF-RHF Final Energy:  -115.09190583878208
    Total Energy =                       -115.0919058387820826
  @DF-RHF Final Energy:  -115.09934896777753
    Total Energy =                       -115.0993489677775301
  @DF-RHF Final Energy:  -115.09180015566804
    Total Energy =                       -115.0918001556680395
  @DF-RHF Final Energy:  -115.09931679046790
    Total Energy =                       -115.0993167904678955
  Multiplicity = 1
  @DF-RHF Final Energy:  -230.18776678114722
    Total Energy =                       -230.1877667811472179
	 Singles Energy            =      -0.0000000000000000 [Eh]
	 Same-Spin Energy          =      -0.2145439857034967 [Eh]
	 Opposite-Spin Energy      =      -0.7330417154577162 [Eh]
	 Correlation Energy        =      -0.9475857011612129 [Eh]
	 Total Energy              =    -231.1353524823084342 [Eh]
	 SCS Total Energy          =    -231.1389315015976536 [Eh]
    Molecular point group: c1

    Geometry (in Angstrom), charge = 0, multiplicity = 1:

       Center              X                  Y                   Z               Mass
    ------------   -----------------  -----------------  -----------------  -----------------
         O           -1.360570413713     0.317448184979    -0.106672844674    15.994914619570
         H           -0.416338413713     0.293651184979    -0.310807844674     1.007825032230
         C           -1.876500413713    -0.970557815021    -0.372011844674    12.000000000000
         H           -2.934380413713    -0.955534815021    -0.123315844674     1.007825032230
         H           -1.781045413713    -1.251940815021    -1.423462844674     1.007825032230
         H           -1.399271413713    -1.745542815021     0.233239155326     1.007825032230
         O            1.323593586287     0.225014184979    -0.391813844674    15.994914619570
         H            1.792382586287     0.839399184979    -0.961479844674     1.007825032230
         C            1.832427586287     0.382033184979     0.929903155326    12.000000000000
         H            1.278858586287    -0.306162815021     1.560034155326     1.007825032230
         H            2.891423586287     0.131594184979     0.986626155326     1.007825032230
         H            1.679987586287     1.392727184979     1.307796155326     1.007825032230

  Charge       = 0
  Multiplicity = 1
  Basis Set: AUG-CC-PVQZ
    Blend: AUG-CC-PVQZ
  Basis Set: (AUG-CC-PVQZ AUX)
    Blend: AUG-CC-PVQZ-JKFIT

    Orbital Energies [Eh]
    ---------------------

    Doubly Occupied:

       1A    -20.583735     2A    -20.518392     3A    -11.284936
       4A    -11.247617     5A     -1.387566     6A     -1.325863
       7A     -0.945166     8A     -0.902040     9A     -0.724061
      10A     -0.675080    11A     -0.636454    12A     -0.611583
      13A     -0.595630    14A     -0.567672    15A     -0.530664
      16A     -0.488022    17A     -0.463457    18A     -0.421595

  @DF-RHF Final Energy:  -230.20272145867528

   => Energetics <=

    Nuclear Repulsion Energy =            131.8301368555178499
    One-Electron Energy =                -576.2466534710837323
    Two-Electron Energy =                 214.2137951568906260
    Total Energy =                       -230.2027214586752848

  Dipole Moment: [D]
     X:     3.1113      Y:    -0.0499      Z:     0.0533     Total:     3.1121

  Basis Set: (AUG-CC-PVQZ AUX)
    Blend: AUG-CC-PVQZ-RI
	 Reference Energy          =    -230.2027214586752848 [Eh]
	 Singles Energy            =      -0.0000000000000000 [Eh]
	 Same-Spin Energy          =      -0.2279659309244443 [Eh]
	 Opposite-Spin Energy      =      -0.8239938665306994 [Eh]
	 Correlation Energy        =      -1.0519597974551438 [Eh]
	 Total Energy              =    -231.2546812561304250 [Eh]

	 ================> DF-SCS-MP2 Energies <==================
	-----------------------------------------------------------
	 SCS Same-Spin Scale       =       0.3333333333333333 [-]
	 SCS Opposite-Spin Scale   =       1.2000000000000000 [-]
	 SCS Same-Spin Energy      =      -0.0759886436414814 [Eh]
	 SCS Opposite-Spin Energy  =      -0.9887926398368392 [Eh]
	 SCS Correlation Energy    =      -1.0647812834783206 [Eh]
	 SCS Total Energy          =    -231.2675027421535958 [Eh]
	-----------------------------------------------------------

*** Psi4 exiting successfully. Buy a developer a beer!
