                               Psi4 1.4a2.dev224

  ==> Input File <==

--------------------------------------------------------------------------
#Generated by lconvert.py for cbs job

memory 40 GB

molecule  {
0 1
  O       -0.6361350    -0.0232820     0.2805990
  H        0.3080970    -0.0470790     0.0764640
  C       -1.1520650    -1.3112880     0.0152600
  H       -2.2099450    -1.2962650     0.2639560
  H       -1.0566100    -1.5926710    -1.0361910
  H       -0.6748360    -2.0862730     0.6205110
--
0 1
  O        2.2412440    -0.1233380    -0.0135380
  H        2.7100330     0.4910470    -0.5832040
  C        2.7500780     0.0336810     1.3081800
  H        2.1965090    -0.6545150     1.9383100
  H        3.8090740    -0.2167580     1.3649030
  H        2.5976380     1.0443750     1.6860720
units angstrom
no_reorient
symmetry c1
}

set {
scf_type DF
mp2_type DF
e_convergence 7
reference rhf
}

energy('mp2/aug-cc-pv[tq]z', bsse_type='cp')
--------------------------------------------------------------------------

    Molecular point group: c1
  Charge       = 0
  Multiplicity = 1
  Basis Set: AUG-CC-PVTZ
    Blend: AUG-CC-PVTZ
  Basis Set: (AUG-CC-PVTZ AUX)
    Blend: AUG-CC-PVTZ-JKFIT
  @DF-RHF Final Energy:  -115.09203525903732
    Total Energy =                       -115.0920352590373170
  Basis Set: (AUG-CC-PVTZ AUX)
    Blend: AUG-CC-PVTZ-RI
	 Reference Energy          =    -115.0920352590373170 [Eh]
	 Singles Energy            =      -0.0000000000000000 [Eh]
	 Same-Spin Energy          =      -0.1057509493408189 [Eh]
	 Opposite-Spin Energy      =      -0.3647077330171285 [Eh]
	 Correlation Energy        =      -0.4704586823579474 [Eh]
	 Total Energy              =    -115.5624939413952603 [Eh]
	 SCS Total Energy          =    -115.5649348551048092 [Eh]
    Molecular point group: c1
  Basis Set: AUG-CC-PVQZ
    Blend: AUG-CC-PVQZ
  Basis Set: (AUG-CC-PVQZ AUX)
    Blend: AUG-CC-PVQZ-JKFIT
  @DF-RHF Final Energy:  -115.09954732961275
    Total Energy =                       -115.0995473296127471
  Basis Set: (AUG-CC-PVQZ AUX)
  @DF-RHF Final Energy:  -115.09212123801211
    Total Energy =                       -115.0921212380121119
  @DF-RHF Final Energy:  -115.09958720930172
    Total Energy =                       -115.0995872093017169
  @DF-RHF Final Energy:  -115.09188344158885
    Total Energy =                       -115.0918834415888483
  @DF-RHF Final Energy:  -115.09934415667043
    Total Energy =                       -115.0993441566704263
  @DF-RHF Final Energy:  -115.09180015574145
    Total Energy =                       -115.0918001557414527
  @DF-RHF Final Energy:  -115.09931679031722
    Total Energy =                       -115.0993167903172179
  Multiplicity = 1
  @DF-RHF Final Energy:  -230.18973403915345
    Total Energy =                       -230.1897340391534499
	 Singles Energy            =      -0.0000000000000000 [Eh]
	 Same-Spin Energy          =      -0.2136967002159924 [Eh]
	 Opposite-Spin Energy      =      -0.7321887256449084 [Eh]
	 Correlation Energy        =      -0.9458854258609009 [Eh]
	 Total Energy              =    -231.1356194650143436 [Eh]
	 SCS Total Energy          =    -231.1395927433326847 [Eh]
    Molecular point group: c1

    Geometry (in Angstrom), charge = 0, multiplicity = 1:

       Center              X                  Y                   Z               Mass
    ------------   -----------------  -----------------  -----------------  -----------------
         O           -1.457177913713     0.321259184979    -0.102175047755    15.994914619570
         H           -0.512945913713     0.297462184979    -0.306310047755     1.007825032230
         C           -1.973107913713    -0.966746815021    -0.367514047755    12.000000000000
         H           -3.030987913713    -0.951723815021    -0.118818047755     1.007825032230
         H           -1.877652913713    -1.248129815021    -1.418965047755     1.007825032230
         H           -1.495878913713    -1.741731815021     0.237736952245     1.007825032230
         O            1.420201086287     0.221203184979    -0.396312047755    15.994914619570
         H            1.888990086287     0.835588184979    -0.965978047755     1.007825032230
         C            1.929035086287     0.378222184979     0.925405952245    12.000000000000
         H            1.375466086287    -0.309973815021     1.555535952245     1.007825032230
         H            2.988031086287     0.127783184979     0.982128952245     1.007825032230
         H            1.776595086287     1.388916184979     1.303297952245     1.007825032230

  Charge       = 0
  Multiplicity = 1
  Basis Set: AUG-CC-PVQZ
    Blend: AUG-CC-PVQZ
  Basis Set: (AUG-CC-PVQZ AUX)
    Blend: AUG-CC-PVQZ-JKFIT

    Orbital Energies [Eh]
    ---------------------

    Doubly Occupied:

       1A    -20.579364     2A    -20.527182     3A    -11.282668
       4A    -11.251037     5A     -1.380653     6A     -1.332255
       7A     -0.942041     8A     -0.905379     9A     -0.715899
      10A     -0.673595    11A     -0.635533    12A     -0.610399
      13A     -0.599834    14A     -0.572681    15A     -0.526347
      16A     -0.486355    17A     -0.467607    18A     -0.427170

  @DF-RHF Final Energy:  -230.20472629208672

   => Energetics <=

    Nuclear Repulsion Energy =            129.1070560533323714
    One-Electron Energy =                -570.7915648633829733
    Two-Electron Energy =                 211.4797825179638835
    Total Energy =                       -230.2047262920867183

  Dipole Moment: [D]
     X:     2.9224      Y:    -0.1036      Z:     0.0357     Total:     2.9244

  Basis Set: (AUG-CC-PVQZ AUX)
    Blend: AUG-CC-PVQZ-RI
	 Reference Energy          =    -230.2047262920867183 [Eh]
	 Singles Energy            =      -0.0000000000000000 [Eh]
	 Same-Spin Energy          =      -0.2271069361010547 [Eh]
	 Opposite-Spin Energy      =      -0.8232442788264233 [Eh]
	 Correlation Energy        =      -1.0503512149274781 [Eh]
	 Total Energy              =    -231.2550775070141924 [Eh]

	 ================> DF-SCS-MP2 Energies <==================
	-----------------------------------------------------------
	 SCS Same-Spin Scale       =       0.3333333333333333 [-]
	 SCS Opposite-Spin Scale   =       1.2000000000000000 [-]
	 SCS Same-Spin Energy      =      -0.0757023120336849 [Eh]
	 SCS Opposite-Spin Energy  =      -0.9878931345917079 [Eh]
	 SCS Correlation Energy    =      -1.0635954466253927 [Eh]
	 SCS Total Energy          =    -231.2683217387121033 [Eh]
	-----------------------------------------------------------

*** Psi4 exiting successfully. Buy a developer a beer!
