                               Psi4 1.4a2.dev224

  ==> Input File <==

--------------------------------------------------------------------------
#Generated by lconvert.py for cbs job

memory 20 GB

molecule  {
0 1
  O      -0.636140   -0.023280    0.280600
  H       0.308100   -0.047080    0.076460
  C      -1.152060   -1.311290    0.015260
  H      -2.209940   -1.296270    0.263960
  H      -1.056610   -1.592670   -1.036190
  H      -0.674840   -2.086270    0.620510
--
0 1
  O       2.821290   -0.146220   -0.040540
  H       3.290080    0.468160   -0.610210
  C       3.330120    0.010800    1.281170
  H       2.776550   -0.677400    1.911300
  H       4.389120   -0.239640    1.337900
  H       3.177680    1.021490    1.659070
units angstrom
no_reorient
symmetry c1
}

set {
scf_type DF
mp2_type DF
e_convergence 7
reference rhf
}

energy('mp2/aug-cc-pv[tq]z', bsse_type='cp')
--------------------------------------------------------------------------

    Molecular point group: c1
  Charge       = 0
  Multiplicity = 1
  Basis Set: AUG-CC-PVTZ
    Blend: AUG-CC-PVTZ
  Basis Set: (AUG-CC-PVTZ AUX)
    Blend: AUG-CC-PVTZ-JKFIT
  @DF-RHF Final Energy:  -115.09203548258972
    Total Energy =                       -115.0920354825897221
  Basis Set: (AUG-CC-PVTZ AUX)
    Blend: AUG-CC-PVTZ-RI
	 Reference Energy          =    -115.0920354825897221 [Eh]
	 Singles Energy            =      -0.0000000000000000 [Eh]
	 Same-Spin Energy          =      -0.1057509358710408 [Eh]
	 Opposite-Spin Energy      =      -0.3647075736892605 [Eh]
	 Correlation Energy        =      -0.4704585095603013 [Eh]
	 Total Energy              =    -115.5624939921500243 [Eh]
	 SCS Total Energy          =    -115.5649348829738443 [Eh]
    Molecular point group: c1
  Basis Set: AUG-CC-PVQZ
    Blend: AUG-CC-PVQZ
  Basis Set: (AUG-CC-PVQZ AUX)
    Blend: AUG-CC-PVQZ-JKFIT
  @DF-RHF Final Energy:  -115.09954756594409
    Total Energy =                       -115.0995475659440928
  Basis Set: (AUG-CC-PVQZ AUX)
  @DF-RHF Final Energy:  -115.09209781812228
    Total Energy =                       -115.0920978181222836
  @DF-RHF Final Energy:  -115.09957340499400
    Total Energy =                       -115.0995734049940040
  @DF-RHF Final Energy:  -115.09184878355435
    Total Energy =                       -115.0918487835543544
  @DF-RHF Final Energy:  -115.09933296881874
    Total Energy =                       -115.0993329688187430
  @DF-RHF Final Energy:  -115.09179963503917
    Total Energy =                       -115.0917996350391661
  @DF-RHF Final Energy:  -115.09931625356636
    Total Energy =                       -115.0993162535663572
  Multiplicity = 1
  @DF-RHF Final Energy:  -230.18871656918725
    Total Energy =                       -230.1887165691872497
	 Singles Energy            =      -0.0000000000000000 [Eh]
	 Same-Spin Energy          =      -0.2123755649811882 [Eh]
	 Opposite-Spin Energy      =      -0.7307169140901398 [Eh]
	 Correlation Energy        =      -0.9430924790713281 [Eh]
	 Total Energy              =    -231.1318090482585887 [Eh]
	 SCS Total Energy          =    -231.1363687210891555 [Eh]
    Molecular point group: c1

    Geometry (in Angstrom), charge = 0, multiplicity = 1:

       Center              X                  Y                   Z               Mass
    ------------   -----------------  -----------------  -----------------  -----------------
         O           -1.747204789543     0.332702077440    -0.088671594152    15.994914619570
         H           -0.802964789543     0.308902077440    -0.292811594152     1.007825032230
         C           -2.263124789543    -0.955307922560    -0.354011594152    12.000000000000
         H           -3.321004789543    -0.940287922560    -0.105311594152     1.007825032230
         H           -2.167674789543    -1.236687922560    -1.405461594152     1.007825032230
         H           -1.785904789543    -1.730287922560     0.251238405848     1.007825032230
         O            1.710225210457     0.209762077440    -0.409811594152    15.994914619570
         H            2.179015210457     0.824142077440    -0.979481594152     1.007825032230
         C            2.219055210457     0.366782077440     0.911898405848    12.000000000000
         H            1.665485210457    -0.321417922560     1.542028405848     1.007825032230
         H            3.278055210457     0.116342077440     0.968628405848     1.007825032230
         H            2.066615210457     1.377472077440     1.289798405848     1.007825032230

  Charge       = 0
  Multiplicity = 1
  Basis Set: AUG-CC-PVQZ
    Blend: AUG-CC-PVQZ
  Basis Set: (AUG-CC-PVQZ AUX)
    Blend: AUG-CC-PVQZ-JKFIT

    Orbital Energies [Eh]
    ---------------------

    Doubly Occupied:

       1A    -20.570757     2A    -20.541126     3A    -11.278465
       4A    -11.257331     5A     -1.369958     6A     -1.343356
       7A     -0.936591     8A     -0.912126     9A     -0.704063
      10A     -0.677684    11A     -0.631767    12A     -0.607717
      13A     -0.604556    14A     -0.581642    15A     -0.518064
      16A     -0.490860    17A     -0.465396    18A     -0.436787

  @DF-RHF Final Energy:  -230.20368617851798

   => Energetics <=

    Nuclear Repulsion Energy =            122.4435768555429291
    One-Electron Energy =                -557.4380311201140330
    Two-Electron Energy =                 204.7907680860531343
    Total Energy =                       -230.2036861785179838

  Dipole Moment: [D]
     X:     2.5992      Y:    -0.1914      Z:     0.0009     Total:     2.6062

  Basis Set: (AUG-CC-PVQZ AUX)
    Blend: AUG-CC-PVQZ-RI
	 Reference Energy          =    -230.2036861785179838 [Eh]
	 Singles Energy            =      -0.0000000000000000 [Eh]
	 Same-Spin Energy          =      -0.2257881464578357 [Eh]
	 Opposite-Spin Energy      =      -0.8220311178338308 [Eh]
	 Correlation Energy        =      -1.0478192642916664 [Eh]
	 Total Energy              =    -231.2515054428096448 [Eh]

	 ================> DF-SCS-MP2 Energies <==================
	-----------------------------------------------------------
	 SCS Same-Spin Scale       =       0.3333333333333333 [-]
	 SCS Opposite-Spin Scale   =       1.2000000000000000 [-]
	 SCS Same-Spin Energy      =      -0.0752627154859452 [Eh]
	 SCS Opposite-Spin Energy  =      -0.9864373414005969 [Eh]
	 SCS Correlation Energy    =      -1.0617000568865422 [Eh]
	 SCS Total Energy          =    -231.2653862354045202 [Eh]
	-----------------------------------------------------------

*** Psi4 exiting successfully. Buy a developer a beer!
