                               Psi4 1.4a2.dev224

  ==> Input File <==

--------------------------------------------------------------------------
#Generated by lconvert.py for cbs job

memory 40 GB

molecule  {
0 1
  O       -0.6361350    -0.0232820     0.2805990
  H        0.3080970    -0.0470790     0.0764640
  C       -1.1520650    -1.3112880     0.0152600
  H       -2.2099450    -1.2962650     0.2639560
  H       -1.0566100    -1.5926710    -1.0361910
  H       -0.6748360    -2.0862730     0.6205110
--
0 1
  O        1.6613000    -0.1004600     0.0134630
  H        2.1300890     0.5139240    -0.5562030
  C        2.1701340     0.0565590     1.3351800
  H        1.6165650    -0.6316380     1.9653110
  H        3.2291300    -0.1938800     1.3919030
  H        2.0176940     1.0672530     1.7130730
units angstrom
no_reorient
symmetry c1
}

set {
scf_type DF
mp2_type DF
e_convergence 7
reference rhf
}

energy('mp2/aug-cc-pv[tq]z', bsse_type='cp')
--------------------------------------------------------------------------

    Molecular point group: c1
  Charge       = 0
  Multiplicity = 1
  Basis Set: AUG-CC-PVTZ
    Blend: AUG-CC-PVTZ
  Basis Set: (AUG-CC-PVTZ AUX)
    Blend: AUG-CC-PVTZ-JKFIT
  @DF-RHF Final Energy:  -115.09203530187195
    Total Energy =                       -115.0920353018719453
  Basis Set: (AUG-CC-PVTZ AUX)
    Blend: AUG-CC-PVTZ-RI
	 Reference Energy          =    -115.0920353018719453 [Eh]
	 Singles Energy            =      -0.0000000000000000 [Eh]
	 Same-Spin Energy          =      -0.1057509411802871 [Eh]
	 Opposite-Spin Energy      =      -0.3647077032927910 [Eh]
	 Correlation Energy        =      -0.4704586444730781 [Eh]
	 Total Energy              =    -115.5624939463450289 [Eh]
	 SCS Total Energy          =    -115.5649348595500499 [Eh]
    Molecular point group: c1
  Basis Set: AUG-CC-PVQZ
    Blend: AUG-CC-PVQZ
  Basis Set: (AUG-CC-PVQZ AUX)
    Blend: AUG-CC-PVQZ-JKFIT
  @DF-RHF Final Energy:  -115.09954737463508
    Total Energy =                       -115.0995473746350797
  Basis Set: (AUG-CC-PVQZ AUX)
  @DF-RHF Final Energy:  -115.09222726178804
    Total Energy =                       -115.0922272617880395
  @DF-RHF Final Energy:  -115.09961396930653
    Total Energy =                       -115.0996139693065317
  @DF-RHF Final Energy:  -115.09196338738697
    Total Energy =                       -115.0919633873869685
  @DF-RHF Final Energy:  -115.09936154407771
    Total Energy =                       -115.0993615440777091
  @DF-RHF Final Energy:  -115.09180015579051
    Total Energy =                       -115.0918001557905086
  @DF-RHF Final Energy:  -115.09931679039377
    Total Energy =                       -115.0993167903937717
  Multiplicity = 1
  @DF-RHF Final Energy:  -230.16686430452481
    Total Energy =                       -230.1668643045248075
	 Singles Energy            =      -0.0000000000000000 [Eh]
	 Same-Spin Energy          =      -0.2173079182387905 [Eh]
	 Opposite-Spin Energy      =      -0.7355706229264867 [Eh]
	 Correlation Energy        =      -0.9528785411652771 [Eh]
	 Total Energy              =    -231.1197428456900980 [Eh]
	 SCS Total Energy          =    -231.1219850247828447 [Eh]
    Molecular point group: c1

    Geometry (in Angstrom), charge = 0, multiplicity = 1:

       Center              X                  Y                   Z               Mass
    ------------   -----------------  -----------------  -----------------  -----------------
         O           -1.167205913713     0.309820216448    -0.115675344674    15.994914619570
         H           -0.222973913713     0.286023216448    -0.319810344674     1.007825032230
         C           -1.683135913713    -0.978185783552    -0.381014344674    12.000000000000
         H           -2.741015913713    -0.963162783552    -0.132318344674     1.007825032230
         H           -1.587680913713    -1.259568783552    -1.432465344674     1.007825032230
         H           -1.205906913713    -1.753170783552     0.224236655326     1.007825032230
         O            1.130229086287     0.232642216448    -0.382811344674    15.994914619570
         H            1.599018086287     0.847026216448    -0.952477344674     1.007825032230
         C            1.639063086287     0.389661216448     0.938905655326    12.000000000000
         H            1.085494086287    -0.298535783552     1.569036655326     1.007825032230
         H            2.698059086287     0.139222216448     0.995628655326     1.007825032230
         H            1.486623086287     1.400355216448     1.316798655326     1.007825032230

  Charge       = 0
  Multiplicity = 1
  Basis Set: AUG-CC-PVQZ
    Blend: AUG-CC-PVQZ
  Basis Set: (AUG-CC-PVQZ AUX)
    Blend: AUG-CC-PVQZ-JKFIT

    Orbital Energies [Eh]
    ---------------------

    Doubly Occupied:

       1A    -20.596402     2A    -20.487744     3A    -11.292055
       4A    -11.237218     5A     -1.415306     6A     -1.305626
       7A     -0.955938     8A     -0.894295     9A     -0.755755
      10A     -0.689420    11A     -0.644408    12A     -0.604465
      13A     -0.582905    14A     -0.554441    15A     -0.539908
      16A     -0.497849    17A     -0.439825    18A     -0.403722

  @DF-RHF Final Energy:  -230.18173216986233

   => Energetics <=

    Nuclear Repulsion Energy =            138.3569379533985284
    One-Electron Energy =                -589.2827746642740294
    Two-Electron Energy =                 220.7441045410131721
    Total Energy =                       -230.1817321698623289

  Dipole Moment: [D]
     X:     3.7113      Y:     0.1287      Z:     0.1085     Total:     3.7152

  Basis Set: (AUG-CC-PVQZ AUX)
    Blend: AUG-CC-PVQZ-RI
	 Reference Energy          =    -230.1817321698623289 [Eh]
	 Singles Energy            =      -0.0000000000000000 [Eh]
	 Same-Spin Energy          =      -0.2307740891174043 [Eh]
	 Opposite-Spin Energy      =      -0.8263604748427793 [Eh]
	 Correlation Energy        =      -1.0571345639601837 [Eh]
	 Total Energy              =    -231.2388667338225048 [Eh]

	 ================> DF-SCS-MP2 Energies <==================
	-----------------------------------------------------------
	 SCS Same-Spin Scale       =       0.3333333333333333 [-]
	 SCS Opposite-Spin Scale   =       1.2000000000000000 [-]
	 SCS Same-Spin Energy      =      -0.0769246963724681 [Eh]
	 SCS Opposite-Spin Energy  =      -0.9916325698113351 [Eh]
	 SCS Correlation Energy    =      -1.0685572661838032 [Eh]
	 SCS Total Energy          =    -231.2502894360461312 [Eh]
	-----------------------------------------------------------

*** Psi4 exiting successfully. Buy a developer a beer!
