                               Psi4 1.4a2.dev224

  ==> Input File <==

--------------------------------------------------------------------------
#Generated by lconvert.py for cbs job

memory 40 GB

molecule  {
0 1
  O       -0.6361350    -0.0232820     0.2805990
  H        0.3080970    -0.0470790     0.0764640
  C       -1.1520650    -1.3112880     0.0152600
  H       -2.2099450    -1.2962650     0.2639560
  H       -1.0566100    -1.5926710    -1.0361910
  H       -0.6748360    -2.0862730     0.6205110
--
0 1
  O        2.3380010    -0.1271550    -0.0180430
  H        2.8067900     0.4872300    -0.5877080
  C        2.8468350     0.0298640     1.3036750
  H        2.2932660    -0.6583320     1.9338060
  H        3.9058310    -0.2205750     1.3603980
  H        2.6943950     1.0405580     1.6815670
units angstrom
no_reorient
symmetry c1
}

set {
scf_type DF
mp2_type DF
e_convergence 7
reference rhf
}

energy('mp2/aug-cc-pv[tq]z', bsse_type='cp')
--------------------------------------------------------------------------

    Molecular point group: c1
  Charge       = 0
  Multiplicity = 1
  Basis Set: AUG-CC-PVTZ
    Blend: AUG-CC-PVTZ
  Basis Set: (AUG-CC-PVTZ AUX)
    Blend: AUG-CC-PVTZ-JKFIT
  @DF-RHF Final Energy:  -115.09203527563544
    Total Energy =                       -115.0920352756354390
  Basis Set: (AUG-CC-PVTZ AUX)
    Blend: AUG-CC-PVTZ-RI
	 Reference Energy          =    -115.0920352756354390 [Eh]
	 Singles Energy            =      -0.0000000000000000 [Eh]
	 Same-Spin Energy          =      -0.1057509440301994 [Eh]
	 Opposite-Spin Energy      =      -0.3647077211064397 [Eh]
	 Correlation Energy        =      -0.4704586651366391 [Eh]
	 Total Energy              =    -115.5624939407720717 [Eh]
	 SCS Total Energy          =    -115.5649348556399048 [Eh]
    Molecular point group: c1
  Basis Set: AUG-CC-PVQZ
    Blend: AUG-CC-PVQZ
  Basis Set: (AUG-CC-PVQZ AUX)
    Blend: AUG-CC-PVQZ-JKFIT
  @DF-RHF Final Energy:  -115.09954734731862
    Total Energy =                       -115.0995473473186195
  Basis Set: (AUG-CC-PVQZ AUX)
  @DF-RHF Final Energy:  -115.09211313755917
    Total Energy =                       -115.0921131375591671
  @DF-RHF Final Energy:  -115.09958468641884
    Total Energy =                       -115.0995846864188366
  @DF-RHF Final Energy:  -115.09187525982875
    Total Energy =                       -115.0918752598287540
  @DF-RHF Final Energy:  -115.09934201150706
    Total Energy =                       -115.0993420115070620
  @DF-RHF Final Energy:  -115.09180015575818
    Total Energy =                       -115.0918001557581789
  @DF-RHF Final Energy:  -115.09931679040439
    Total Energy =                       -115.0993167904043872
  Multiplicity = 1
  @DF-RHF Final Energy:  -230.18997181543406
    Total Energy =                       -230.1899718154340633
	 Singles Energy            =      -0.0000000000000000 [Eh]
	 Same-Spin Energy          =      -0.2133705430571100 [Eh]
	 Opposite-Spin Energy      =      -0.7318490215854434 [Eh]
	 Correlation Energy        =      -0.9452195646425534 [Eh]
	 Total Energy              =    -231.1351913800766056 [Eh]
	 SCS Total Energy          =    -231.1393141556889645 [Eh]
    Molecular point group: c1

    Geometry (in Angstrom), charge = 0, multiplicity = 1:

       Center              X                  Y                   Z               Mass
    ------------   -----------------  -----------------  -----------------  -----------------
         O           -1.505556413713     0.323167684979    -0.099922579224    15.994914619570
         H           -0.561324413713     0.299370684979    -0.304057579224     1.007825032230
         C           -2.021486413713    -0.964838315021    -0.365261579224    12.000000000000
         H           -3.079366413713    -0.949815315021    -0.116565579224     1.007825032230
         H           -1.926031413713    -1.246221315021    -1.416712579224     1.007825032230
         H           -1.544257413713    -1.739823315021     0.239989420776     1.007825032230
         O            1.468579586287     0.219294684979    -0.398564579224    15.994914619570
         H            1.937368586287     0.833679684979    -0.968229579224     1.007825032230
         C            1.977413586287     0.376313684979     0.923153420776    12.000000000000
         H            1.423844586287    -0.311882315021     1.553284420776     1.007825032230
         H            3.036409586287     0.125874684979     0.979876420776     1.007825032230
         H            1.824973586287     1.387007684979     1.301045420776     1.007825032230

  Charge       = 0
  Multiplicity = 1
  Basis Set: AUG-CC-PVQZ
    Blend: AUG-CC-PVQZ
  Basis Set: (AUG-CC-PVQZ AUX)
    Blend: AUG-CC-PVQZ-JKFIT

    Orbital Energies [Eh]
    ---------------------

    Doubly Occupied:

       1A    -20.577522     2A    -20.530548     3A    -11.281744
       4A    -11.252434     5A     -1.378074     6A     -1.334808
       7A     -0.940806     8A     -0.906821     9A     -0.712920
      10A     -0.673769    11A     -0.635009    12A     -0.609445
      13A     -0.601544    14A     -0.574719    15A     -0.524511
      16A     -0.486537    17A     -0.468183    18A     -0.429388

  @DF-RHF Final Energy:  -230.20496675351328

   => Energetics <=

    Nuclear Repulsion Energy =            127.8509638553851744
    One-Electron Energy =                -568.2742912670453279
    Two-Electron Energy =                 210.2183606581468496
    Total Energy =                       -230.2049667535132755

  Dipole Moment: [D]
     X:     2.8473      Y:    -0.1246      Z:     0.0283     Total:     2.8501

  Basis Set: (AUG-CC-PVQZ AUX)
    Blend: AUG-CC-PVQZ-RI
	 Reference Energy          =    -230.2049667535132755 [Eh]
	 Singles Energy            =      -0.0000000000000000 [Eh]
	 Same-Spin Energy          =      -0.2267779603189568 [Eh]
	 Opposite-Spin Energy      =      -0.8229522295695555 [Eh]
	 Correlation Energy        =      -1.0497301898885123 [Eh]
	 Total Energy              =    -231.2546969434017967 [Eh]

	 ================> DF-SCS-MP2 Energies <==================
	-----------------------------------------------------------
	 SCS Same-Spin Scale       =       0.3333333333333333 [-]
	 SCS Opposite-Spin Scale   =       1.2000000000000000 [-]
	 SCS Same-Spin Energy      =      -0.0755926534396522 [Eh]
	 SCS Opposite-Spin Energy  =      -0.9875426754834665 [Eh]
	 SCS Correlation Energy    =      -1.0631353289231187 [Eh]
	 SCS Total Energy          =    -231.2681020824363998 [Eh]
	-----------------------------------------------------------

*** Psi4 exiting successfully. Buy a developer a beer!
