                               Psi4 1.4a2.dev224

  ==> Input File <==

--------------------------------------------------------------------------
#Generated by lconvert.py for cbs job

memory 40 GB

molecule  {
0 1
  O       -0.7069200     0.0458300     0.0063860
  H        0.2656240     0.0717100     0.0013390
  C       -1.0766710    -1.3139160     0.0016140
  H       -2.1629240    -1.3631960     0.0058650
  H       -0.7234060    -1.8446520    -0.8877430
  H       -0.7160800    -1.8528210     0.8830800
--
0 1
  N        2.1336990    -0.0326460    -0.0031750
  H        2.5043180     0.4751300     0.7899570
  H        2.5044420     0.4316930    -0.8224340
  C        2.6114510    -1.4186790     0.0342860
  H        2.2195660    -1.9527050    -0.8279060
  H        3.6981620    -1.5254150     0.0373210
  H        2.2193240    -1.9054100     0.9239180
units angstrom
no_reorient
symmetry c1
}

set {
scf_type DF
mp2_type DF
e_convergence 7
reference rhf
}

energy('mp2/aug-cc-pv[tq]z', bsse_type='cp')
--------------------------------------------------------------------------

    Molecular point group: c1
  Charge       = 0
  Multiplicity = 1
  Basis Set: AUG-CC-PVTZ
    Blend: AUG-CC-PVTZ
  Basis Set: (AUG-CC-PVTZ AUX)
    Blend: AUG-CC-PVTZ-JKFIT
  @DF-RHF Final Energy:   -95.25546018362282
    Total Energy =                        -95.2554601836228159
  Basis Set: (AUG-CC-PVTZ AUX)
    Blend: AUG-CC-PVTZ-RI
	 Reference Energy          =     -95.2554601836228159 [Eh]
	 Singles Energy            =      -0.0000000000000000 [Eh]
	 Same-Spin Energy          =      -0.0953903163057279 [Eh]
	 Opposite-Spin Energy      =      -0.3516697906935403 [Eh]
	 Correlation Energy        =      -0.4470601069992682 [Eh]
	 Total Energy              =     -95.7025202906220898 [Eh]
	 SCS Total Energy          =     -95.7092607045569679 [Eh]
    Molecular point group: c1
  Basis Set: AUG-CC-PVQZ
    Blend: AUG-CC-PVQZ
  Basis Set: (AUG-CC-PVQZ AUX)
    Blend: AUG-CC-PVQZ-JKFIT
  @DF-RHF Final Energy:   -95.26144217898296
    Total Energy =                        -95.2614421789829606
  Basis Set: (AUG-CC-PVQZ AUX)
  @DF-RHF Final Energy:   -95.25553464067707
    Total Energy =                        -95.2555346406770695
  @DF-RHF Final Energy:   -95.26147069349199
    Total Energy =                        -95.2614706934919866
  @DF-RHF Final Energy:  -115.09143077339758
    Total Energy =                       -115.0914307733975761
  @DF-RHF Final Energy:  -115.09886311352061
    Total Energy =                       -115.0988631135206077
  @DF-RHF Final Energy:  -115.09132124749480
    Total Energy =                       -115.0913212474948040
  @DF-RHF Final Energy:  -115.09882729621977
    Total Energy =                       -115.0988272962197669
  Multiplicity = 1
  @DF-RHF Final Energy:  -210.35299270846548
    Total Energy =                       -210.3529927084654787
	 Singles Energy            =      -0.0000000000000000 [Eh]
	 Same-Spin Energy          =      -0.2048452753967206 [Eh]
	 Opposite-Spin Energy      =      -0.7210973859546495 [Eh]
	 Correlation Energy        =      -0.9259426613513702 [Eh]
	 Total Energy              =    -211.2789353698168497 [Eh]
	 SCS Total Energy          =    -211.2865913300766181 [Eh]
    Molecular point group: c1

    Geometry (in Angstrom), charge = 0, multiplicity = 1:

       Center              X                  Y                   Z               Mass
    ------------   -----------------  -----------------  -----------------  -----------------
         O           -1.450150390505     0.712645128977    -0.003011570240    15.994914619570
         H           -0.477606390505     0.738525128977    -0.008058570240     1.007825032230
         C           -1.819901390505    -0.647100871023    -0.007783570240    12.000000000000
         H           -2.906154390505    -0.696380871023    -0.003532570240     1.007825032230
         H           -1.466636390505    -1.177836871023    -0.897140570240     1.007825032230
         H           -1.459310390505    -1.186005871023     0.873682429760     1.007825032230
         N            1.390468609495     0.634169128977    -0.012572570240    14.003074004430
         H            1.761087609495     1.141945128977     0.780559429760     1.007825032230
         H            1.761211609495     1.098508128977    -0.831831570240     1.007825032230
         C            1.868220609495    -0.751863871023     0.024888429760    12.000000000000
         H            1.476335609495    -1.285889871023    -0.837303570240     1.007825032230
         H            2.954931609495    -0.858599871023     0.027923429760     1.007825032230
         H            1.476093609495    -1.238594871023     0.914520429760     1.007825032230

  Charge       = 0
  Multiplicity = 1
  Basis Set: AUG-CC-PVQZ
    Blend: AUG-CC-PVQZ
  Basis Set: (AUG-CC-PVQZ AUX)
    Blend: AUG-CC-PVQZ-JKFIT

    Orbital Energies [Eh]
    ---------------------

    Doubly Occupied:

       1A    -20.513101     2A    -15.564066     3A    -11.257791
       4A    -11.246781     5A     -1.321888     6A     -1.197168
       7A     -0.918568     8A     -0.898065     9A     -0.686792
      10A     -0.671263    11A     -0.623184    12A     -0.593612
      13A     -0.576360    14A     -0.564966    15A     -0.537802
      16A     -0.483127    17A     -0.416922    18A     -0.416361

  @DF-RHF Final Energy:  -210.36638350887466

   => Energetics <=

    Nuclear Repulsion Energy =            132.7732991578337476
    One-Electron Energy =                -549.3037253257703014
    Two-Electron Energy =                 206.1640426590618631
    Total Energy =                       -210.3663835088746623

  Dipole Moment: [D]
     X:     3.5619      Y:    -1.2290      Z:    -0.0121     Total:     3.7680

  Basis Set: (AUG-CC-PVQZ AUX)
    Blend: AUG-CC-PVQZ-RI
	 Reference Energy          =    -210.3663835088746623 [Eh]
	 Singles Energy            =      -0.0000000000000000 [Eh]
	 Same-Spin Energy          =      -0.2172424521592782 [Eh]
	 Opposite-Spin Energy      =      -0.8068345591660625 [Eh]
	 Correlation Energy        =      -1.0240770113253408 [Eh]
	 Total Energy              =    -211.3904605202000084 [Eh]

	 ================> DF-SCS-MP2 Energies <==================
	-----------------------------------------------------------
	 SCS Same-Spin Scale       =       0.3333333333333333 [-]
	 SCS Opposite-Spin Scale   =       1.2000000000000000 [-]
	 SCS Same-Spin Energy      =      -0.0724141507197594 [Eh]
	 SCS Opposite-Spin Energy  =      -0.9682014709992750 [Eh]
	 SCS Correlation Energy    =      -1.0406156217190343 [Eh]
	 SCS Total Energy          =    -211.4069991305937037 [Eh]
	-----------------------------------------------------------

*** Psi4 exiting successfully. Buy a developer a beer!
