                               Psi4 1.4a2.dev224

  ==> Input File <==

--------------------------------------------------------------------------
#Generated by lconvert.py for cbs job

memory 20 GB

molecule  {
0 1
  O      -0.706920    0.045830    0.006390
  H       0.265620    0.071710    0.001340
  C      -1.076670   -1.313920    0.001610
  H      -2.162920   -1.363200    0.005870
  H      -0.723410   -1.844650   -0.887740
  H      -0.716080   -1.852820    0.883080
--
0 1
  N       2.821900   -0.071090   -0.004840
  H       3.192520    0.436690    0.788290
  H       3.192640    0.393250   -0.824100
  C       3.299650   -1.457120    0.032620
  H       2.907770   -1.991150   -0.829570
  H       4.386360   -1.563860    0.035660
  H       2.907530   -1.943850    0.922260
units angstrom
no_reorient
symmetry c1
}

set {
scf_type DF
mp2_type DF
e_convergence 7
reference rhf
}

energy('mp2/aug-cc-pv[tq]z', bsse_type='cp')
--------------------------------------------------------------------------

    Molecular point group: c1
  Charge       = 0
  Multiplicity = 1
  Basis Set: AUG-CC-PVTZ
    Blend: AUG-CC-PVTZ
  Basis Set: (AUG-CC-PVTZ AUX)
    Blend: AUG-CC-PVTZ-JKFIT
  @DF-RHF Final Energy:   -95.25546021700808
    Total Energy =                        -95.2554602170080784
  Basis Set: (AUG-CC-PVTZ AUX)
    Blend: AUG-CC-PVTZ-RI
	 Reference Energy          =     -95.2554602170080784 [Eh]
	 Singles Energy            =      -0.0000000000000000 [Eh]
	 Same-Spin Energy          =      -0.0953903280444906 [Eh]
	 Opposite-Spin Energy      =      -0.3516697655517550 [Eh]
	 Correlation Energy        =      -0.4470600935962455 [Eh]
	 Total Energy              =     -95.7025203106043278 [Eh]
	 SCS Total Energy          =     -95.7092607116850189 [Eh]
    Molecular point group: c1
  Basis Set: AUG-CC-PVQZ
    Blend: AUG-CC-PVQZ
  Basis Set: (AUG-CC-PVQZ AUX)
    Blend: AUG-CC-PVQZ-JKFIT
  @DF-RHF Final Energy:   -95.26144221481810
    Total Energy =                        -95.2614422148181035
  Basis Set: (AUG-CC-PVQZ AUX)
  @DF-RHF Final Energy:   -95.25549190221976
    Total Energy =                        -95.2554919022197595
  @DF-RHF Final Energy:   -95.26145771562020
    Total Energy =                        -95.2614577156201960
  @DF-RHF Final Energy:  -115.09137976262546
    Total Energy =                       -115.0913797626254649
  @DF-RHF Final Energy:  -115.09884821639797
    Total Energy =                       -115.0988482163979683
  @DF-RHF Final Energy:  -115.09132160096951
    Total Energy =                       -115.0913216009695077
  @DF-RHF Final Energy:  -115.09882766018532
    Total Energy =                       -115.0988276601853215
  Multiplicity = 1
  @DF-RHF Final Energy:  -210.35291681404163
    Total Energy =                       -210.3529168140416346
	 Singles Energy            =      -0.0000000000000000 [Eh]
	 Same-Spin Energy          =      -0.2024650952991149 [Eh]
	 Opposite-Spin Energy      =      -0.7183645999274469 [Eh]
	 Correlation Energy        =      -0.9208296952265618 [Eh]
	 Total Energy              =    -211.2737465092681930 [Eh]
	 SCS Total Energy          =    -211.2824426990542861 [Eh]
    Molecular point group: c1

    Geometry (in Angstrom), charge = 0, multiplicity = 1:

       Center              X                  Y                   Z               Mass
    ------------   -----------------  -----------------  -----------------  -----------------
         O           -1.788881907192     0.731567314960    -0.002188409936    15.994914619570
         H           -0.816341907192     0.757447314960    -0.007238409936     1.007825032230
         C           -2.158631907192    -0.628182685040    -0.006968409936    12.000000000000
         H           -3.244881907192    -0.677462685040    -0.002708409936     1.007825032230
         H           -1.805371907192    -1.158912685040    -0.896318409936     1.007825032230
         H           -1.798041907192    -1.167082685040     0.874501590064     1.007825032230
         N            1.739938092808     0.614647314960    -0.013418409936    14.003074004430
         H            2.110558092808     1.122427314960     0.779711590064     1.007825032230
         H            2.110678092808     1.078987314960    -0.832678409936     1.007825032230
         C            2.217688092808    -0.771382685040     0.024041590064    12.000000000000
         H            1.825808092808    -1.305412685040    -0.838148409936     1.007825032230
         H            3.304398092808    -0.878122685040     0.027081590064     1.007825032230
         H            1.825568092808    -1.258112685040     0.913681590064     1.007825032230

  Charge       = 0
  Multiplicity = 1
  Basis Set: AUG-CC-PVQZ
    Blend: AUG-CC-PVQZ
  Basis Set: (AUG-CC-PVQZ AUX)
    Blend: AUG-CC-PVQZ-JKFIT

    Orbital Energies [Eh]
    ---------------------

    Doubly Occupied:

       1A    -20.536248     2A    -15.554784     3A    -11.255324
       4A    -11.251504     5A     -1.338434     6A     -1.185460
       7A     -0.910095     8A     -0.907968     9A     -0.676565
      10A     -0.673537    11A     -0.618060    12A     -0.604602
      13A     -0.578526    14A     -0.569477    15A     -0.530535
      16A     -0.487319    17A     -0.432105    18A     -0.411533

  @DF-RHF Final Energy:  -210.36636175633643

   => Energetics <=

    Nuclear Repulsion Energy =            124.4713226064416176
    One-Electron Energy =                -532.6312106702133633
    Two-Electron Energy =                 197.7935263074353145
    Total Energy =                       -210.3663617563364312

  Dipole Moment: [D]
     X:     3.0921      Y:    -1.3169      Z:    -0.0125     Total:     3.3608

  Basis Set: (AUG-CC-PVQZ AUX)
    Blend: AUG-CC-PVQZ-RI
	 Reference Energy          =    -210.3663617563364312 [Eh]
	 Singles Energy            =      -0.0000000000000000 [Eh]
	 Same-Spin Energy          =      -0.2148627187917086 [Eh]
	 Opposite-Spin Energy      =      -0.8045005065017699 [Eh]
	 Correlation Energy        =      -1.0193632252934783 [Eh]
	 Total Energy              =    -211.3857249816299202 [Eh]

	 ================> DF-SCS-MP2 Energies <==================
	-----------------------------------------------------------
	 SCS Same-Spin Scale       =       0.3333333333333333 [-]
	 SCS Opposite-Spin Scale   =       1.2000000000000000 [-]
	 SCS Same-Spin Energy      =      -0.0716209062639029 [Eh]
	 SCS Opposite-Spin Energy  =      -0.9654006078021238 [Eh]
	 SCS Correlation Energy    =      -1.0370215140660266 [Eh]
	 SCS Total Energy          =    -211.4033832704024576 [Eh]
	-----------------------------------------------------------

*** Psi4 exiting successfully. Buy a developer a beer!
