                               Psi4 1.4a2.dev224

  ==> Input File <==

--------------------------------------------------------------------------
#Generated by lconvert.py for cbs job

memory 40 GB

molecule  {
0 1
  O       -0.7069200     0.0458300     0.0063860
  H        0.2656240     0.0717100     0.0013390
  C       -1.0766710    -1.3139160     0.0016140
  H       -2.1629240    -1.3631960     0.0058650
  H       -0.7234060    -1.8446520    -0.8877430
  H       -0.7160800    -1.8528210     0.8830800
--
0 1
  N        2.0353840    -0.0271540    -0.0029380
  H        2.4060040     0.4806230     0.7901950
  H        2.4061270     0.4371850    -0.8221960
  C        2.5131360    -1.4131870     0.0345240
  H        2.1212520    -1.9472130    -0.8276680
  H        3.5998480    -1.5199220     0.0375580
  H        2.1210100    -1.8999170     0.9241560
units angstrom
no_reorient
symmetry c1
}

set {
scf_type DF
mp2_type DF
e_convergence 7
reference rhf
}

energy('mp2/aug-cc-pv[tq]z', bsse_type='cp')
--------------------------------------------------------------------------

    Molecular point group: c1
  Charge       = 0
  Multiplicity = 1
  Basis Set: AUG-CC-PVTZ
    Blend: AUG-CC-PVTZ
  Basis Set: (AUG-CC-PVTZ AUX)
    Blend: AUG-CC-PVTZ-JKFIT
  @DF-RHF Final Energy:   -95.25546016730031
    Total Energy =                        -95.2554601673003134
  Basis Set: (AUG-CC-PVTZ AUX)
    Blend: AUG-CC-PVTZ-RI
	 Reference Energy          =     -95.2554601673003134 [Eh]
	 Singles Energy            =      -0.0000000000000000 [Eh]
	 Same-Spin Energy          =      -0.0953903183715742 [Eh]
	 Opposite-Spin Energy      =      -0.3516698021120630 [Eh]
	 Correlation Energy        =      -0.4470601204836372 [Eh]
	 Total Energy              =     -95.7025202877839547 [Eh]
	 SCS Total Energy          =     -95.7092607026253148 [Eh]
    Molecular point group: c1
  Basis Set: AUG-CC-PVQZ
    Blend: AUG-CC-PVQZ
  Basis Set: (AUG-CC-PVQZ AUX)
    Blend: AUG-CC-PVQZ-JKFIT
  @DF-RHF Final Energy:   -95.26144216173397
    Total Energy =                        -95.2614421617339673
  Basis Set: (AUG-CC-PVQZ AUX)
  @DF-RHF Final Energy:   -95.25554675732809
    Total Energy =                        -95.2555467573280907
  @DF-RHF Final Energy:   -95.26147282503133
    Total Energy =                        -95.2614728250313334
  @DF-RHF Final Energy:  -115.09144254143183
    Total Energy =                       -115.0914425414318316
  @DF-RHF Final Energy:  -115.09886552033103
    Total Energy =                       -115.0988655203310316
  @DF-RHF Final Energy:  -115.09132124744551
    Total Energy =                       -115.0913212474455065
  @DF-RHF Final Energy:  -115.09882729616841
    Total Energy =                       -115.0988272961684089
  Multiplicity = 1
  @DF-RHF Final Energy:  -210.35124347643591
    Total Energy =                       -210.3512434764359114
	 Singles Energy            =      -0.0000000000000000 [Eh]
	 Same-Spin Energy          =      -0.2054653212082341 [Eh]
	 Opposite-Spin Energy      =      -0.7217482784065954 [Eh]
	 Correlation Energy        =      -0.9272135996148294 [Eh]
	 Total Energy              =    -211.2784570760507279 [Eh]
	 SCS Total Energy          =    -211.2858298509265751 [Eh]
    Molecular point group: c1

    Geometry (in Angstrom), charge = 0, multiplicity = 1:

       Center              X                  Y                   Z               Mass
    ------------   -----------------  -----------------  -----------------  -----------------
         O           -1.401759927035     0.709941925095    -0.003128475550    15.994914619570
         H           -0.429215927035     0.735821925095    -0.008175475550     1.007825032230
         C           -1.771510927035    -0.649804074905    -0.007900475550    12.000000000000
         H           -2.857763927035    -0.699084074905    -0.003649475550     1.007825032230
         H           -1.418245927035    -1.180540074905    -0.897257475550     1.007825032230
         H           -1.410919927035    -1.188709074905     0.873565524450     1.007825032230
         N            1.340544072965     0.636957925095    -0.012452475550    14.003074004430
         H            1.711164072965     1.144734925095     0.780680524450     1.007825032230
         H            1.711287072965     1.101296925095    -0.831710475550     1.007825032230
         C            1.818296072965    -0.749075074905     0.025009524450    12.000000000000
         H            1.426412072965    -1.283101074905    -0.837182475550     1.007825032230
         H            2.905008072965    -0.855810074905     0.028043524450     1.007825032230
         H            1.426170072965    -1.235805074905     0.914641524450     1.007825032230

  Charge       = 0
  Multiplicity = 1
  Basis Set: AUG-CC-PVQZ
    Blend: AUG-CC-PVQZ
  Basis Set: (AUG-CC-PVQZ AUX)
    Blend: AUG-CC-PVQZ-JKFIT

    Orbital Energies [Eh]
    ---------------------

    Doubly Occupied:

       1A    -20.507375     2A    -15.565728     3A    -11.259048
       4A    -11.244931     5A     -1.318528     6A     -1.199872
       7A     -0.920605     8A     -0.895942     9A     -0.689099
      10A     -0.673343    11A     -0.623384    12A     -0.591281
      13A     -0.577246    14A     -0.562116    15A     -0.539324
      16A     -0.483905    17A     -0.414925    18A     -0.413416

  @DF-RHF Final Energy:  -210.36461284341209

   => Energetics <=

    Nuclear Repulsion Energy =            134.2343260558047859
    One-Electron Energy =                -552.2377397194953801
    Two-Electron Energy =                 207.6388008202785045
    Total Energy =                       -210.3646128434120897

  Dipole Moment: [D]
     X:     3.6660      Y:    -1.2090      Z:    -0.0121     Total:     3.8603

  Basis Set: (AUG-CC-PVQZ AUX)
    Blend: AUG-CC-PVQZ-RI
	 Reference Energy          =    -210.3646128434120897 [Eh]
	 Singles Energy            =      -0.0000000000000000 [Eh]
	 Same-Spin Energy          =      -0.2178702689890797 [Eh]
	 Opposite-Spin Energy      =      -0.8074547760967709 [Eh]
	 Correlation Energy        =      -1.0253250450858507 [Eh]
	 Total Energy              =    -211.3899378884979399 [Eh]

	 ================> DF-SCS-MP2 Energies <==================
	-----------------------------------------------------------
	 SCS Same-Spin Scale       =       0.3333333333333333 [-]
	 SCS Opposite-Spin Scale   =       1.2000000000000000 [-]
	 SCS Same-Spin Energy      =      -0.0726234229963599 [Eh]
	 SCS Opposite-Spin Energy  =      -0.9689457313161249 [Eh]
	 SCS Correlation Energy    =      -1.0415691543124848 [Eh]
	 SCS Total Energy          =    -211.4061819977245875 [Eh]
	-----------------------------------------------------------

*** Psi4 exiting successfully. Buy a developer a beer!
