                               Psi4 1.4a2.dev224

  ==> Input File <==

--------------------------------------------------------------------------
#Generated by lconvert.py for cbs job

memory 40 GB

molecule  {
0 1
  O       -0.7069200     0.0458300     0.0063860
  H        0.2656240     0.0717100     0.0013390
  C       -1.0766710    -1.3139160     0.0016140
  H       -2.1629240    -1.3631960     0.0058650
  H       -0.7234060    -1.8446520    -0.8877430
  H       -0.7160800    -1.8528210     0.8830800
--
0 1
  N        1.6420270    -0.0051800    -0.0019870
  H        2.0126460     0.5025970     0.7911450
  H        2.0127690     0.4591590    -0.8212460
  C        2.1197790    -1.3912130     0.0354740
  H        1.7278940    -1.9252380    -0.8267170
  H        3.2064900    -1.4979480     0.0385090
  H        1.7276520    -1.8779430     0.9251060
units angstrom
no_reorient
symmetry c1
}

set {
scf_type DF
mp2_type DF
e_convergence 7
reference rhf
}

energy('mp2/aug-cc-pv[tq]z', bsse_type='cp')
--------------------------------------------------------------------------

    Molecular point group: c1
  Charge       = 0
  Multiplicity = 1
  Basis Set: AUG-CC-PVTZ
    Blend: AUG-CC-PVTZ
  Basis Set: (AUG-CC-PVTZ AUX)
    Blend: AUG-CC-PVTZ-JKFIT
  @DF-RHF Final Energy:   -95.25546019749267
    Total Energy =                        -95.2554601974926669
  Basis Set: (AUG-CC-PVTZ AUX)
    Blend: AUG-CC-PVTZ-RI
	 Reference Energy          =     -95.2554601974926669 [Eh]
	 Singles Energy            =      -0.0000000000000000 [Eh]
	 Same-Spin Energy          =      -0.0953903168038508 [Eh]
	 Opposite-Spin Energy      =      -0.3516697817995112 [Eh]
	 Correlation Energy        =      -0.4470600986033620 [Eh]
	 Total Energy              =     -95.7025202960960257 [Eh]
	 SCS Total Energy          =     -95.7092607079200377 [Eh]
    Molecular point group: c1
  Basis Set: AUG-CC-PVQZ
    Blend: AUG-CC-PVQZ
  Basis Set: (AUG-CC-PVQZ AUX)
    Blend: AUG-CC-PVQZ-JKFIT
  @DF-RHF Final Energy:   -95.26144219395789
    Total Energy =                        -95.2614421939578904
  Basis Set: (AUG-CC-PVQZ AUX)
  @DF-RHF Final Energy:   -95.25558589866947
    Total Energy =                        -95.2555858986694659
  @DF-RHF Final Energy:   -95.26148166073986
    Total Energy =                        -95.2614816607398609
  @DF-RHF Final Energy:  -115.09150183479757
    Total Energy =                       -115.0915018347975689
  @DF-RHF Final Energy:  -115.09887734332375
    Total Energy =                       -115.0988773433237498
  @DF-RHF Final Energy:  -115.09132124749138
    Total Energy =                       -115.0913212474913792
  @DF-RHF Final Energy:  -115.09882729622224
    Total Energy =                       -115.0988272962222396
  @DF-RHF Final Energy:  -210.32567421254444
    Total Energy =                       -210.3256742125444418
  @DF-RHF Final Energy:  -210.33902983119032
    Total Energy =                       -210.3390298311903166
*** Psi4 exiting successfully. Buy a developer a beer!
                               Psi4 1.4a2.dev224
  @DF-RHF Final Energy:   -95.25546019509684
    Total Energy =                        -95.2554601950968447
  @DF-RHF Final Energy:   -95.26144219077079
    Total Energy =                        -95.2614421907707936
  @DF-RHF Final Energy:   -95.25557003065869
    Total Energy =                        -95.2555700306586886
  @DF-RHF Final Energy:   -95.26147790925982
    Total Energy =                        -95.2614779092598241
  @DF-RHF Final Energy:  -115.09146876156980
    Total Energy =                       -115.0914687615698000
  @DF-RHF Final Energy:  -115.09887059604813
    Total Energy =                       -115.0988705960481298
  @DF-RHF Final Energy:  -115.09132124740593
    Total Energy =                       -115.0913212474059293
  @DF-RHF Final Energy:  -115.09882729615732
    Total Energy =                       -115.0988272961573244
  @DF-RHF Final Energy:  -210.34360352463557
    Total Energy =                       -210.3436035246355686
  @DF-RHF Final Energy:  -210.35695191096147
    Total Energy =                       -210.3569519109614703
*** Psi4 exiting successfully. Buy a developer a beer!
                               Psi4 1.4a2.dev224
                               Psi4 1.4a2.dev224
                               Psi4 1.4a2.dev224
                               Psi4 1.4a2.dev224
                               Psi4 1.4a2.dev224
                               Psi4 1.4a2.dev224
                               Psi4 1.4a2.dev224
  @DF-RHF Final Energy:   -95.25546024639019
    Total Energy =                        -95.2554602463901858
  @DF-RHF Final Energy:   -95.26144224228325
    Total Energy =                        -95.2614422422832519
  @DF-RHF Final Energy:   -95.25548142327992
    Total Energy =                        -95.2554814232799174
  @DF-RHF Final Energy:   -95.26145046450830
    Total Energy =                        -95.2614504645083002
  @DF-RHF Final Energy:  -115.09135560539545
    Total Energy =                       -115.0913556053954494
  @DF-RHF Final Energy:  -115.09883968899221
    Total Energy =                       -115.0988396889922143
  @DF-RHF Final Energy:  -115.09132160100759
    Total Energy =                       -115.0913216010075928
  @DF-RHF Final Energy:  -115.09882766003572
    Total Energy =                       -115.0988276600357239
  @DF-RHF Final Energy:  -210.35045117686539
    Total Energy =                       -210.3504511768653913
  @DF-RHF Final Energy:  -210.36390202516586
    Total Energy =                       -210.3639020251658565
*** Psi4 exiting successfully. Buy a developer a beer!
                               Psi4 1.4a2.dev224
  @DF-RHF Final Energy:   -95.25546008864605
    Total Energy =                        -95.2554600886460463
  @DF-RHF Final Energy:   -95.26144207585118
    Total Energy =                        -95.2614420758511784
  @DF-RHF Final Energy:   -95.25547092202105
    Total Energy =                        -95.2554709220210469
  @DF-RHF Final Energy:   -95.26144733162461
    Total Energy =                        -95.2614473316246091
  @DF-RHF Final Energy:  -115.09134312162705
    Total Energy =                       -115.0913431216270482
  @DF-RHF Final Energy:  -115.09883427612564
    Total Energy =                       -115.0988342761256433
  @DF-RHF Final Energy:  -115.09132160098838
    Total Energy =                       -115.0913216009883797
  @DF-RHF Final Energy:  -115.09882766000595
    Total Energy =                       -115.0988276600059521
  Multiplicity = 1
  @DF-RHF Final Energy:  -210.34896088558020
    Total Energy =                       -210.3489608855801976
	 Singles Energy            =      -0.0000000000000000 [Eh]
	 Same-Spin Energy          =      -0.2015109731864051 [Eh]
	 Opposite-Spin Energy      =      -0.7169664390024533 [Eh]
	 Correlation Energy        =      -0.9184774121888584 [Eh]
	 Total Energy              =    -211.2674382977690470 [Eh]
	 SCS Total Energy          =    -211.2764909367786004 [Eh]
    Molecular point group: c1

    Geometry (in Angstrom), charge = 0, multiplicity = 1:

       Center              X                  Y                   Z               Mass
    ------------   -----------------  -----------------  -----------------  -----------------
         O           -2.369565536179     0.764005599559    -0.000785643287    15.994914619570
         H           -1.397025536179     0.789885599559    -0.005835643287     1.007825032230
         C           -2.739315536179    -0.595744400441    -0.005565643287    12.000000000000
         H           -3.825565536179    -0.645024400441    -0.001305643287     1.007825032230
         H           -2.386055536179    -1.126474400441    -0.894915643287     1.007825032230
         H           -2.378725536179    -1.134644400441     0.875904356713     1.007825032230
         N            2.339024463821     0.581185599559    -0.014865643287    14.003074004430
         H            2.709644463821     1.088955599559     0.778264356713     1.007825032230
         H            2.709774463821     1.045515599559    -0.834125643287     1.007825032230
         C            2.816784463821    -0.804854400441     0.022594356713    12.000000000000
         H            2.424894463821    -1.338874400441    -0.839595643287     1.007825032230
         H            3.903494463821    -0.911584400441     0.025634356713     1.007825032230
         H            2.424654463821    -1.291584400441     0.912234356713     1.007825032230

  Charge       = 0
  Multiplicity = 1
  Basis Set: AUG-CC-PVQZ
    Blend: AUG-CC-PVQZ
  Basis Set: (AUG-CC-PVQZ AUX)
    Blend: AUG-CC-PVQZ-JKFIT

    Orbital Energies [Eh]
    ---------------------

    Doubly Occupied:

       1A    -20.548991     2A    -15.546399     3A    -11.261607
       4A    -11.246165     5A     -1.349641     6A     -1.177510
       7A     -0.915629     8A     -0.903640     9A     -0.682288
      10A     -0.669165    11A     -0.612453    12A     -0.611437
      13A     -0.587558    14A     -0.563072    15A     -0.524696
      16A     -0.495010    17A     -0.441673    18A     -0.402305

  @DF-RHF Final Energy:  -210.36242469567350

   => Energetics <=

    Nuclear Repulsion Energy =            115.1770575675814712
    One-Electron Energy =                -514.0004821786974389
    Two-Electron Energy =                 188.4609999154424713
    Total Energy =                       -210.3624246956734964

  Dipole Moment: [D]
     X:     2.7832      Y:    -1.3645      Z:    -0.0129     Total:     3.0997

  Basis Set: (AUG-CC-PVQZ AUX)
    Blend: AUG-CC-PVQZ-RI
	 Reference Energy          =    -210.3624246956734964 [Eh]
	 Singles Energy            =      -0.0000000000000000 [Eh]
	 Same-Spin Energy          =      -0.2139489056886990 [Eh]
	 Opposite-Spin Energy      =      -0.8035348753482228 [Eh]
	 Correlation Energy        =      -1.0174837810369217 [Eh]
	 Total Energy              =    -211.3799084767104262 [Eh]

	 ================> DF-SCS-MP2 Energies <==================
	-----------------------------------------------------------
	 SCS Same-Spin Scale       =       0.3333333333333333 [-]
	 SCS Opposite-Spin Scale   =       1.2000000000000000 [-]
	 SCS Same-Spin Energy      =      -0.0713163018962330 [Eh]
	 SCS Opposite-Spin Energy  =      -0.9642418504178673 [Eh]
	 SCS Correlation Energy    =      -1.0355581523141002 [Eh]
	 SCS Total Energy          =    -211.3979828479876062 [Eh]
	-----------------------------------------------------------

*** Psi4 exiting successfully. Buy a developer a beer!
