                               Psi4 1.4a2.dev224

  ==> Input File <==

--------------------------------------------------------------------------
#Generated by lconvert.py for cbs job

memory 40 GB

molecule  {
0 1
  O       -0.7069200     0.0458300     0.0063860
  H        0.2656240     0.0717100     0.0013390
  C       -1.0766710    -1.3139160     0.0016140
  H       -2.1629240    -1.3631960     0.0058650
  H       -0.7234060    -1.8446520    -0.8877430
  H       -0.7160800    -1.8528210     0.8830800
--
0 1
  N        2.3303280    -0.0436300    -0.0036500
  H        2.7009470     0.4641460     0.7894820
  H        2.7010710     0.4207080    -0.8229090
  C        2.8080800    -1.4296640     0.0338110
  H        2.4161950    -1.9636890    -0.8283810
  H        3.8947910    -1.5363990     0.0368450
  H        2.4159530    -1.9163940     0.9234430
units angstrom
no_reorient
symmetry c1
}

set {
scf_type DF
mp2_type DF
e_convergence 7
reference rhf
}

energy('mp2/aug-cc-pv[tq]z', bsse_type='cp')
--------------------------------------------------------------------------

    Molecular point group: c1
  Charge       = 0
  Multiplicity = 1
  Basis Set: AUG-CC-PVTZ
    Blend: AUG-CC-PVTZ
  Basis Set: (AUG-CC-PVTZ AUX)
    Blend: AUG-CC-PVTZ-JKFIT
  @DF-RHF Final Energy:   -95.25546018918232
    Total Energy =                        -95.2554601891823154
  Basis Set: (AUG-CC-PVTZ AUX)
    Blend: AUG-CC-PVTZ-RI
	 Reference Energy          =     -95.2554601891823154 [Eh]
	 Singles Energy            =      -0.0000000000000000 [Eh]
	 Same-Spin Energy          =      -0.0953903109268357 [Eh]
	 Opposite-Spin Energy      =      -0.3516697875475800 [Eh]
	 Correlation Energy        =      -0.4470600984744157 [Eh]
	 Total Energy              =     -95.7025202876567249 [Eh]
	 SCS Total Energy          =     -95.7092607045483561 [Eh]
    Molecular point group: c1
  Basis Set: AUG-CC-PVQZ
    Blend: AUG-CC-PVQZ
  Basis Set: (AUG-CC-PVQZ AUX)
    Blend: AUG-CC-PVQZ-JKFIT
  @DF-RHF Final Energy:   -95.26144218460630
    Total Energy =                        -95.2614421846062953
  Basis Set: (AUG-CC-PVQZ AUX)
  @DF-RHF Final Energy:   -95.25551405023975
    Total Energy =                        -95.2555140502397535
  @DF-RHF Final Energy:   -95.26146561771463
    Total Energy =                        -95.2614656177146344
  @DF-RHF Final Energy:  -115.09141039773823
    Total Energy =                       -115.0914103977382297
  @DF-RHF Final Energy:  -115.09885835290143
    Total Energy =                       -115.0988583529014306
  @DF-RHF Final Energy:  -115.09132124747151
    Total Energy =                       -115.0913212474715124
  @DF-RHF Final Energy:  -115.09882729622935
    Total Energy =                       -115.0988272962293451
  Multiplicity = 1
  @DF-RHF Final Energy:  -210.35430741896877
    Total Energy =                       -210.3543074189687729
	 Singles Energy            =      -0.0000000000000000 [Eh]
	 Same-Spin Energy          =      -0.2038660486164237 [Eh]
	 Opposite-Spin Energy      =      -0.7200288085687812 [Eh]
	 Correlation Energy        =      -0.9238948571852048 [Eh]
	 Total Energy              =    -211.2782022761539906 [Eh]
	 SCS Total Energy          =    -211.2862973387901206 [Eh]
    Molecular point group: c1

    Geometry (in Angstrom), charge = 0, multiplicity = 1:

       Center              X                  Y                   Z               Mass
    ------------   -----------------  -----------------  -----------------  -----------------
         O           -1.546930953087     0.718051647110    -0.002777759818    15.994914619570
         H           -0.574386953087     0.743931647110    -0.007824759818     1.007825032230
         C           -1.916681953087    -0.641694352890    -0.007549759818    12.000000000000
         H           -3.002934953087    -0.690974352890    -0.003298759818     1.007825032230
         H           -1.563416953087    -1.172430352890    -0.896906759818     1.007825032230
         H           -1.556090953087    -1.180599352890     0.873916240182     1.007825032230
         N            1.490317046913     0.628591647110    -0.012813759818    14.003074004430
         H            1.860936046913     1.136367647110     0.780318240182     1.007825032230
         H            1.861060046913     1.092929647110    -0.832072759818     1.007825032230
         C            1.968069046913    -0.757442352890     0.024647240182    12.000000000000
         H            1.576184046913    -1.291467352890    -0.837544759818     1.007825032230
         H            3.054780046913    -0.864177352890     0.027681240182     1.007825032230
         H            1.575942046913    -1.244172352890     0.914279240182     1.007825032230

  Charge       = 0
  Multiplicity = 1
  Basis Set: AUG-CC-PVQZ
    Blend: AUG-CC-PVQZ
  Basis Set: (AUG-CC-PVQZ AUX)
    Blend: AUG-CC-PVQZ-JKFIT

    Orbital Energies [Eh]
    ---------------------

    Doubly Occupied:

       1A    -20.522247     2A    -15.561010     3A    -11.255597
       4A    -11.249907     5A     -1.327859     6A     -1.192739
       7A     -0.915297     8A     -0.901709     9A     -0.682996
      10A     -0.669960    11A     -0.622162    12A     -0.597610
      13A     -0.574366    14A     -0.569843    15A     -0.535203
      16A     -0.483215    17A     -0.422685    18A     -0.416598

  @DF-RHF Final Energy:  -210.36773462236940

   => Energetics <=

    Nuclear Repulsion Energy =            130.0858696762250872
    One-Electron Energy =                -543.9052004133380933
    Two-Electron Energy =                 203.4515961147435803
    Total Energy =                       -210.3677346223693974

  Dipole Moment: [D]
     X:     3.3874      Y:    -1.2626      Z:    -0.0123     Total:     3.6151

  Basis Set: (AUG-CC-PVQZ AUX)
    Blend: AUG-CC-PVQZ-RI
	 Reference Energy          =    -210.3677346223693974 [Eh]
	 Singles Energy            =      -0.0000000000000000 [Eh]
	 Same-Spin Energy          =      -0.2162562074454539 [Eh]
	 Opposite-Spin Energy      =      -0.8058657149878135 [Eh]
	 Correlation Energy        =      -1.0221219224332674 [Eh]
	 Total Energy              =    -211.3898565448026545 [Eh]

	 ================> DF-SCS-MP2 Energies <==================
	-----------------------------------------------------------
	 SCS Same-Spin Scale       =       0.3333333333333333 [-]
	 SCS Opposite-Spin Scale   =       1.2000000000000000 [-]
	 SCS Same-Spin Energy      =      -0.0720854024818180 [Eh]
	 SCS Opposite-Spin Energy  =      -0.9670388579853761 [Eh]
	 SCS Correlation Energy    =      -1.0391242604671942 [Eh]
	 SCS Total Energy          =    -211.4068588828365876 [Eh]
	-----------------------------------------------------------

*** Psi4 exiting successfully. Buy a developer a beer!
