                               Psi4 1.4a2.dev224

  ==> Input File <==

--------------------------------------------------------------------------
#Generated by lconvert.py for cbs job

memory 40 GB

molecule  {
0 1
  O       -0.7069200     0.0458300     0.0063860
  H        0.2656240     0.0717100     0.0013390
  C       -1.0766710    -1.3139160     0.0016140
  H       -2.1629240    -1.3631960     0.0058650
  H       -0.7234060    -1.8446520    -0.8877430
  H       -0.7160800    -1.8528210     0.8830800
--
0 1
  N        1.6420270    -0.0051800    -0.0019870
  H        2.0126460     0.5025970     0.7911450
  H        2.0127690     0.4591590    -0.8212460
  C        2.1197790    -1.3912130     0.0354740
  H        1.7278940    -1.9252380    -0.8267170
  H        3.2064900    -1.4979480     0.0385090
  H        1.7276520    -1.8779430     0.9251060
units angstrom
no_reorient
symmetry c1
}

set {
scf_type DF
mp2_type DF
e_convergence 7
reference rhf
}

energy('mp2/aug-cc-pv[tq]z', bsse_type='cp')
--------------------------------------------------------------------------

    Molecular point group: c1
  Charge       = 0
  Multiplicity = 1
  Basis Set: AUG-CC-PVTZ
    Blend: AUG-CC-PVTZ
  Basis Set: (AUG-CC-PVTZ AUX)
    Blend: AUG-CC-PVTZ-JKFIT
  @DF-RHF Final Energy:   -95.25546019749267
    Total Energy =                        -95.2554601974926669
  Basis Set: (AUG-CC-PVTZ AUX)
    Blend: AUG-CC-PVTZ-RI
	 Reference Energy          =     -95.2554601974926669 [Eh]
	 Singles Energy            =      -0.0000000000000000 [Eh]
	 Same-Spin Energy          =      -0.0953903168038508 [Eh]
	 Opposite-Spin Energy      =      -0.3516697817995112 [Eh]
	 Correlation Energy        =      -0.4470600986033620 [Eh]
	 Total Energy              =     -95.7025202960960257 [Eh]
	 SCS Total Energy          =     -95.7092607079200377 [Eh]
    Molecular point group: c1
  Basis Set: AUG-CC-PVQZ
    Blend: AUG-CC-PVQZ
  Basis Set: (AUG-CC-PVQZ AUX)
    Blend: AUG-CC-PVQZ-JKFIT
  @DF-RHF Final Energy:   -95.26144219395789
    Total Energy =                        -95.2614421939578904
  Basis Set: (AUG-CC-PVQZ AUX)
  @DF-RHF Final Energy:   -95.25558589866947
    Total Energy =                        -95.2555858986694659
  @DF-RHF Final Energy:   -95.26148166073986
    Total Energy =                        -95.2614816607398609
  @DF-RHF Final Energy:  -115.09150183479757
    Total Energy =                       -115.0915018347975689
  @DF-RHF Final Energy:  -115.09887734332375
    Total Energy =                       -115.0988773433237498
  @DF-RHF Final Energy:  -115.09132124749138
    Total Energy =                       -115.0913212474913792
  @DF-RHF Final Energy:  -115.09882729622224
    Total Energy =                       -115.0988272962222396
  Multiplicity = 1
  @DF-RHF Final Energy:  -210.32567421254444
    Total Energy =                       -210.3256742125444418
	 Singles Energy            =      -0.0000000000000000 [Eh]
	 Same-Spin Energy          =      -0.2090894755872539 [Eh]
	 Opposite-Spin Energy      =      -0.7255871019393419 [Eh]
	 Correlation Energy        =      -0.9346765775265959 [Eh]
	 Total Energy              =    -211.2603507900710440 [Eh]
	 SCS Total Energy          =    -211.2660752267340740 [Eh]
    Molecular point group: c1

    Geometry (in Angstrom), charge = 0, multiplicity = 1:

       Center              X                  Y                   Z               Mass
    ------------   -----------------  -----------------  -----------------  -----------------
         O           -1.208149994289     0.699126332155    -0.003596318422    15.994914619570
         H           -0.235605994289     0.725006332155    -0.008643318422     1.007825032230
         C           -1.577900994289    -0.660619667845    -0.008368318422    12.000000000000
         H           -2.664153994289    -0.709899667845    -0.004117318422     1.007825032230
         H           -1.224635994289    -1.191355667845    -0.897725318422     1.007825032230
         H           -1.217309994289    -1.199524667845     0.873097681578     1.007825032230
         N            1.140797005711     0.648116332155    -0.011969318422    14.003074004430
         H            1.511416005711     1.155893332155     0.781162681578     1.007825032230
         H            1.511539005711     1.112455332155    -0.831228318422     1.007825032230
         C            1.618549005711    -0.737916667845     0.025491681578    12.000000000000
         H            1.226664005711    -1.271941667845    -0.836699318422     1.007825032230
         H            2.705260005711    -0.844651667845     0.028526681578     1.007825032230
         H            1.226422005711    -1.224646667845     0.915123681578     1.007825032230

  Charge       = 0
  Multiplicity = 1
  Basis Set: AUG-CC-PVQZ
    Blend: AUG-CC-PVQZ
  Basis Set: (AUG-CC-PVQZ AUX)
    Blend: AUG-CC-PVQZ-JKFIT

    Orbital Energies [Eh]
    ---------------------

    Doubly Occupied:

       1A    -20.473628     2A    -15.573234     3A    -11.265360
       4A    -11.235071     5A     -1.306223     6A     -1.213973
       7A     -0.933324     8A     -0.885196     9A     -0.702546
      10A     -0.697571    11A     -0.625150    12A     -0.579756
      13A     -0.576788    14A     -0.549425    15A     -0.547175
      16A     -0.491923    17A     -0.394125    18A     -0.393802

  @DF-RHF Final Energy:  -210.33902983119032

   => Energetics <=

    Nuclear Repulsion Energy =            141.0566510315708513
    One-Electron Energy =                -565.9028186529141067
    Two-Electron Energy =                 214.5071377901529672
    Total Energy =                       -210.3390298311903166

  Dipole Moment: [D]
     X:     4.2252      Y:    -1.1059      Z:    -0.0115     Total:     4.3675

  Basis Set: (AUG-CC-PVQZ AUX)
    Blend: AUG-CC-PVQZ-RI
	 Reference Energy          =    -210.3390298311903166 [Eh]
	 Singles Energy            =      -0.0000000000000000 [Eh]
	 Same-Spin Energy          =      -0.2215313423621476 [Eh]
	 Opposite-Spin Energy      =      -0.8110482076922818 [Eh]
	 Correlation Energy        =      -1.0325795500544295 [Eh]
	 Total Energy              =    -211.3716093812447525 [Eh]

	 ================> DF-SCS-MP2 Energies <==================
	-----------------------------------------------------------
	 SCS Same-Spin Scale       =       0.3333333333333333 [-]
	 SCS Opposite-Spin Scale   =       1.2000000000000000 [-]
	 SCS Same-Spin Energy      =      -0.0738437807873825 [Eh]
	 SCS Opposite-Spin Energy  =      -0.9732578492307381 [Eh]
	 SCS Correlation Energy    =      -1.0471016300181206 [Eh]
	 SCS Total Energy          =    -211.3861314612084357 [Eh]
	-----------------------------------------------------------

*** Psi4 exiting successfully. Buy a developer a beer!
