                               Psi4 1.4a2.dev224

  ==> Input File <==

--------------------------------------------------------------------------
#Generated by lconvert.py for cbs job

memory 40 GB

molecule  {
0 1
  O       -0.7069200     0.0458300     0.0063860
  H        0.2656240     0.0717100     0.0013390
  C       -1.0766710    -1.3139160     0.0016140
  H       -2.1629240    -1.3631960     0.0058650
  H       -0.7234060    -1.8446520    -0.8877430
  H       -0.7160800    -1.8528210     0.8830800
--
0 1
  N        1.8386560    -0.0161640    -0.0024620
  H        2.2092750     0.4916120     0.7906700
  H        2.2093980     0.4481750    -0.8217210
  C        2.3164080    -1.4021970     0.0349990
  H        1.9245230    -1.9362230    -0.8271930
  H        3.4031190    -1.5089330     0.0380340
  H        1.9242810    -1.8889280     0.9246310
units angstrom
no_reorient
symmetry c1
}

set {
scf_type DF
mp2_type DF
e_convergence 7
reference rhf
}

energy('mp2/aug-cc-pv[tq]z', bsse_type='cp')
--------------------------------------------------------------------------

    Molecular point group: c1
  Charge       = 0
  Multiplicity = 1
  Basis Set: AUG-CC-PVTZ
    Blend: AUG-CC-PVTZ
  Basis Set: (AUG-CC-PVTZ AUX)
    Blend: AUG-CC-PVTZ-JKFIT
  @DF-RHF Final Energy:   -95.25546019509684
    Total Energy =                        -95.2554601950968447
  Basis Set: (AUG-CC-PVTZ AUX)
    Blend: AUG-CC-PVTZ-RI
	 Reference Energy          =     -95.2554601950968447 [Eh]
	 Singles Energy            =      -0.0000000000000000 [Eh]
	 Same-Spin Energy          =      -0.0953903145986133 [Eh]
	 Opposite-Spin Energy      =      -0.3516697835099587 [Eh]
	 Correlation Energy        =      -0.4470600981085721 [Eh]
	 Total Energy              =     -95.7025202932054100 [Eh]
	 SCS Total Energy          =     -95.7092607068416612 [Eh]
    Molecular point group: c1
  Basis Set: AUG-CC-PVQZ
    Blend: AUG-CC-PVQZ
  Basis Set: (AUG-CC-PVQZ AUX)
    Blend: AUG-CC-PVQZ-JKFIT
  @DF-RHF Final Energy:   -95.26144219077079
    Total Energy =                        -95.2614421907707936
  Basis Set: (AUG-CC-PVQZ AUX)
  @DF-RHF Final Energy:   -95.25557003065869
    Total Energy =                        -95.2555700306586886
  @DF-RHF Final Energy:   -95.26147790925982
    Total Energy =                        -95.2614779092598241
  @DF-RHF Final Energy:  -115.09146876156980
    Total Energy =                       -115.0914687615698000
  @DF-RHF Final Energy:  -115.09887059604813
    Total Energy =                       -115.0988705960481298
  @DF-RHF Final Energy:  -115.09132124740593
    Total Energy =                       -115.0913212474059293
  @DF-RHF Final Energy:  -115.09882729615732
    Total Energy =                       -115.0988272961573244
  Multiplicity = 1
  @DF-RHF Final Energy:  -210.34360352463557
    Total Energy =                       -210.3436035246355686
	 Singles Energy            =      -0.0000000000000000 [Eh]
	 Same-Spin Energy          =      -0.2070280263502557 [Eh]
	 Opposite-Spin Energy      =      -0.7233696311141320 [Eh]
	 Correlation Energy        =      -0.9303976574643877 [Eh]
	 Total Energy              =    -211.2740011820999655 [Eh]
	 SCS Total Energy          =    -211.2806564240892726 [Eh]
    Molecular point group: c1

    Geometry (in Angstrom), charge = 0, multiplicity = 1:

       Center              X                  Y                   Z               Mass
    ------------   -----------------  -----------------  -----------------  -----------------
         O           -1.304930556870     0.704532707958    -0.003362508001    15.994914619570
         H           -0.332386556870     0.730412707958    -0.008409508001     1.007825032230
         C           -1.674681556870    -0.655213292042    -0.008134508001    12.000000000000
         H           -2.760934556870    -0.704493292042    -0.003883508001     1.007825032230
         H           -1.321416556870    -1.185949292042    -0.897491508001     1.007825032230
         H           -1.314090556870    -1.194118292042     0.873331491999     1.007825032230
         N            1.240645443130     0.642538707958    -0.012210508001    14.003074004430
         H            1.611264443130     1.150314707958     0.780921491999     1.007825032230
         H            1.611387443130     1.106877707958    -0.831469508001     1.007825032230
         C            1.718397443130    -0.743494292042     0.025250491999    12.000000000000
         H            1.326512443130    -1.277520292042    -0.836941508001     1.007825032230
         H            2.805108443130    -0.850230292042     0.028285491999     1.007825032230
         H            1.326270443130    -1.230225292042     0.914882491999     1.007825032230

  Charge       = 0
  Multiplicity = 1
  Basis Set: AUG-CC-PVQZ
    Blend: AUG-CC-PVQZ
  Basis Set: (AUG-CC-PVQZ AUX)
    Blend: AUG-CC-PVQZ-JKFIT

    Orbital Energies [Eh]
    ---------------------

    Doubly Occupied:

       1A    -20.492946     2A    -15.569330     3A    -11.261936
       4A    -11.240532     5A     -1.311489     6A     -1.206426
       7A     -0.925836     8A     -0.891016     9A     -0.694828
      10A     -0.681770    11A     -0.623531    12A     -0.585900
      13A     -0.578160    14A     -0.555762    15A     -0.542901
      16A     -0.487387    17A     -0.407928    18A     -0.404915

  @DF-RHF Final Energy:  -210.35695191096147

   => Energetics <=

    Nuclear Repulsion Energy =            137.4311795202526127
    One-Electron Energy =                -558.6510715483694867
    Two-Electron Energy =                 210.8629401171554036
    Total Energy =                       -210.3569519109614703

  Dipole Moment: [D]
     X:     3.9151      Y:    -1.1620      Z:    -0.0119     Total:     4.0839

  Basis Set: (AUG-CC-PVQZ AUX)
    Blend: AUG-CC-PVQZ-RI
	 Reference Energy          =    -210.3569519109614703 [Eh]
	 Singles Energy            =      -0.0000000000000000 [Eh]
	 Same-Spin Energy          =      -0.2194553374600410 [Eh]
	 Opposite-Spin Energy      =      -0.8090263453007280 [Eh]
	 Correlation Energy        =      -1.0284816827607690 [Eh]
	 Total Energy              =    -211.3854335937222402 [Eh]

	 ================> DF-SCS-MP2 Energies <==================
	-----------------------------------------------------------
	 SCS Same-Spin Scale       =       0.3333333333333333 [-]
	 SCS Opposite-Spin Scale   =       1.2000000000000000 [-]
	 SCS Same-Spin Energy      =      -0.0731517791533470 [Eh]
	 SCS Opposite-Spin Energy  =      -0.9708316143608736 [Eh]
	 SCS Correlation Energy    =      -1.0439833935142206 [Eh]
	 SCS Total Energy          =    -211.4009353044756949 [Eh]
	-----------------------------------------------------------

*** Psi4 exiting successfully. Buy a developer a beer!
