                               Psi4 1.4a2.dev224

  ==> Input File <==

--------------------------------------------------------------------------
#Generated by lconvert.py for cbs job

memory 40 GB

molecule  {
0 1
  O       -0.7069200     0.0458300     0.0063860
  H        0.2656240     0.0717100     0.0013390
  C       -1.0766710    -1.3139160     0.0016140
  H       -2.1629240    -1.3631960     0.0058650
  H       -0.7234060    -1.8446520    -0.8877430
  H       -0.7160800    -1.8528210     0.8830800
--
0 1
  N        2.2319140    -0.0381330    -0.0034120
  H        2.6025330     0.4696440     0.7897200
  H        2.6026560     0.4262060    -0.8226710
  C        2.7096660    -1.4241660     0.0340490
  H        2.3177810    -1.9581910    -0.8281430
  H        3.7963770    -1.5309010     0.0370830
  H        2.3175390    -1.9108960     0.9236810
units angstrom
no_reorient
symmetry c1
}

set {
scf_type DF
mp2_type DF
e_convergence 7
reference rhf
}

energy('mp2/aug-cc-pv[tq]z', bsse_type='cp')
--------------------------------------------------------------------------

    Molecular point group: c1
  Charge       = 0
  Multiplicity = 1
  Basis Set: AUG-CC-PVTZ
    Blend: AUG-CC-PVTZ
  Basis Set: (AUG-CC-PVTZ AUX)
    Blend: AUG-CC-PVTZ-JKFIT
  @DF-RHF Final Energy:   -95.25546019260807
    Total Energy =                        -95.2554601926080693
  Basis Set: (AUG-CC-PVTZ AUX)
    Blend: AUG-CC-PVTZ-RI
	 Reference Energy          =     -95.2554601926080693 [Eh]
	 Singles Energy            =      -0.0000000000000000 [Eh]
	 Same-Spin Energy          =      -0.0953903160591409 [Eh]
	 Opposite-Spin Energy      =      -0.3516697858436312 [Eh]
	 Correlation Energy        =      -0.4470601019027721 [Eh]
	 Total Energy              =     -95.7025202945108475 [Eh]
	 SCS Total Energy          =     -95.7092607076401407 [Eh]
    Molecular point group: c1
  Basis Set: AUG-CC-PVQZ
    Blend: AUG-CC-PVQZ
  Basis Set: (AUG-CC-PVQZ AUX)
    Blend: AUG-CC-PVQZ-JKFIT
  @DF-RHF Final Energy:   -95.26144218834904
    Total Energy =                        -95.2614421883490365
  Basis Set: (AUG-CC-PVQZ AUX)
  @DF-RHF Final Energy:   -95.25552373463975
    Total Energy =                        -95.2555237346397519
  @DF-RHF Final Energy:   -95.26146819355121
    Total Energy =                        -95.2614681935512095
  @DF-RHF Final Energy:  -115.09141993327890
    Total Energy =                       -115.0914199332788996
  @DF-RHF Final Energy:  -115.09886072566376
    Total Energy =                       -115.0988607256637550
  @DF-RHF Final Energy:  -115.09132124747055
    Total Energy =                       -115.0913212474705460
  @DF-RHF Final Energy:  -115.09882729614357
    Total Energy =                       -115.0988272961435683
  Multiplicity = 1
  @DF-RHF Final Energy:  -210.35392344919526
    Total Energy =                       -210.3539234491952641
	 Singles Energy            =      -0.0000000000000000 [Eh]
	 Same-Spin Energy          =      -0.2043164224768397 [Eh]
	 Opposite-Spin Energy      =      -0.7205280989875806 [Eh]
	 Correlation Energy        =      -0.9248445214644203 [Eh]
	 Total Energy              =    -211.2787679706596862 [Eh]
	 SCS Total Energy          =    -211.2866626421393050 [Eh]
    Molecular point group: c1

    Geometry (in Angstrom), charge = 0, multiplicity = 1:

       Center              X                  Y                   Z               Mass
    ------------   -----------------  -----------------  -----------------  -----------------
         O           -1.498491682033     0.715345760005    -0.002894903138    15.994914619570
         H           -0.525947682033     0.741225760005    -0.007941903138     1.007825032230
         C           -1.868242682033    -0.644400239995    -0.007666903138    12.000000000000
         H           -2.954495682033    -0.693680239995    -0.003415903138     1.007825032230
         H           -1.514977682033    -1.175136239995    -0.897023903138     1.007825032230
         H           -1.507651682033    -1.183305239995     0.873799096862     1.007825032230
         N            1.440342317967     0.631382760005    -0.012692903138    14.003074004430
         H            1.810961317967     1.139159760005     0.780439096862     1.007825032230
         H            1.811084317967     1.095721760005    -0.831951903138     1.007825032230
         C            1.918094317967    -0.754650239995     0.024768096862    12.000000000000
         H            1.526209317967    -1.288675239995    -0.837423903138     1.007825032230
         H            3.004805317967    -0.861385239995     0.027802096862     1.007825032230
         H            1.525967317967    -1.241380239995     0.914400096862     1.007825032230

  Charge       = 0
  Multiplicity = 1
  Basis Set: AUG-CC-PVQZ
    Blend: AUG-CC-PVQZ
  Basis Set: (AUG-CC-PVQZ AUX)
    Blend: AUG-CC-PVQZ-JKFIT

    Orbital Energies [Eh]
    ---------------------

    Doubly Occupied:

       1A    -20.518013     2A    -15.562496     3A    -11.256645
       4A    -11.248430     5A     -1.325004     6A     -1.194808
       7A     -0.916819     8A     -0.899980     9A     -0.684776
      10A     -0.670228    11A     -0.622771    12A     -0.595714
      13A     -0.575369    14A     -0.567544    15A     -0.536436
      16A     -0.482941    17A     -0.419985    18A     -0.416830

  @DF-RHF Final Energy:  -210.36733472675650

   => Energetics <=

    Nuclear Repulsion Energy =            131.3940849092584529
    One-Electron Energy =                -546.5332525704149020
    Two-Electron Energy =                 204.7718329343999244
    Total Energy =                       -210.3673347267564964

  Dipole Moment: [D]
     X:     3.4696      Y:    -1.2468      Z:    -0.0122     Total:     3.6868

  Basis Set: (AUG-CC-PVQZ AUX)
    Blend: AUG-CC-PVQZ-RI
	 Reference Energy          =    -210.3673347267564964 [Eh]
	 Singles Energy            =      -0.0000000000000000 [Eh]
	 Same-Spin Energy          =      -0.2167089398597341 [Eh]
	 Opposite-Spin Energy      =      -0.8063095783222569 [Eh]
	 Correlation Energy        =      -1.0230185181819911 [Eh]
	 Total Energy              =    -211.3903532449384954 [Eh]

	 ================> DF-SCS-MP2 Energies <==================
	-----------------------------------------------------------
	 SCS Same-Spin Scale       =       0.3333333333333333 [-]
	 SCS Opposite-Spin Scale   =       1.2000000000000000 [-]
	 SCS Same-Spin Energy      =      -0.0722363132865780 [Eh]
	 SCS Opposite-Spin Energy  =      -0.9675714939867083 [Eh]
	 SCS Correlation Energy    =      -1.0398078072732864 [Eh]
	 SCS Total Energy          =    -211.4071425340297878 [Eh]
	-----------------------------------------------------------

*** Psi4 exiting successfully. Buy a developer a beer!
