                               Psi4 1.4a2.dev224

  ==> Input File <==

--------------------------------------------------------------------------
#Generated by lconvert.py for cbs job

memory 20 GB

molecule  {
0 1
  O      -0.706920    0.045830    0.006390
  H       0.265620    0.071710    0.001340
  C      -1.076670   -1.313920    0.001610
  H      -2.162920   -1.363200    0.005870
  H      -0.723410   -1.844650   -0.887740
  H      -0.716080   -1.852820    0.883080
--
0 1
  N       3.411790   -0.104040   -0.006260
  H       3.782410    0.403730    0.786870
  H       3.782530    0.360300   -0.825520
  C       3.889540   -1.490080    0.031200
  H       3.497650   -2.024100   -0.830990
  H       4.976250   -1.596810    0.034230
  H       3.497410   -1.976810    0.920830
units angstrom
no_reorient
symmetry c1
}

set {
scf_type DF
mp2_type DF
e_convergence 7
reference rhf
}

energy('mp2/aug-cc-pv[tq]z', bsse_type='cp')
--------------------------------------------------------------------------

    Molecular point group: c1
  Charge       = 0
  Multiplicity = 1
  Basis Set: AUG-CC-PVTZ
    Blend: AUG-CC-PVTZ
  Basis Set: (AUG-CC-PVTZ AUX)
    Blend: AUG-CC-PVTZ-JKFIT
  @DF-RHF Final Energy:   -95.25546024639019
    Total Energy =                        -95.2554602463901858
  Basis Set: (AUG-CC-PVTZ AUX)
    Blend: AUG-CC-PVTZ-RI
	 Reference Energy          =     -95.2554602463901858 [Eh]
	 Singles Energy            =      -0.0000000000000000 [Eh]
	 Same-Spin Energy          =      -0.0953902775700635 [Eh]
	 Opposite-Spin Energy      =      -0.3516697509709806 [Eh]
	 Correlation Energy        =      -0.4470600285410442 [Eh]
	 Total Energy              =     -95.7025202749312314 [Eh]
	 SCS Total Energy          =     -95.7092607067453827 [Eh]
    Molecular point group: c1
  Basis Set: AUG-CC-PVQZ
    Blend: AUG-CC-PVQZ
  Basis Set: (AUG-CC-PVQZ AUX)
    Blend: AUG-CC-PVQZ-JKFIT
  @DF-RHF Final Energy:   -95.26144224228325
    Total Energy =                        -95.2614422422832519
  Basis Set: (AUG-CC-PVQZ AUX)
  @DF-RHF Final Energy:   -95.25548142327992
    Total Energy =                        -95.2554814232799174
  @DF-RHF Final Energy:   -95.26145046450830
    Total Energy =                        -95.2614504645083002
  @DF-RHF Final Energy:  -115.09135560539545
    Total Energy =                       -115.0913556053954494
  @DF-RHF Final Energy:  -115.09883968899221
    Total Energy =                       -115.0988396889922143
  @DF-RHF Final Energy:  -115.09132160100759
    Total Energy =                       -115.0913216010075928
  @DF-RHF Final Energy:  -115.09882766003572
    Total Energy =                       -115.0988276600357239
  Multiplicity = 1
  @DF-RHF Final Energy:  -210.35045117686539
    Total Energy =                       -210.3504511768653913
	 Singles Energy            =      -0.0000000000000000 [Eh]
	 Same-Spin Energy          =      -0.2017798181067628 [Eh]
	 Opposite-Spin Energy      =      -0.7174283930716875 [Eh]
	 Correlation Energy        =      -0.9192082111784503 [Eh]
	 Total Energy              =    -211.2696593880438343 [Eh]
	 SCS Total Energy          =    -211.2786251879203405 [Eh]
    Molecular point group: c1

    Geometry (in Angstrom), charge = 0, multiplicity = 1:

       Center              X                  Y                   Z               Mass
    ------------   -----------------  -----------------  -----------------  -----------------
         O           -2.079224751936     0.747787488507    -0.001489168008    15.994914619570
         H           -1.106684751936     0.773667488507    -0.006539168008     1.007825032230
         C           -2.448974751936    -0.611962511493    -0.006269168008    12.000000000000
         H           -3.535224751936    -0.661242511493    -0.002009168008     1.007825032230
         H           -2.095714751936    -1.142692511493    -0.895619168008     1.007825032230
         H           -2.088384751936    -1.150862511493     0.875200831992     1.007825032230
         N            2.039485248064     0.597917488507    -0.014139168008    14.003074004430
         H            2.410105248064     1.105687488507     0.778990831992     1.007825032230
         H            2.410225248064     1.062257488507    -0.833399168008     1.007825032230
         C            2.517235248064    -0.788122511493     0.023320831992    12.000000000000
         H            2.125345248064    -1.322142511493    -0.838869168008     1.007825032230
         H            3.603945248064    -0.894852511493     0.026350831992     1.007825032230
         H            2.125105248064    -1.274852511493     0.912950831992     1.007825032230

  Charge       = 0
  Multiplicity = 1
  Basis Set: AUG-CC-PVQZ
    Blend: AUG-CC-PVQZ
  Basis Set: (AUG-CC-PVQZ AUX)
    Blend: AUG-CC-PVQZ-JKFIT

    Orbital Energies [Eh]
    ---------------------

    Doubly Occupied:

       1A    -20.544571     2A    -15.549644     3A    -11.259198
       4A    -11.248283     5A     -1.345588     6A     -1.180478
       7A     -0.912862     8A     -0.905993     9A     -0.678767
      10A     -0.671974    11A     -0.614034    12A     -0.609507
      13A     -0.584247    14A     -0.565582    15A     -0.526987
      16A     -0.491979    17A     -0.438209    18A     -0.405829

  @DF-RHF Final Energy:  -210.36390202516586

   => Energetics <=

    Nuclear Repulsion Energy =            119.2529788292645492
    One-Electron Energy =                -522.1662891415395507
    Two-Electron Energy =                 192.5494082871091734
    Total Energy =                       -210.3639020251658565

  Dipole Moment: [D]
     X:     2.8938      Y:    -1.3486      Z:    -0.0128     Total:     3.1927

  Basis Set: (AUG-CC-PVQZ AUX)
    Blend: AUG-CC-PVQZ-RI
	 Reference Energy          =    -210.3639020251658565 [Eh]
	 Singles Energy            =      -0.0000000000000000 [Eh]
	 Same-Spin Energy          =      -0.2141978681264400 [Eh]
	 Opposite-Spin Energy      =      -0.8038007941402486 [Eh]
	 Correlation Energy        =      -1.0179986622666886 [Eh]
	 Total Energy              =    -211.3819006874325339 [Eh]

	 ================> DF-SCS-MP2 Energies <==================
	-----------------------------------------------------------
	 SCS Same-Spin Scale       =       0.3333333333333333 [-]
	 SCS Opposite-Spin Scale   =       1.2000000000000000 [-]
	 SCS Same-Spin Energy      =      -0.0713992893754800 [Eh]
	 SCS Opposite-Spin Energy  =      -0.9645609529682984 [Eh]
	 SCS Correlation Energy    =      -1.0359602423437784 [Eh]
	 SCS Total Energy          =    -211.3998622675096328 [Eh]
	-----------------------------------------------------------

*** Psi4 exiting successfully. Buy a developer a beer!
