                               Psi4 1.4a2.dev224

  ==> Input File <==

--------------------------------------------------------------------------
#Generated by lconvert.py for cbs job

memory 40 GB

molecule  {
0 1
  O       -0.7069200     0.0458300     0.0063860
  H        0.2656240     0.0717100     0.0013390
  C       -1.0766710    -1.3139160     0.0016140
  H       -2.1629240    -1.3631960     0.0058650
  H       -0.7234060    -1.8446520    -0.8877430
  H       -0.7160800    -1.8528210     0.8830800
--
0 1
  N        2.4286420    -0.0491220    -0.0038880
  H        2.7992620     0.4586540     0.7892450
  H        2.7993850     0.4152160    -0.8231470
  C        2.9063940    -1.4351560     0.0335730
  H        2.5145100    -1.9691810    -0.8286180
  H        3.9931060    -1.5418910     0.0366080
  H        2.5142680    -1.9218860     0.9232060
units angstrom
no_reorient
symmetry c1
}

set {
scf_type DF
mp2_type DF
e_convergence 7
reference rhf
}

energy('mp2/aug-cc-pv[tq]z', bsse_type='cp')
--------------------------------------------------------------------------

    Molecular point group: c1
  Charge       = 0
  Multiplicity = 1
  Basis Set: AUG-CC-PVTZ
    Blend: AUG-CC-PVTZ
  Basis Set: (AUG-CC-PVTZ AUX)
    Blend: AUG-CC-PVTZ-JKFIT
  @DF-RHF Final Energy:   -95.25546016150595
    Total Energy =                        -95.2554601615059511
  Basis Set: (AUG-CC-PVTZ AUX)
    Blend: AUG-CC-PVTZ-RI
	 Reference Energy          =     -95.2554601615059511 [Eh]
	 Singles Energy            =      -0.0000000000000000 [Eh]
	 Same-Spin Energy          =      -0.0953903149459043 [Eh]
	 Opposite-Spin Energy      =      -0.3516698067588476 [Eh]
	 Correlation Energy        =      -0.4470601217047520 [Eh]
	 Total Energy              =     -95.7025202832107027 [Eh]
	 SCS Total Energy          =     -95.7092607012652081 [Eh]
    Molecular point group: c1
  Basis Set: AUG-CC-PVQZ
    Blend: AUG-CC-PVQZ
  Basis Set: (AUG-CC-PVQZ AUX)
    Blend: AUG-CC-PVQZ-JKFIT
  @DF-RHF Final Energy:   -95.26144215552918
    Total Energy =                        -95.2614421555291813
  Basis Set: (AUG-CC-PVQZ AUX)
  @DF-RHF Final Energy:   -95.25550597466417
    Total Energy =                        -95.2555059746641746
  @DF-RHF Final Energy:   -95.26146337872616
    Total Energy =                        -95.2614633787261624
  @DF-RHF Final Energy:  -115.09140238176569
    Total Energy =                       -115.0914023817656897
  @DF-RHF Final Energy:  -115.09885602277014
    Total Energy =                       -115.0988560227701356
  @DF-RHF Final Energy:  -115.09132124748621
    Total Energy =                       -115.0913212474862064
  @DF-RHF Final Energy:  -115.09882729620551
    Total Energy =                       -115.0988272962055134
  Multiplicity = 1
  @DF-RHF Final Energy:  -210.35433189421119
    Total Energy =                       -210.3543318942111853
	 Singles Energy            =      -0.0000000000000000 [Eh]
	 Same-Spin Energy          =      -0.2034851046510356 [Eh]
	 Opposite-Spin Energy      =      -0.7195940983396423 [Eh]
	 Correlation Energy        =      -0.9230792029906778 [Eh]
	 Total Energy              =    -211.2774110972018491 [Eh]
	 SCS Total Energy          =    -211.2856731804357651 [Eh]
    Molecular point group: c1

    Geometry (in Angstrom), charge = 0, multiplicity = 1:

       Center              X                  Y                   Z               Mass
    ------------   -----------------  -----------------  -----------------  -----------------
         O           -1.595321052198     0.720754803052    -0.002660680418    15.994914619570
         H           -0.622777052198     0.746634803052    -0.007707680418     1.007825032230
         C           -1.965072052198    -0.638991196948    -0.007432680418    12.000000000000
         H           -3.051325052198    -0.688271196948    -0.003181680418     1.007825032230
         H           -1.611807052198    -1.169727196948    -0.896789680418     1.007825032230
         H           -1.604481052198    -1.177896196948     0.874033319582     1.007825032230
         N            1.540240947802     0.625802803052    -0.012934680418    14.003074004430
         H            1.910860947802     1.133578803052     0.780198319582     1.007825032230
         H            1.910983947802     1.090140803052    -0.832193680418     1.007825032230
         C            2.017992947802    -0.760231196948     0.024526319582    12.000000000000
         H            1.626108947802    -1.294256196948    -0.837664680418     1.007825032230
         H            3.104704947802    -0.866966196948     0.027561319582     1.007825032230
         H            1.625866947802    -1.246961196948     0.914159319582     1.007825032230

  Charge       = 0
  Multiplicity = 1
  Basis Set: AUG-CC-PVQZ
    Blend: AUG-CC-PVQZ
  Basis Set: (AUG-CC-PVQZ AUX)
    Blend: AUG-CC-PVQZ-JKFIT

    Orbital Energies [Eh]
    ---------------------

    Doubly Occupied:

       1A    -20.525892     2A    -15.559609     3A    -11.254637
       4A    -11.251228     5A     -1.330442     6A     -1.190921
       7A     -0.913966     8A     -0.903263     9A     -0.681419
      10A     -0.670225    11A     -0.621416    12A     -0.599314
      13A     -0.573537    14A     -0.571735    15A     -0.534089
      16A     -0.483804    17A     -0.425058    18A     -0.415907

  @DF-RHF Final Energy:  -210.36776932313037

   => Energetics <=

    Nuclear Repulsion Energy =            128.8468244025946774
    One-Electron Energy =                -541.4162591487332747
    Two-Electron Energy =                 202.2016654230082224
    Total Energy =                       -210.3677693231303749

  Dipole Moment: [D]
     X:     3.3143      Y:    -1.2765      Z:    -0.0123     Total:     3.5517

  Basis Set: (AUG-CC-PVQZ AUX)
    Blend: AUG-CC-PVQZ-RI
	 Reference Energy          =    -210.3677693231303749 [Eh]
	 Singles Energy            =      -0.0000000000000000 [Eh]
	 Same-Spin Energy          =      -0.2158745628828222 [Eh]
	 Opposite-Spin Energy      =      -0.8054927226400492 [Eh]
	 Correlation Energy        =      -1.0213672855228715 [Eh]
	 Total Energy              =    -211.3891366086532457 [Eh]

	 ================> DF-SCS-MP2 Energies <==================
	-----------------------------------------------------------
	 SCS Same-Spin Scale       =       0.3333333333333333 [-]
	 SCS Opposite-Spin Scale   =       1.2000000000000000 [-]
	 SCS Same-Spin Energy      =      -0.0719581876276074 [Eh]
	 SCS Opposite-Spin Energy  =      -0.9665912671680590 [Eh]
	 SCS Correlation Energy    =      -1.0385494547956664 [Eh]
	 SCS Total Energy          =    -211.4063187779260318 [Eh]
	-----------------------------------------------------------

*** Psi4 exiting successfully. Buy a developer a beer!
