                               Psi4 1.4a2.dev224

  ==> Input File <==

--------------------------------------------------------------------------
#Generated by lconvert.py for cbs job

memory 40 GB

molecule  {
0 1
  O       -0.2087770    -0.2168710    -1.0324060
  H        0.7111260    -0.3868920    -0.7739620
  C       -1.0221730    -0.7411710    -0.0054540
  H       -2.0574910    -0.5387070    -0.2685970
  H       -0.9077430    -1.8218260     0.1085370
  H       -0.8246310    -0.2754950     0.9646450
--
0 1
  C        1.9978310     1.9034360     0.4407020
  H        2.5042250     2.8648850     0.4058310
  H        1.5872870     1.7573000     1.4385780
  H        1.1681830     1.8939230    -0.2608040
  C        2.9134620     0.7484970     0.1247850
  O        2.4892670    -0.3714140    -0.1602960
  N        4.2395980     1.0102210     0.1839850
  H        4.5376110     1.9206490     0.4816720
  C        5.2220050    -0.0298900    -0.0387590
  H        4.8654470    -0.6808270    -0.8309360
  H        6.1623740     0.4236340    -0.3372730
  H        5.3815150    -0.6344170     0.8533160
units angstrom
no_reorient
symmetry c1
}

set {
scf_type DF
mp2_type DF
e_convergence 7
reference rhf
}

energy('mp2/aug-cc-pv[tq]z', bsse_type='cp')
--------------------------------------------------------------------------

    Molecular point group: c1
  Charge       = 0
  Multiplicity = 1
  Basis Set: AUG-CC-PVTZ
    Blend: AUG-CC-PVTZ
  Basis Set: (AUG-CC-PVTZ AUX)
    Blend: AUG-CC-PVTZ-JKFIT
  @DF-RHF Final Energy:  -247.10281439187162
    Total Energy =                       -247.1028143918716182
  Basis Set: (AUG-CC-PVTZ AUX)
    Blend: AUG-CC-PVTZ-RI
	 Reference Energy          =    -247.1028143918716182 [Eh]
	 Singles Energy            =      -0.0000000000000000 [Eh]
	 Same-Spin Energy          =      -0.2463526807094330 [Eh]
	 Opposite-Spin Energy      =      -0.8098623194270789 [Eh]
	 Correlation Energy        =      -1.0562150001365118 [Eh]
	 Total Energy              =    -248.1590293920081365 [Eh]
	 SCS Total Energy          =    -248.1567667354206037 [Eh]
    Molecular point group: c1
  Basis Set: AUG-CC-PVQZ
    Blend: AUG-CC-PVQZ
  Basis Set: (AUG-CC-PVQZ AUX)
    Blend: AUG-CC-PVQZ-JKFIT
  @DF-RHF Final Energy:  -247.11824554796357
    Total Energy =                       -247.1182455479635678
  Basis Set: (AUG-CC-PVQZ AUX)
  @DF-RHF Final Energy:  -247.10290907170815
    Total Energy =                       -247.1029090717081544
  @DF-RHF Final Energy:  -247.11827805291981
    Total Energy =                       -247.1182780529198340
  @DF-RHF Final Energy:  -115.09162125247597
    Total Energy =                       -115.0916212524759743
  @DF-RHF Final Energy:  -115.09904719724713
    Total Energy =                       -115.0990471972471312
  @DF-RHF Final Energy:  -115.09149581772878
    Total Energy =                       -115.0914958177287843
  @DF-RHF Final Energy:  -115.09900476321108
    Total Energy =                       -115.0990047632110844
  Multiplicity = 1
  @DF-RHF Final Energy:  -362.20295562806871
    Total Energy =                       -362.2029556280687075
	 Singles Energy            =      -0.0000000000000000 [Eh]
	 Same-Spin Energy          =      -0.3551702905537525 [Eh]
	 Opposite-Spin Energy      =      -1.1782947856505650 [Eh]
	 Correlation Energy        =      -1.5334650762043176 [Eh]
	 Total Energy              =    -363.7364207042730300 [Eh]
	 SCS Total Energy          =    -363.7352994677006564 [Eh]
    Molecular point group: c1

    Geometry (in Angstrom), charge = 0, multiplicity = 1:

       Center              X                  Y                   Z               Mass
    ------------   -----------------  -----------------  -----------------  -----------------
         O           -2.383198849342    -0.520116321510    -0.951984780062    15.994914619570
         H           -1.463295849342    -0.690137321510    -0.693540780062     1.007825032230
         C           -3.196594849342    -1.044416321510     0.074967219938    12.000000000000
         H           -4.231912849342    -0.841952321510    -0.188175780062     1.007825032230
         H           -3.082164849342    -2.125071321510     0.188958219938     1.007825032230
         H           -2.999052849342    -0.578740321510     1.045066219938     1.007825032230
         C           -0.176590849342     1.600190678490     0.521123219938    12.000000000000
         H            0.329803150658     2.561639678490     0.486252219938     1.007825032230
         H           -0.587134849342     1.454054678490     1.518999219938     1.007825032230
         H           -1.006238849342     1.590677678490    -0.180382780062     1.007825032230
         C            0.739040150658     0.445251678490     0.205206219938    12.000000000000
         O            0.314845150658    -0.674659321510    -0.079874780062    15.994914619570
         N            2.065176150658     0.706975678490     0.264406219938    14.003074004430
         H            2.363189150658     1.617403678490     0.562093219938     1.007825032230
         C            3.047583150658    -0.333135321510     0.041662219938    12.000000000000
         H            2.691025150658    -0.984072321510    -0.750514780062     1.007825032230
         H            3.987952150658     0.120388678490    -0.256851780062     1.007825032230
         H            3.207093150658    -0.937662321510     0.933737219938     1.007825032230

  Charge       = 0
  Multiplicity = 1
  Basis Set: AUG-CC-PVQZ
    Blend: AUG-CC-PVQZ
  Basis Set: (AUG-CC-PVQZ AUX)
    Blend: AUG-CC-PVQZ-JKFIT

    Orbital Energies [Eh]
    ---------------------

    Doubly Occupied:

       1A    -20.525680     2A    -20.517230     3A    -15.596738
       4A    -11.360494     5A    -11.265076     6A    -11.244915
       7A    -11.238910     8A     -1.390429     9A     -1.323611
      10A     -1.243003    11A     -1.028084    12A     -0.942113
      13A     -0.898103    14A     -0.804703    15A     -0.701006
      16A     -0.672318    17A     -0.661206    18A     -0.644604
      19A     -0.596214    20A     -0.593107    21A     -0.589541
      22A     -0.566101    23A     -0.564364    24A     -0.555260
      25A     -0.515171    26A     -0.477550    27A     -0.436954
      28A     -0.418312    29A     -0.406895

  @DF-RHF Final Energy:  -362.22581926287984

   => Energetics <=

    Nuclear Repulsion Energy =            313.4057042267883162
    One-Electron Energy =               -1115.7076705217432391
    Two-Electron Energy =                 440.0761470320750846
    Total Energy =                       -362.2258192628798383

  Dipole Moment: [D]
     X:     3.6675      Y:     2.8510      Z:     2.5459     Total:     5.2973

  Basis Set: (AUG-CC-PVQZ AUX)
    Blend: AUG-CC-PVQZ-RI
	 Reference Energy          =    -362.2258192628798383 [Eh]
	 Singles Energy            =      -0.0000000000000000 [Eh]
	 Same-Spin Energy          =      -0.3767292041254484 [Eh]
	 Opposite-Spin Energy      =      -1.3233776185934460 [Eh]
	 Correlation Energy        =      -1.7001068227188945 [Eh]
	 Total Energy              =    -363.9259260855987463 [Eh]

	 ================> DF-SCS-MP2 Energies <==================
	-----------------------------------------------------------
	 SCS Same-Spin Scale       =       0.3333333333333333 [-]
	 SCS Opposite-Spin Scale   =       1.2000000000000000 [-]
	 SCS Same-Spin Energy      =      -0.1255764013751495 [Eh]
	 SCS Opposite-Spin Energy  =      -1.5880531423121351 [Eh]
	 SCS Correlation Energy    =      -1.7136295436872846 [Eh]
	 SCS Total Energy          =    -363.9394488065670998 [Eh]
	-----------------------------------------------------------

*** Psi4 exiting successfully. Buy a developer a beer!
