                               Psi4 1.4a2.dev224

  ==> Input File <==

--------------------------------------------------------------------------
#Generated by lconvert.py for cbs job

memory 20 GB

molecule  {
0 1
  O      -0.208780   -0.216870   -1.032410
  H       0.711130   -0.386890   -0.773960
  C      -1.022170   -0.741170   -0.005450
  H      -2.057490   -0.538710   -0.268600
  H      -0.907740   -1.821830    0.108540
  H      -0.824630   -0.275490    0.964640
--
0 1
  C       3.064810    1.912730    0.808930
  H       3.571200    2.874170    0.774060
  H       2.654270    1.766590    1.806810
  H       2.235160    1.903210    0.107430
  C       3.980440    0.757790    0.493010
  O       3.556250   -0.362120    0.207930
  N       5.306580    1.019510    0.552210
  H       5.604590    1.929940    0.849900
  C       6.288980   -0.020600    0.329470
  H       5.932430   -0.671540   -0.462710
  H       7.229350    0.432920    0.030960
  H       6.448490   -0.625130    1.221550
units angstrom
no_reorient
symmetry c1
}

set {
scf_type DF
mp2_type DF
e_convergence 7
reference rhf
}

energy('mp2/aug-cc-pv[tq]z', bsse_type='cp')
--------------------------------------------------------------------------

    Molecular point group: c1
  Charge       = 0
  Multiplicity = 1
  Basis Set: AUG-CC-PVTZ
    Blend: AUG-CC-PVTZ
  Basis Set: (AUG-CC-PVTZ AUX)
    Blend: AUG-CC-PVTZ-JKFIT
  @DF-RHF Final Energy:  -247.10281460475676
    Total Energy =                       -247.1028146047567589
  Basis Set: (AUG-CC-PVTZ AUX)
    Blend: AUG-CC-PVTZ-RI
	 Reference Energy          =    -247.1028146047567589 [Eh]
	 Singles Energy            =      -0.0000000000000000 [Eh]
	 Same-Spin Energy          =      -0.2463526711909885 [Eh]
	 Opposite-Spin Energy      =      -0.8098621766602645 [Eh]
	 Correlation Energy        =      -1.0562148478512530 [Eh]
	 Total Energy              =    -248.1590294526080243 [Eh]
	 SCS Total Energy          =    -248.1567667738127341 [Eh]
    Molecular point group: c1
  Basis Set: AUG-CC-PVQZ
    Blend: AUG-CC-PVQZ
  Basis Set: (AUG-CC-PVQZ AUX)
    Blend: AUG-CC-PVQZ-JKFIT
  @DF-RHF Final Energy:  -247.11824577532559
    Total Energy =                       -247.1182457753255903
  Basis Set: (AUG-CC-PVQZ AUX)
  @DF-RHF Final Energy:  -247.10284338072000
    Total Energy =                       -247.1028433807200031
  @DF-RHF Final Energy:  -247.11825741466041
    Total Energy =                       -247.1182574146604338
  @DF-RHF Final Energy:  -115.09154075296800
    Total Energy =                       -115.0915407529680010
  @DF-RHF Final Energy:  -115.09902209774027
    Total Energy =                       -115.0990220977402743
  @DF-RHF Final Energy:  -115.09149522588302
    Total Energy =                       -115.0914952258830226
  @DF-RHF Final Energy:  -115.09900414646543
    Total Energy =                       -115.0990041464654325
  Multiplicity = 1
  @DF-RHF Final Energy:  -362.19877502740792
    Total Energy =                       -362.1987750274079190
	 Singles Energy            =      -0.0000000000000000 [Eh]
	 Same-Spin Energy          =      -0.3527904561016716 [Eh]
	 Opposite-Spin Energy      =      -1.1755945550142615 [Eh]
	 Correlation Energy        =      -1.5283850111159332 [Eh]
	 Total Energy              =    -363.7271600385238344 [Eh]
	 SCS Total Energy          =    -363.7270853121256096 [Eh]
    Molecular point group: c1

    Geometry (in Angstrom), charge = 0, multiplicity = 1:

       Center              X                  Y                   Z               Mass
    ------------   -----------------  -----------------  -----------------  -----------------
         O           -3.124984877639    -0.526575272146    -1.207986474748    15.994914619570
         H           -2.205074877639    -0.696595272146    -0.949536474748     1.007825032230
         C           -3.938374877639    -1.050875272146    -0.181026474748    12.000000000000
         H           -4.973694877639    -0.848415272146    -0.444176474748     1.007825032230
         H           -3.823944877639    -2.131535272146    -0.067036474748     1.007825032230
         H           -3.740834877639    -0.585195272146     0.789063525252     1.007825032230
         C            0.148605122361     1.603024727854     0.633353525252    12.000000000000
         H            0.654995122361     2.564464727854     0.598483525252     1.007825032230
         H           -0.261934877639     1.456884727854     1.631233525252     1.007825032230
         H           -0.681044877639     1.593504727854    -0.068146474748     1.007825032230
         C            1.064235122361     0.448084727854     0.317433525252    12.000000000000
         O            0.640045122361    -0.671825272146     0.032353525252    15.994914619570
         N            2.390375122361     0.709804727854     0.376633525252    14.003074004430
         H            2.688385122361     1.620234727854     0.674323525252     1.007825032230
         C            3.372775122361    -0.330305272146     0.153893525252    12.000000000000
         H            3.016225122361    -0.981245272146    -0.638286474748     1.007825032230
         H            4.313145122361     0.123214727854    -0.144616474748     1.007825032230
         H            3.532285122361    -0.934835272146     1.045973525252     1.007825032230

  Charge       = 0
  Multiplicity = 1
  Basis Set: AUG-CC-PVQZ
    Blend: AUG-CC-PVQZ
  Basis Set: (AUG-CC-PVQZ AUX)
    Blend: AUG-CC-PVQZ-JKFIT

    Orbital Energies [Eh]
    ---------------------

    Doubly Occupied:

       1A    -20.542612     2A    -20.515065     3A    -15.590290
       4A    -11.351553     5A    -11.260847     6A    -11.256887
       7A    -11.239074     8A     -1.377601     9A     -1.343786
      10A     -1.235569    11A     -1.024797    12A     -0.938233
      13A     -0.911067    14A     -0.796450    15A     -0.695772
      16A     -0.677048    17A     -0.657845    18A     -0.639778
      19A     -0.607558    20A     -0.590555    21A     -0.585171
      22A     -0.581908    23A     -0.562808    24A     -0.552342
      25A     -0.506880    26A     -0.490719    27A     -0.436645
      28A     -0.428520    29A     -0.398473

  @DF-RHF Final Energy:  -362.22166546192170

   => Energetics <=

    Nuclear Repulsion Energy =            294.1567771514076526
    One-Electron Energy =               -1077.1651890386303876
    Two-Electron Energy =                 420.7867464253010894
    Total Energy =                       -362.2216654619217024

  Dipole Moment: [D]
     X:     3.1216      Y:     2.6958      Z:     2.5324     Total:     4.8399

  Basis Set: (AUG-CC-PVQZ AUX)
    Blend: AUG-CC-PVQZ-RI
	 Reference Energy          =    -362.2216654619217024 [Eh]
	 Singles Energy            =      -0.0000000000000000 [Eh]
	 Same-Spin Energy          =      -0.3743728163078817 [Eh]
	 Opposite-Spin Energy      =      -1.3213902879408410 [Eh]
	 Correlation Energy        =      -1.6957631042487227 [Eh]
	 Total Energy              =    -363.9174285661704289 [Eh]

	 ================> DF-SCS-MP2 Energies <==================
	-----------------------------------------------------------
	 SCS Same-Spin Scale       =       0.3333333333333333 [-]
	 SCS Opposite-Spin Scale   =       1.2000000000000000 [-]
	 SCS Same-Spin Energy      =      -0.1247909387692939 [Eh]
	 SCS Opposite-Spin Energy  =      -1.5856683455290093 [Eh]
	 SCS Correlation Energy    =      -1.7104592842983031 [Eh]
	 SCS Total Energy          =    -363.9321247462199835 [Eh]
	-----------------------------------------------------------

*** Psi4 exiting successfully. Buy a developer a beer!
