                               Psi4 1.4a2.dev224

  ==> Input File <==

--------------------------------------------------------------------------
#Generated by lconvert.py for cbs job

memory 40 GB

molecule  {
0 1
  O       -0.2087770    -0.2168710    -1.0324060
  H        0.7111260    -0.3868920    -0.7739620
  C       -1.0221730    -0.7411710    -0.0054540
  H       -2.0574910    -0.5387070    -0.2685970
  H       -0.9077430    -1.8218260     0.1085370
  H       -0.8246310    -0.2754950     0.9646450
--
0 1
  C        2.0868330     1.9042110     0.4714170
  H        2.5932260     2.8656600     0.4365470
  H        1.6762890     1.7580750     1.4692940
  H        1.2571850     1.8946970    -0.2300880
  C        3.0024630     0.7492720     0.1555010
  O        2.5782680    -0.3706390    -0.1295800
  N        4.3286000     1.0109960     0.2147010
  H        4.6266120     1.9214240     0.5123880
  C        5.3110060    -0.0291150    -0.0080430
  H        4.9544490    -0.6800530    -0.8002200
  H        6.2513750     0.4244090    -0.3065570
  H        5.4705160    -0.6336420     0.8840320
units angstrom
no_reorient
symmetry c1
}

set {
scf_type DF
mp2_type DF
e_convergence 7
reference rhf
}

energy('mp2/aug-cc-pv[tq]z', bsse_type='cp')
--------------------------------------------------------------------------

    Molecular point group: c1
  Charge       = 0
  Multiplicity = 1
  Basis Set: AUG-CC-PVTZ
    Blend: AUG-CC-PVTZ
  Basis Set: (AUG-CC-PVTZ AUX)
    Blend: AUG-CC-PVTZ-JKFIT
  @DF-RHF Final Energy:  -247.10281438174923
    Total Energy =                       -247.1028143817492264
  Basis Set: (AUG-CC-PVTZ AUX)
    Blend: AUG-CC-PVTZ-RI
	 Reference Energy          =    -247.1028143817492264 [Eh]
	 Singles Energy            =      -0.0000000000000000 [Eh]
	 Same-Spin Energy          =      -0.2463526913356839 [Eh]
	 Opposite-Spin Energy      =      -0.8098623266258310 [Eh]
	 Correlation Energy        =      -1.0562150179615148 [Eh]
	 Total Energy              =    -248.1590293997107324 [Eh]
	 SCS Total Energy          =    -248.1567667374787902 [Eh]
    Molecular point group: c1
  Basis Set: AUG-CC-PVQZ
    Blend: AUG-CC-PVQZ
  Basis Set: (AUG-CC-PVQZ AUX)
    Blend: AUG-CC-PVQZ-JKFIT
  @DF-RHF Final Energy:  -247.11824553674569
    Total Energy =                       -247.1182455367456896
  Basis Set: (AUG-CC-PVQZ AUX)
  @DF-RHF Final Energy:  -247.10289569372512
    Total Energy =                       -247.1028956937250882
  @DF-RHF Final Energy:  -247.11827567724492
    Total Energy =                       -247.1182756772449238
  @DF-RHF Final Energy:  -115.09161084496620
    Total Energy =                       -115.0916108449661976
  @DF-RHF Final Energy:  -115.09904467385003
    Total Energy =                       -115.0990446738500310
  @DF-RHF Final Energy:  -115.09149581771244
    Total Energy =                       -115.0914958177124419
  @DF-RHF Final Energy:  -115.09900476332183
    Total Energy =                       -115.0990047633218296
  Multiplicity = 1
  @DF-RHF Final Energy:  -362.20322138175612
    Total Energy =                       -362.2032213817561228
	 Singles Energy            =      -0.0000000000000000 [Eh]
	 Same-Spin Energy          =      -0.3547741340082899 [Eh]
	 Opposite-Spin Energy      =      -1.1779154788071338 [Eh]
	 Correlation Energy        =      -1.5326896128154237 [Eh]
	 Total Energy              =    -363.7359109945715545 [Eh]
	 SCS Total Energy          =    -363.7349780009940901 [Eh]
    Molecular point group: c1

    Geometry (in Angstrom), charge = 0, multiplicity = 1:

       Center              X                  Y                   Z               Mass
    ------------   -----------------  -----------------  -----------------  -----------------
         O           -2.445074194426    -0.520655096030    -0.973338972160    15.994914619570
         H           -1.525171194426    -0.690676096030    -0.714894972160     1.007825032230
         C           -3.258470194426    -1.044955096030     0.053613027840    12.000000000000
         H           -4.293788194426    -0.842491096030    -0.209529972160     1.007825032230
         H           -3.144040194426    -2.125610096030     0.167604027840     1.007825032230
         H           -3.060928194426    -0.579279096030     1.023712027840     1.007825032230
         C           -0.149464194426     1.600426903970     0.530484027840    12.000000000000
         H            0.356928805574     2.561875903970     0.495614027840     1.007825032230
         H           -0.560008194426     1.454290903970     1.528361027840     1.007825032230
         H           -0.979112194426     1.590912903970    -0.171020972160     1.007825032230
         C            0.766165805574     0.445487903970     0.214568027840    12.000000000000
         O            0.341970805574    -0.674423096030    -0.070512972160    15.994914619570
         N            2.092302805574     0.707211903970     0.273768027840    14.003074004430
         H            2.390314805574     1.617639903970     0.571455027840     1.007825032230
         C            3.074708805574    -0.332899096030     0.051024027840    12.000000000000
         H            2.718151805574    -0.983837096030    -0.741152972160     1.007825032230
         H            4.015077805574     0.120624903970    -0.247489972160     1.007825032230
         H            3.234218805574    -0.937426096030     0.943099027840     1.007825032230

  Charge       = 0
  Multiplicity = 1
  Basis Set: AUG-CC-PVQZ
    Blend: AUG-CC-PVQZ
  Basis Set: (AUG-CC-PVQZ AUX)
    Blend: AUG-CC-PVQZ-JKFIT

    Orbital Energies [Eh]
    ---------------------

    Doubly Occupied:

       1A    -20.524292     2A    -20.521361     3A    -15.595768
       4A    -11.359157     5A    -11.264452     6A    -11.246589
       7A    -11.238933     8A     -1.388307     9A     -1.326573
      10A     -1.241873    11A     -1.027591    12A     -0.941540
      13A     -0.899812    14A     -0.803306    15A     -0.700193
      16A     -0.670684    17A     -0.661711    18A     -0.643947
      19A     -0.597325    20A     -0.592750    21A     -0.589790
      22A     -0.567701    23A     -0.564842    24A     -0.555009
      25A     -0.513916    26A     -0.478925    27A     -0.436546
      28A     -0.421041    29A     -0.405725

  @DF-RHF Final Energy:  -362.22609698886845

   => Energetics <=

    Nuclear Repulsion Energy =            311.4338351645122316
    One-Electron Energy =               -1111.7605505383580748
    Two-Electron Energy =                 438.1006183849774516
    Total Energy =                       -362.2260969888684485

  Dipole Moment: [D]
     X:     3.5816      Y:     2.8278      Z:     2.5432     Total:     5.2242

  Basis Set: (AUG-CC-PVQZ AUX)
    Blend: AUG-CC-PVQZ-RI
	 Reference Energy          =    -362.2260969888684485 [Eh]
	 Singles Energy            =      -0.0000000000000000 [Eh]
	 Same-Spin Energy          =      -0.3763319340657836 [Eh]
	 Opposite-Spin Energy      =      -1.3230673774275119 [Eh]
	 Correlation Energy        =      -1.6993993114932955 [Eh]
	 Total Energy              =    -363.9254963003617718 [Eh]

	 ================> DF-SCS-MP2 Energies <==================
	-----------------------------------------------------------
	 SCS Same-Spin Scale       =       0.3333333333333333 [-]
	 SCS Opposite-Spin Scale   =       1.2000000000000000 [-]
	 SCS Same-Spin Energy      =      -0.1254439780219279 [Eh]
	 SCS Opposite-Spin Energy  =      -1.5876808529130142 [Eh]
	 SCS Correlation Energy    =      -1.7131248309349421 [Eh]
	 SCS Total Energy          =    -363.9392218198033788 [Eh]
	-----------------------------------------------------------

*** Psi4 exiting successfully. Buy a developer a beer!
