                               Psi4 1.4a2.dev224

  ==> Input File <==

--------------------------------------------------------------------------
#Generated by lconvert.py for cbs job

memory 40 GB

molecule  {
0 1
  O       -0.2087770    -0.2168710    -1.0324060
  H        0.7111260    -0.3868920    -0.7739620
  C       -1.0221730    -0.7411710    -0.0054540
  H       -2.0574910    -0.5387070    -0.2685970
  H       -0.9077430    -1.8218260     0.1085370
  H       -0.8246310    -0.2754950     0.9646450
--
0 1
  C        1.4643890     1.8987920     0.2566020
  H        1.9707830     2.8602420     0.2217310
  H        1.0538450     1.7526570     1.2544780
  H        0.6347410     1.8892790    -0.4449040
  C        2.3800190     0.7438540    -0.0593150
  O        1.9558250    -0.3760570    -0.3443960
  N        3.7061560     1.0055780    -0.0001150
  H        4.0041690     1.9160060     0.2975720
  C        4.6885620    -0.0345330    -0.2228590
  H        4.3320050    -0.6854710    -1.0150360
  H        5.6289310     0.4189900    -0.5213730
  H        4.8480720    -0.6390600     0.6692170
units angstrom
no_reorient
symmetry c1
}

set {
scf_type DF
mp2_type DF
e_convergence 7
reference rhf
}

energy('mp2/aug-cc-pv[tq]z', bsse_type='cp')
--------------------------------------------------------------------------

    Molecular point group: c1
  Charge       = 0
  Multiplicity = 1
  Basis Set: AUG-CC-PVTZ
    Blend: AUG-CC-PVTZ
  Basis Set: (AUG-CC-PVTZ AUX)
    Blend: AUG-CC-PVTZ-JKFIT
  @DF-RHF Final Energy:  -247.10281439597915
    Total Energy =                       -247.1028143959791805
  Basis Set: (AUG-CC-PVTZ AUX)
    Blend: AUG-CC-PVTZ-RI
	 Reference Energy          =    -247.1028143959791521 [Eh]
	 Singles Energy            =      -0.0000000000000000 [Eh]
	 Same-Spin Energy          =      -0.2463526891833320 [Eh]
	 Opposite-Spin Energy      =      -0.8098623214136407 [Eh]
	 Correlation Energy        =      -1.0562150105969725 [Eh]
	 Total Energy              =    -248.1590294065761384 [Eh]
	 SCS Total Energy          =    -248.1567667447366432 [Eh]
    Molecular point group: c1
  Basis Set: AUG-CC-PVQZ
    Blend: AUG-CC-PVQZ
  Basis Set: (AUG-CC-PVQZ AUX)
    Blend: AUG-CC-PVQZ-JKFIT
  @DF-RHF Final Energy:  -247.11824555339879
    Total Energy =                       -247.1182455533988218
  Basis Set: (AUG-CC-PVQZ AUX)
  @DF-RHF Final Energy:  -247.10302868749318
    Total Energy =                       -247.1030286874931789
  @DF-RHF Final Energy:  -247.11830091404113
    Total Energy =                       -247.1183009140411286
  @DF-RHF Final Energy:  -115.09170117242112
    Total Energy =                       -115.0917011724211250
  @DF-RHF Final Energy:  -115.09906691316412
    Total Energy =                       -115.0990669131641226
  @DF-RHF Final Energy:  -115.09149581769204
    Total Energy =                       -115.0914958176920351
  @DF-RHF Final Energy:  -115.09900476341043
    Total Energy =                       -115.0990047634104343
  Multiplicity = 1
  @DF-RHF Final Energy:  -362.17692270244692
    Total Energy =                       -362.1769227024469160
	 Singles Energy            =      -0.0000000000000000 [Eh]
	 Same-Spin Energy          =      -0.3590973612562733 [Eh]
	 Opposite-Spin Energy      =      -1.1817054184659717 [Eh]
	 Correlation Energy        =      -1.5408027797222450 [Eh]
	 Total Energy              =    -363.7177254821691577 [Eh]
	 SCS Total Energy          =    -363.7146683250248316 [Eh]
    Molecular point group: c1

    Geometry (in Angstrom), charge = 0, multiplicity = 1:

       Center              X                  Y                   Z               Mass
    ------------   -----------------  -----------------  -----------------  -----------------
         O           -2.012340291436    -0.516888282842    -0.823995214534    15.994914619570
         H           -1.092437291436    -0.686909282842    -0.565551214534     1.007825032230
         C           -2.825736291436    -1.041188282842     0.202956785466    12.000000000000
         H           -3.861054291436    -0.838724282842    -0.060186214534     1.007825032230
         H           -2.711306291436    -2.121843282842     0.316947785466     1.007825032230
         H           -2.628194291436    -0.575512282842     1.173055785466     1.007825032230
         C           -0.339174291436     1.598774717158     0.465012785466    12.000000000000
         H            0.167219708564     2.560224717158     0.430141785466     1.007825032230
         H           -0.749718291436     1.452639717158     1.462888785466     1.007825032230
         H           -1.168822291436     1.589261717158    -0.236493214534     1.007825032230
         C            0.576455708564     0.443836717158     0.149095785466    12.000000000000
         O            0.152261708564    -0.676074282842    -0.135985214534    15.994914619570
         N            1.902592708564     0.705560717158     0.208295785466    14.003074004430
         H            2.200605708564     1.615988717158     0.505982785466     1.007825032230
         C            2.884998708564    -0.334550282842    -0.014448214534    12.000000000000
         H            2.528441708564    -0.985488282842    -0.806625214534     1.007825032230
         H            3.825367708564     0.118972717158    -0.312962214534     1.007825032230
         H            3.044508708564    -0.939077282842     0.877627785466     1.007825032230

  Charge       = 0
  Multiplicity = 1
  Basis Set: AUG-CC-PVQZ
    Blend: AUG-CC-PVQZ
  Basis Set: (AUG-CC-PVQZ AUX)
    Blend: AUG-CC-PVQZ-JKFIT

    Orbital Energies [Eh]
    ---------------------

    Doubly Occupied:

       1A    -20.537040     2A    -20.471283     3A    -15.607072
       4A    -11.374231     5A    -11.271525     6A    -11.239930
       7A    -11.228997     8A     -1.418744     9A     -1.297195
      10A     -1.253167    11A     -1.033980    12A     -0.948220
      13A     -0.886508    14A     -0.821859    15A     -0.710605
      16A     -0.702695    17A     -0.664145    18A     -0.651796
      19A     -0.599177    20A     -0.583680    21A     -0.579610
      22A     -0.567846    23A     -0.557434    24A     -0.543486
      25A     -0.523777    26A     -0.479699    27A     -0.425574
      28A     -0.410237    29A     -0.389587

  @DF-RHF Final Energy:  -362.19967174381082

   => Energetics <=

    Nuclear Repulsion Energy =            327.2939900516536795
    One-Electron Energy =               -1143.4291316803094105
    Two-Electron Energy =                 453.9354698848448493
    Total Energy =                       -362.1996717438108249

  Dipole Moment: [D]
     X:     4.5692      Y:     3.0972      Z:     2.5846     Total:     6.0951

  Basis Set: (AUG-CC-PVQZ AUX)
    Blend: AUG-CC-PVQZ-RI
	 Reference Energy          =    -362.1996717438108249 [Eh]
	 Singles Energy            =      -0.0000000000000000 [Eh]
	 Same-Spin Energy          =      -0.3807291275279006 [Eh]
	 Opposite-Spin Energy      =      -1.3263952509678660 [Eh]
	 Correlation Energy        =      -1.7071243784957666 [Eh]
	 Total Energy              =    -363.9067961223066163 [Eh]

	 ================> DF-SCS-MP2 Energies <==================
	-----------------------------------------------------------
	 SCS Same-Spin Scale       =       0.3333333333333333 [-]
	 SCS Opposite-Spin Scale   =       1.2000000000000000 [-]
	 SCS Same-Spin Energy      =      -0.1269097091759668 [Eh]
	 SCS Opposite-Spin Energy  =      -1.5916743011614392 [Eh]
	 SCS Correlation Energy    =      -1.7185840103374059 [Eh]
	 SCS Total Energy          =    -363.9182557541482197 [Eh]
	-----------------------------------------------------------

*** Psi4 exiting successfully. Buy a developer a beer!
