                               Psi4 1.4a2.dev224

  ==> Input File <==

--------------------------------------------------------------------------
#Generated by lconvert.py for cbs job

memory 40 GB

molecule  {
0 1
  O       -0.2087770    -0.2168710    -1.0324060
  H        0.7111260    -0.3868920    -0.7739620
  C       -1.0221730    -0.7411710    -0.0054540
  H       -2.0574910    -0.5387070    -0.2685970
  H       -0.9077430    -1.8218260     0.1085370
  H       -0.8246310    -0.2754950     0.9646450
--
0 1
  C        1.9090190     1.9026630     0.4100510
  H        2.4154120     2.8641120     0.3751810
  H        1.4984750     1.7565270     1.4079280
  H        1.0793710     1.8931500    -0.2914550
  C        2.8246490     0.7477240     0.0941350
  O        2.4004540    -0.3721870    -0.1909470
  N        4.1507860     1.0094480     0.1533340
  H        4.4487980     1.9198760     0.4510210
  C        5.1331920    -0.0306630    -0.0694100
  H        4.7766350    -0.6816000    -0.8615870
  H        6.0735610     0.4228610    -0.3679230
  H        5.2927020    -0.6351900     0.8226660
units angstrom
no_reorient
symmetry c1
}

set {
scf_type DF
mp2_type DF
e_convergence 7
reference rhf
}

energy('mp2/aug-cc-pv[tq]z', bsse_type='cp')
--------------------------------------------------------------------------

    Molecular point group: c1
  Charge       = 0
  Multiplicity = 1
  Basis Set: AUG-CC-PVTZ
    Blend: AUG-CC-PVTZ
  Basis Set: (AUG-CC-PVTZ AUX)
    Blend: AUG-CC-PVTZ-JKFIT
  @DF-RHF Final Energy:  -247.10281435858332
    Total Energy =                       -247.1028143585833163
  Basis Set: (AUG-CC-PVTZ AUX)
    Blend: AUG-CC-PVTZ-RI
	 Reference Energy          =    -247.1028143585833163 [Eh]
	 Singles Energy            =      -0.0000000000000000 [Eh]
	 Same-Spin Energy          =      -0.2463526944822061 [Eh]
	 Opposite-Spin Energy      =      -0.8098623415327657 [Eh]
	 Correlation Energy        =      -1.0562150360149718 [Eh]
	 Total Energy              =    -248.1590293945982921 [Eh]
	 SCS Total Energy          =    -248.1567667332500378 [Eh]
    Molecular point group: c1
  Basis Set: AUG-CC-PVQZ
    Blend: AUG-CC-PVQZ
  Basis Set: (AUG-CC-PVQZ AUX)
    Blend: AUG-CC-PVQZ-JKFIT
  @DF-RHF Final Energy:  -247.11824551340416
    Total Energy =                       -247.1182455134041902
  Basis Set: (AUG-CC-PVQZ AUX)
  @DF-RHF Final Energy:  -247.10292570801906
    Total Energy =                       -247.1029257080190860
  @DF-RHF Final Energy:  -247.11828125858102
    Total Energy =                       -247.1182812585810211
  @DF-RHF Final Energy:  -115.09163317374943
    Total Energy =                       -115.0916331737494289
  @DF-RHF Final Energy:  -115.09904983798458
    Total Energy =                       -115.0990498379845803
  @DF-RHF Final Energy:  -115.09149581764518
    Total Energy =                       -115.0914958176451819
  @DF-RHF Final Energy:  -115.09900476342224
    Total Energy =                       -115.0990047634222435
  Multiplicity = 1
  @DF-RHF Final Energy:  -362.20218499024230
    Total Energy =                       -362.2021849902423014
	 Singles Energy            =      -0.0000000000000000 [Eh]
	 Same-Spin Energy          =      -0.3556278521293370 [Eh]
	 Opposite-Spin Energy      =      -1.1787212854582001 [Eh]
	 Correlation Energy        =      -1.5343491375875371 [Eh]
	 Total Energy              =    -363.7365341278298274 [Eh]
	 SCS Total Energy          =    -363.7351931501685840 [Eh]
    Molecular point group: c1

    Geometry (in Angstrom), charge = 0, multiplicity = 1:

       Center              X                  Y                   Z               Mass
    ------------   -----------------  -----------------  -----------------  -----------------
         O           -2.321454757652    -0.519578918242    -0.930675815478    15.994914619570
         H           -1.401551757652    -0.689599918242    -0.672231815478     1.007825032230
         C           -3.134850757652    -1.043878918242     0.096276184522    12.000000000000
         H           -4.170168757652    -0.841414918242    -0.166866815478     1.007825032230
         H           -3.020420757652    -2.124533918242     0.210267184522     1.007825032230
         H           -2.937308757652    -0.578202918242     1.066375184522     1.007825032230
         C           -0.203658757652     1.599955081758     0.511781184522    12.000000000000
         H            0.302734242348     2.561404081758     0.476911184522     1.007825032230
         H           -0.614202757652     1.453819081758     1.509658184522     1.007825032230
         H           -1.033306757652     1.590442081758    -0.189724815478     1.007825032230
         C            0.711971242348     0.445016081758     0.195865184522    12.000000000000
         O            0.287776242348    -0.674894918242    -0.089216815478    15.994914619570
         N            2.038108242348     0.706740081758     0.255064184522    14.003074004430
         H            2.336120242348     1.617168081758     0.552751184522     1.007825032230
         C            3.020514242348    -0.333370918242     0.032320184522    12.000000000000
         H            2.663957242348    -0.984307918242    -0.759856815478     1.007825032230
         H            3.960883242348     0.120153081758    -0.266192815478     1.007825032230
         H            3.180024242348    -0.937897918242     0.924396184522     1.007825032230

  Charge       = 0
  Multiplicity = 1
  Basis Set: AUG-CC-PVQZ
    Blend: AUG-CC-PVQZ
  Basis Set: (AUG-CC-PVQZ AUX)
    Blend: AUG-CC-PVQZ-JKFIT

    Orbital Energies [Eh]
    ---------------------

    Doubly Occupied:

       1A    -20.527197     2A    -20.512378     3A    -15.597859
       4A    -11.362030     5A    -11.265793     6A    -11.243026
       7A    -11.238914     8A     -1.392979     9A     -1.320258
      10A     -1.244302    11A     -1.028668    12A     -0.942777
      13A     -0.896243    14A     -0.806383    15A     -0.701961
      16A     -0.674757    17A     -0.660698    18A     -0.645339
      19A     -0.595412    20A     -0.593230    21A     -0.588850
      22A     -0.565999    23A     -0.562237    24A     -0.555372
      25A     -0.516596    26A     -0.476382    27A     -0.436892
      28A     -0.415215    29A     -0.408141

  @DF-RHF Final Energy:  -362.22502740454070

   => Energetics <=

    Nuclear Repulsion Energy =            315.4594416170396016
    One-Electron Energy =               -1119.8171671579382291
    Two-Electron Energy =                 442.1326981363579307
    Total Energy =                       -362.2250274045406968

  Dipole Moment: [D]
     X:     3.7673      Y:     2.8778      Z:     2.5494     Total:     5.3827

  Basis Set: (AUG-CC-PVQZ AUX)
    Blend: AUG-CC-PVQZ-RI
	 Reference Energy          =    -362.2250274045406968 [Eh]
	 Singles Energy            =      -0.0000000000000000 [Eh]
	 Same-Spin Energy          =      -0.3771906285024028 [Eh]
	 Opposite-Spin Energy      =      -1.3237348553295503 [Eh]
	 Correlation Energy        =      -1.7009254838319530 [Eh]
	 Total Energy              =    -363.9259528883726489 [Eh]

	 ================> DF-SCS-MP2 Energies <==================
	-----------------------------------------------------------
	 SCS Same-Spin Scale       =       0.3333333333333333 [-]
	 SCS Opposite-Spin Scale   =       1.2000000000000000 [-]
	 SCS Same-Spin Energy      =      -0.1257302095008009 [Eh]
	 SCS Opposite-Spin Energy  =      -1.5884818263954603 [Eh]
	 SCS Correlation Energy    =      -1.7142120358962614 [Eh]
	 SCS Total Energy          =    -363.9392394404369497 [Eh]
	-----------------------------------------------------------

*** Psi4 exiting successfully. Buy a developer a beer!
