                               Psi4 1.4a2.dev224

  ==> Input File <==

--------------------------------------------------------------------------
#Generated by lconvert.py for cbs job

memory 40 GB

molecule  {
0 1
  O       -0.2087770    -0.2168710    -1.0324060
  H        0.7111260    -0.3868920    -0.7739620
  C       -1.0221730    -0.7411710    -0.0054540
  H       -2.0574910    -0.5387070    -0.2685970
  H       -0.9077430    -1.8218260     0.1085370
  H       -0.8246310    -0.2754950     0.9646450
--
0 1
  C        2.1757400     1.9049850     0.5021010
  H        2.6821330     2.8664340     0.4672300
  H        1.7651960     1.7588490     1.4999770
  H        1.3460920     1.8954710    -0.1994050
  C        3.0913700     0.7500460     0.1861850
  O        2.6671750    -0.3698650    -0.0988970
  N        4.4175070     1.0117700     0.2453840
  H        4.7155200     1.9221980     0.5430710
  C        5.3999130    -0.0283410     0.0226400
  H        5.0433560    -0.6792790    -0.7695370
  H        6.3402820     0.4251830    -0.2758740
  H        5.5594230    -0.6328680     0.9147160
units angstrom
no_reorient
symmetry c1
}

set {
scf_type DF
mp2_type DF
e_convergence 7
reference rhf
}

energy('mp2/aug-cc-pv[tq]z', bsse_type='cp')
--------------------------------------------------------------------------

    Molecular point group: c1
  Charge       = 0
  Multiplicity = 1
  Basis Set: AUG-CC-PVTZ
    Blend: AUG-CC-PVTZ
  Basis Set: (AUG-CC-PVTZ AUX)
    Blend: AUG-CC-PVTZ-JKFIT
  @DF-RHF Final Energy:  -247.10281434973945
    Total Energy =                       -247.1028143497394467
  Basis Set: (AUG-CC-PVTZ AUX)
    Blend: AUG-CC-PVTZ-RI
	 Reference Energy          =    -247.1028143497394467 [Eh]
	 Singles Energy            =      -0.0000000000000000 [Eh]
	 Same-Spin Energy          =      -0.2463526976285803 [Eh]
	 Opposite-Spin Energy      =      -0.8098623470346454 [Eh]
	 Correlation Energy        =      -1.0562150446632257 [Eh]
	 Total Energy              =    -248.1590293944026655 [Eh]
	 SCS Total Energy          =    -248.1567667320572070 [Eh]
    Molecular point group: c1
  Basis Set: AUG-CC-PVQZ
    Blend: AUG-CC-PVQZ
  Basis Set: (AUG-CC-PVQZ AUX)
    Blend: AUG-CC-PVQZ-JKFIT
  @DF-RHF Final Energy:  -247.11824550293321
    Total Energy =                       -247.1182455029331777
  Basis Set: (AUG-CC-PVQZ AUX)
  @DF-RHF Final Energy:  -247.10288640572199
    Total Energy =                       -247.1028864057219607
  @DF-RHF Final Energy:  -247.11827387069431
    Total Energy =                       -247.1182738706942814
  @DF-RHF Final Energy:  -115.09160202612377
    Total Energy =                       -115.0916020261237662
  @DF-RHF Final Energy:  -115.09904222296086
    Total Energy =                       -115.0990422229608612
  @DF-RHF Final Energy:  -115.09149581768639
    Total Energy =                       -115.0914958176863934
  @DF-RHF Final Energy:  -115.09900476345855
    Total Energy =                       -115.0990047634585522
  Multiplicity = 1
  @DF-RHF Final Energy:  -362.20315731557804
    Total Energy =                       -362.2031573155780393
	 Singles Energy            =      -0.0000000000000000 [Eh]
	 Same-Spin Energy          =      -0.3544332057141196 [Eh]
	 Opposite-Spin Energy      =      -1.1775776566109075 [Eh]
	 Correlation Energy        =      -1.5320108623250270 [Eh]
	 Total Energy              =    -363.7351681779030628 [Eh]
	 SCS Total Energy          =    -363.7343949054158543 [Eh]
    Molecular point group: c1

    Geometry (in Angstrom), charge = 0, multiplicity = 1:

       Center              X                  Y                   Z               Mass
    ------------   -----------------  -----------------  -----------------  -----------------
         O           -2.506883922405    -0.521193194516    -0.994670574264    15.994914619570
         H           -1.586980922405    -0.691214194516    -0.736226574264     1.007825032230
         C           -3.320279922405    -1.045493194516     0.032281425736    12.000000000000
         H           -4.355597922405    -0.843029194516    -0.230861574264     1.007825032230
         H           -3.205849922405    -2.126148194516     0.146272425736     1.007825032230
         H           -3.122737922405    -0.579817194516     1.002380425736     1.007825032230
         C           -0.122366922405     1.600662805484     0.539836425736    12.000000000000
         H            0.384026077595     2.562111805484     0.504965425736     1.007825032230
         H           -0.532910922405     1.454526805484     1.537712425736     1.007825032230
         H           -0.952014922405     1.591148805484    -0.161669574264     1.007825032230
         C            0.793263077595     0.445723805484     0.223920425736    12.000000000000
         O            0.369068077595    -0.674187194516    -0.061161574264    15.994914619570
         N            2.119400077595     0.707447805484     0.283119425736    14.003074004430
         H            2.417413077595     1.617875805484     0.580806425736     1.007825032230
         C            3.101806077595    -0.332663194516     0.060375425736    12.000000000000
         H            2.745249077595    -0.983601194516    -0.731801574264     1.007825032230
         H            4.042175077595     0.120860805484    -0.238138574264     1.007825032230
         H            3.261316077595    -0.937190194516     0.952451425736     1.007825032230

  Charge       = 0
  Multiplicity = 1
  Basis Set: AUG-CC-PVQZ
    Blend: AUG-CC-PVQZ
  Basis Set: (AUG-CC-PVQZ AUX)
    Blend: AUG-CC-PVQZ-JKFIT

    Orbital Energies [Eh]
    ---------------------

    Doubly Occupied:

       1A    -20.524883     2A    -20.523026     3A    -15.594927
       4A    -11.357993     5A    -11.263908     6A    -11.248074
       7A    -11.238972     8A     -1.386526     9A     -1.329182
      10A     -1.240891    11A     -1.027172    12A     -0.941043
      13A     -0.901370    14A     -0.802140    15A     -0.699499
      16A     -0.669852    17A     -0.661984    18A     -0.643357
      19A     -0.598511    20A     -0.592397    21A     -0.589695
      22A     -0.569733    23A     -0.564673    24A     -0.554720
      25A     -0.512819    26A     -0.480360    27A     -0.435877
      28A     -0.423417    29A     -0.404667

  @DF-RHF Final Energy:  -362.22603615709545

   => Energetics <=

    Nuclear Repulsion Energy =            309.5445317826946621
    One-Electron Energy =               -1107.9778139980262495
    Two-Electron Energy =                 436.2072460582361373
    Total Energy =                       -362.2260361570954501

  Dipole Moment: [D]
     X:     3.5075      Y:     2.8076      Z:     2.5411     Total:     5.1616

  Basis Set: (AUG-CC-PVQZ AUX)
    Blend: AUG-CC-PVQZ-RI
	 Reference Energy          =    -362.2260361570954501 [Eh]
	 Singles Energy            =      -0.0000000000000000 [Eh]
	 Same-Spin Energy          =      -0.3759916280404060 [Eh]
	 Opposite-Spin Energy      =      -1.3227980438501183 [Eh]
	 Correlation Energy        =      -1.6987896718905244 [Eh]
	 Total Energy              =    -363.9248258289860019 [Eh]

	 ================> DF-SCS-MP2 Energies <==================
	-----------------------------------------------------------
	 SCS Same-Spin Scale       =       0.3333333333333333 [-]
	 SCS Opposite-Spin Scale   =       1.2000000000000000 [-]
	 SCS Same-Spin Energy      =      -0.1253305426801353 [Eh]
	 SCS Opposite-Spin Energy  =      -1.5873576526201421 [Eh]
	 SCS Correlation Energy    =      -1.7126881953002773 [Eh]
	 SCS Total Energy          =    -363.9387243523957522 [Eh]
	-----------------------------------------------------------

*** Psi4 exiting successfully. Buy a developer a beer!
