                               Psi4 1.4a2.dev224

  ==> Input File <==

--------------------------------------------------------------------------
#Generated by lconvert.py for cbs job

memory 40 GB

molecule  {
0 1
  O       -0.2087770    -0.2168710    -1.0324060
  H        0.7111260    -0.3868920    -0.7739620
  C       -1.0221730    -0.7411710    -0.0054540
  H       -2.0574910    -0.5387070    -0.2685970
  H       -0.9077430    -1.8218260     0.1085370
  H       -0.8246310    -0.2754950     0.9646450
--
0 1
  C        1.4643890     1.8987920     0.2566020
  H        1.9707830     2.8602420     0.2217310
  H        1.0538450     1.7526570     1.2544780
  H        0.6347410     1.8892790    -0.4449040
  C        2.3800190     0.7438540    -0.0593150
  O        1.9558250    -0.3760570    -0.3443960
  N        3.7061560     1.0055780    -0.0001150
  H        4.0041690     1.9160060     0.2975720
  C        4.6885620    -0.0345330    -0.2228590
  H        4.3320050    -0.6854710    -1.0150360
  H        5.6289310     0.4189900    -0.5213730
  H        4.8480720    -0.6390600     0.6692170
units angstrom
no_reorient
symmetry c1
}

set {
scf_type DF
mp2_type DF
e_convergence 7
reference rhf
}

energy('mp2/aug-cc-pv[tq]z', bsse_type='cp')
--------------------------------------------------------------------------

    Molecular point group: c1
  Charge       = 0
  Multiplicity = 1
  Basis Set: AUG-CC-PVTZ
    Blend: AUG-CC-PVTZ
  Basis Set: (AUG-CC-PVTZ AUX)
    Blend: AUG-CC-PVTZ-JKFIT
  @DF-RHF Final Energy:  -247.10281439597915
    Total Energy =                       -247.1028143959791805
  Basis Set: (AUG-CC-PVTZ AUX)
    Blend: AUG-CC-PVTZ-RI
	 Reference Energy          =    -247.1028143959791521 [Eh]
	 Singles Energy            =      -0.0000000000000000 [Eh]
	 Same-Spin Energy          =      -0.2463526891833320 [Eh]
	 Opposite-Spin Energy      =      -0.8098623214136407 [Eh]
	 Correlation Energy        =      -1.0562150105969725 [Eh]
	 Total Energy              =    -248.1590294065761384 [Eh]
	 SCS Total Energy          =    -248.1567667447366432 [Eh]
    Molecular point group: c1
  Basis Set: AUG-CC-PVQZ
    Blend: AUG-CC-PVQZ
  Basis Set: (AUG-CC-PVQZ AUX)
    Blend: AUG-CC-PVQZ-JKFIT
  @DF-RHF Final Energy:  -247.11824555339879
    Total Energy =                       -247.1182455533988218
  Basis Set: (AUG-CC-PVQZ AUX)
  @DF-RHF Final Energy:  -247.10302868749318
    Total Energy =                       -247.1030286874931789
  @DF-RHF Final Energy:  -247.11830091404113
    Total Energy =                       -247.1183009140411286
  @DF-RHF Final Energy:  -115.09170117242112
    Total Energy =                       -115.0917011724211250
  @DF-RHF Final Energy:  -115.09906691316412
    Total Energy =                       -115.0990669131641226
  @DF-RHF Final Energy:  -115.09149581769204
    Total Energy =                       -115.0914958176920351
  @DF-RHF Final Energy:  -115.09900476341043
    Total Energy =                       -115.0990047634104343
  @DF-RHF Final Energy:  -362.17692270244692
    Total Energy =                       -362.1769227024469160
  @DF-RHF Final Energy:  -362.19967174381082
    Total Energy =                       -362.1996717438108249
*** Psi4 exiting successfully. Buy a developer a beer!
                               Psi4 1.4a2.dev224
  @DF-RHF Final Energy:  -247.10281448329846
    Total Energy =                       -247.1028144832984594
  @DF-RHF Final Energy:  -247.11824564398518
    Total Energy =                       -247.1182456439851762
  @DF-RHF Final Energy:  -247.10298547180147
    Total Energy =                       -247.1029854718014462
  @DF-RHF Final Energy:  -247.11829219488470
    Total Energy =                       -247.1182921948847024
  @DF-RHF Final Energy:  -115.09167169061793
    Total Energy =                       -115.0916716906179289
  @DF-RHF Final Energy:  -115.09905909171235
    Total Energy =                       -115.0990590917123484
  @DF-RHF Final Energy:  -115.09149581768459
    Total Energy =                       -115.0914958176845886
  @DF-RHF Final Energy:  -115.09900476338115
    Total Energy =                       -115.0990047633811457
  @DF-RHF Final Energy:  -362.19368969279225
    Total Energy =                       -362.1936896927922476
  @DF-RHF Final Energy:  -362.21645234589522
    Total Energy =                       -362.2164523458952203
*** Psi4 exiting successfully. Buy a developer a beer!
                               Psi4 1.4a2.dev224
                               Psi4 1.4a2.dev224
                               Psi4 1.4a2.dev224
                               Psi4 1.4a2.dev224
                               Psi4 1.4a2.dev224
                               Psi4 1.4a2.dev224
                               Psi4 1.4a2.dev224
  @DF-RHF Final Energy:  -247.10281460475676
    Total Energy =                       -247.1028146047567589
  @DF-RHF Final Energy:  -247.11824577532559
    Total Energy =                       -247.1182457753255903
  @DF-RHF Final Energy:  -247.10284338072000
    Total Energy =                       -247.1028433807200031
  @DF-RHF Final Energy:  -247.11825741466041
    Total Energy =                       -247.1182574146604338
  @DF-RHF Final Energy:  -115.09154075296800
    Total Energy =                       -115.0915407529680010
  @DF-RHF Final Energy:  -115.09902209774027
    Total Energy =                       -115.0990220977402743
  @DF-RHF Final Energy:  -115.09149522588302
    Total Energy =                       -115.0914952258830226
  @DF-RHF Final Energy:  -115.09900414646543
    Total Energy =                       -115.0990041464654325
  @DF-RHF Final Energy:  -362.19877502740792
    Total Energy =                       -362.1987750274079190
  @DF-RHF Final Energy:  -362.22166546192170
    Total Energy =                       -362.2216654619217024
*** Psi4 exiting successfully. Buy a developer a beer!
                               Psi4 1.4a2.dev224
  @DF-RHF Final Energy:  -247.10281461658099
    Total Energy =                       -247.1028146165809858
  @DF-RHF Final Energy:  -247.11824578840839
    Total Energy =                       -247.1182457884083874
  @DF-RHF Final Energy:  -247.10283129873835
    Total Energy =                       -247.1028312987383515
  @DF-RHF Final Energy:  -247.11825238523951
    Total Energy =                       -247.1182523852395434
  @DF-RHF Final Energy:  -115.09152463883520
    Total Energy =                       -115.0915246388351960
  @DF-RHF Final Energy:  -115.09901618739440
    Total Energy =                       -115.0990161873943975
  @DF-RHF Final Energy:  -115.09149522592270
    Total Energy =                       -115.0914952259226993
  @DF-RHF Final Energy:  -115.09900414644427
    Total Energy =                       -115.0990041464442726
  Multiplicity = 1
  @DF-RHF Final Energy:  -362.19707607466711
    Total Energy =                       -362.1970760746671090
	 Singles Energy            =      -0.0000000000000000 [Eh]
	 Same-Spin Energy          =      -0.3524920316770707 [Eh]
	 Opposite-Spin Energy      =      -1.1751313838281376 [Eh]
	 Correlation Energy        =      -1.5276234155052082 [Eh]
	 Total Energy              =    -363.7246994901723269 [Eh]
	 SCS Total Energy          =    -363.7247310791532300 [Eh]
    Molecular point group: c1

    Geometry (in Angstrom), charge = 0, multiplicity = 1:

       Center              X                  Y                   Z               Mass
    ------------   -----------------  -----------------  -----------------  -----------------
         O           -3.495841893439    -0.529801465832    -1.335975666223    15.994914619570
         H           -2.575931893439    -0.699821465832    -1.077525666223     1.007825032230
         C           -4.309231893439    -1.054101465832    -0.309015666223    12.000000000000
         H           -5.344551893439    -0.851641465832    -0.572165666223     1.007825032230
         H           -4.194801893439    -2.134761465832    -0.195025666223     1.007825032230
         H           -4.111691893439    -0.588421465832     0.661074333777     1.007825032230
         C            0.311188106561     1.604438534168     0.689464333777    12.000000000000
         H            0.817578106561     2.565888534168     0.654594333777     1.007825032230
         H           -0.099351893439     1.458298534168     1.687334333777     1.007825032230
         H           -0.518461893439     1.594928534168    -0.012045666223     1.007825032230
         C            1.226818106561     0.449498534168     0.373544333777    12.000000000000
         O            0.802628106561    -0.670411465832     0.088464333777    15.994914619570
         N            2.552958106561     0.711218534168     0.432744333777    14.003074004430
         H            2.850968106561     1.621648534168     0.730434333777     1.007825032230
         C            3.535358106561    -0.328891465832     0.210004333777    12.000000000000
         H            3.178808106561    -0.979831465832    -0.582175666223     1.007825032230
         H            4.475728106561     0.124638534168    -0.088515666223     1.007825032230
         H            3.694878106561    -0.933411465832     1.102074333777     1.007825032230

  Charge       = 0
  Multiplicity = 1
  Basis Set: AUG-CC-PVQZ
    Blend: AUG-CC-PVQZ
  Basis Set: (AUG-CC-PVQZ AUX)
    Blend: AUG-CC-PVQZ-JKFIT

    Orbital Energies [Eh]
    ---------------------

    Doubly Occupied:

       1A    -20.546917     2A    -20.512732     3A    -15.588975
       4A    -11.349770     5A    -11.259950     6A    -11.259594
       7A    -11.238700     8A     -1.375365     9A     -1.347759
      10A     -1.234116    11A     -1.023931    12A     -0.937340
      13A     -0.914056    14A     -0.795023    15A     -0.694663
      16A     -0.680630    17A     -0.656258    18A     -0.638660
      19A     -0.610598    20A     -0.589849    21A     -0.585338
      22A     -0.583360    23A     -0.562016    24A     -0.551430
      25A     -0.505267    26A     -0.493933    27A     -0.440104
      28A     -0.426271    29A     -0.396743

  @DF-RHF Final Energy:  -362.21998465546409

   => Energetics <=

    Nuclear Repulsion Energy =            287.1909572361539631
    One-Electron Energy =               -1063.2231985765790796
    Two-Electron Energy =                 413.8122566849610280
    Total Energy =                       -362.2199846554640885

  Dipole Moment: [D]
     X:     3.0249      Y:     2.6663      Z:     2.5291     Total:     4.7598

  Basis Set: (AUG-CC-PVQZ AUX)
    Blend: AUG-CC-PVQZ-RI
	 Reference Energy          =    -362.2199846554640885 [Eh]
	 Singles Energy            =      -0.0000000000000000 [Eh]
	 Same-Spin Energy          =      -0.3740905420796048 [Eh]
	 Opposite-Spin Energy      =      -1.3211331598646405 [Eh]
	 Correlation Energy        =      -1.6952237019442453 [Eh]
	 Total Energy              =    -363.9152083574083463 [Eh]

	 ================> DF-SCS-MP2 Energies <==================
	-----------------------------------------------------------
	 SCS Same-Spin Scale       =       0.3333333333333333 [-]
	 SCS Opposite-Spin Scale   =       1.2000000000000000 [-]
	 SCS Same-Spin Energy      =      -0.1246968473598683 [Eh]
	 SCS Opposite-Spin Energy  =      -1.5853597918375686 [Eh]
	 SCS Correlation Energy    =      -1.7100566391974368 [Eh]
	 SCS Total Energy          =    -363.9300412946615211 [Eh]
	-----------------------------------------------------------

*** Psi4 exiting successfully. Buy a developer a beer!
