                               Psi4 1.4a2.dev224

  ==> Input File <==

--------------------------------------------------------------------------
#Generated by lconvert.py for cbs job

memory 40 GB

molecule  {
0 1
  O       -0.2087770    -0.2168710    -1.0324060
  H        0.7111260    -0.3868920    -0.7739620
  C       -1.0221730    -0.7411710    -0.0054540
  H       -2.0574910    -0.5387070    -0.2685970
  H       -0.9077430    -1.8218260     0.1085370
  H       -0.8246310    -0.2754950     0.9646450
--
0 1
  C        1.8201120     1.9018890     0.3793680
  H        2.3265050     2.8633380     0.3444970
  H        1.4095670     1.7557530     1.3772440
  H        0.9904640     1.8923760    -0.3221380
  C        2.7357420     0.7469500     0.0634510
  O        2.3115470    -0.3729610    -0.2216300
  N        4.0618790     1.0086740     0.1226510
  H        4.3598910     1.9191030     0.4203380
  C        5.0442850    -0.0314370    -0.1000930
  H        4.6877280    -0.6823740    -0.8922700
  H        5.9846540     0.4220870    -0.3986070
  H        5.2037950    -0.6359640     0.7919820
units angstrom
no_reorient
symmetry c1
}

set {
scf_type DF
mp2_type DF
e_convergence 7
reference rhf
}

energy('mp2/aug-cc-pv[tq]z', bsse_type='cp')
--------------------------------------------------------------------------

    Molecular point group: c1
  Charge       = 0
  Multiplicity = 1
  Basis Set: AUG-CC-PVTZ
    Blend: AUG-CC-PVTZ
  Basis Set: (AUG-CC-PVTZ AUX)
    Blend: AUG-CC-PVTZ-JKFIT
  @DF-RHF Final Energy:  -247.10281436047933
    Total Energy =                       -247.1028143604793286
  Basis Set: (AUG-CC-PVTZ AUX)
    Blend: AUG-CC-PVTZ-RI
	 Reference Energy          =    -247.1028143604793286 [Eh]
	 Singles Energy            =      -0.0000000000000000 [Eh]
	 Same-Spin Energy          =      -0.2463526962547856 [Eh]
	 Opposite-Spin Energy      =      -0.8098623420609979 [Eh]
	 Correlation Energy        =      -1.0562150383157836 [Eh]
	 Total Energy              =    -248.1590293987950986 [Eh]
	 SCS Total Energy          =    -248.1567667363707983 [Eh]
    Molecular point group: c1
  Basis Set: AUG-CC-PVQZ
    Blend: AUG-CC-PVQZ
  Basis Set: (AUG-CC-PVQZ AUX)
    Blend: AUG-CC-PVQZ-JKFIT
  @DF-RHF Final Energy:  -247.11824551454100
    Total Energy =                       -247.1182455145410017
  Basis Set: (AUG-CC-PVQZ AUX)
  @DF-RHF Final Energy:  -247.10294423510476
    Total Energy =                       -247.1029442351047578
  @DF-RHF Final Energy:  -247.11828490457651
    Total Energy =                       -247.1182849045765124
  @DF-RHF Final Energy:  -115.09164597143157
    Total Energy =                       -115.0916459714315749
  @DF-RHF Final Energy:  -115.09905267430030
    Total Energy =                       -115.0990526743002960
  @DF-RHF Final Energy:  -115.09149581769651
    Total Energy =                       -115.0914958176965115
  @DF-RHF Final Energy:  -115.09900476336168
    Total Energy =                       -115.0990047633616769
  Multiplicity = 1
  @DF-RHF Final Energy:  -362.20065244204284
    Total Energy =                       -362.2006524420428377
	 Singles Energy            =      -0.0000000000000000 [Eh]
	 Same-Spin Energy          =      -0.3561558386003117 [Eh]
	 Opposite-Spin Energy      =      -1.1792026249499068 [Eh]
	 Correlation Energy        =      -1.5353584635502184 [Eh]
	 Total Energy              =    -363.7360109055930479 [Eh]
	 SCS Total Energy          =    -363.7344142048494859 [Eh]
    Molecular point group: c1

    Geometry (in Angstrom), charge = 0, multiplicity = 1:

       Center              X                  Y                   Z               Mass
    ------------   -----------------  -----------------  -----------------  -----------------
         O           -2.259645029673    -0.519040829348    -0.909344298800    15.994914619570
         H           -1.339742029673    -0.689061829348    -0.650900298800     1.007825032230
         C           -3.073041029673    -1.043340829348     0.117607701200    12.000000000000
         H           -4.108359029673    -0.840876829348    -0.145535298800     1.007825032230
         H           -2.958611029673    -2.123995829348     0.231598701200     1.007825032230
         H           -2.875499029673    -0.577664829348     1.087706701200     1.007825032230
         C           -0.230756029673     1.599719170652     0.502429701200    12.000000000000
         H            0.275636970327     2.561168170652     0.467558701200     1.007825032230
         H           -0.641301029673     1.453583170652     1.500305701200     1.007825032230
         H           -1.060404029673     1.590206170652    -0.199076298800     1.007825032230
         C            0.684873970327     0.444780170652     0.186512701200    12.000000000000
         O            0.260678970327    -0.675130829348    -0.098568298800    15.994914619570
         N            2.011010970327     0.706504170652     0.245712701200    14.003074004430
         H            2.309022970327     1.616933170652     0.543399701200     1.007825032230
         C            2.993416970327    -0.333606829348     0.022968701200    12.000000000000
         H            2.636859970327    -0.984543829348    -0.769208298800     1.007825032230
         H            3.933785970327     0.119917170652    -0.275545298800     1.007825032230
         H            3.152926970327    -0.938133829348     0.915043701200     1.007825032230

  Charge       = 0
  Multiplicity = 1
  Basis Set: AUG-CC-PVQZ
    Blend: AUG-CC-PVQZ
  Basis Set: (AUG-CC-PVQZ AUX)
    Blend: AUG-CC-PVQZ-JKFIT

    Orbital Energies [Eh]
    ---------------------

    Doubly Occupied:

       1A    -20.528858     2A    -20.506645     3A    -15.599167
       4A    -11.363808     5A    -11.266623     6A    -11.240882
       7A    -11.238959     8A     -1.396093     9A     -1.316460
      10A     -1.245797    11A     -1.029368    12A     -0.943552
      13A     -0.894238    14A     -0.808425    15A     -0.703095
      16A     -0.678075    17A     -0.660406    18A     -0.646177
      19A     -0.595361    20A     -0.592580    21A     -0.587686
      22A     -0.566288    23A     -0.559883    24A     -0.554974
      25A     -0.518201    26A     -0.475618    27A     -0.436081
      28A     -0.412020    29A     -0.409104

  @DF-RHF Final Energy:  -362.22346706932433

   => Energetics <=

    Nuclear Repulsion Energy =            317.6078650274285451
    One-Electron Energy =               -1124.1138193521771882
    Two-Electron Energy =                 444.2824872554243711
    Total Energy =                       -362.2234670693243288

  Dipole Moment: [D]
     X:     3.8836      Y:     2.9090      Z:     2.5538     Total:     5.4833

  Basis Set: (AUG-CC-PVQZ AUX)
    Blend: AUG-CC-PVQZ-RI
	 Reference Energy          =    -362.2234670693243288 [Eh]
	 Singles Energy            =      -0.0000000000000000 [Eh]
	 Same-Spin Energy          =      -0.3777264395528701 [Eh]
	 Opposite-Spin Energy      =      -1.3241485864699398 [Eh]
	 Correlation Energy        =      -1.7018750260228099 [Eh]
	 Total Energy              =    -363.9253420953471618 [Eh]

	 ================> DF-SCS-MP2 Energies <==================
	-----------------------------------------------------------
	 SCS Same-Spin Scale       =       0.3333333333333333 [-]
	 SCS Opposite-Spin Scale   =       1.2000000000000000 [-]
	 SCS Same-Spin Energy      =      -0.1259088131842900 [Eh]
	 SCS Opposite-Spin Energy  =      -1.5889783037639278 [Eh]
	 SCS Correlation Energy    =      -1.7148871169482178 [Eh]
	 SCS Total Energy          =    -363.9383541862725338 [Eh]
	-----------------------------------------------------------

*** Psi4 exiting successfully. Buy a developer a beer!
