                               Psi4 1.4a2.dev224

  ==> Input File <==

--------------------------------------------------------------------------
#Generated by lconvert.py for cbs job

memory 20 GB

molecule  {
0 1
  O      -0.208780   -0.216870   -1.032410
  H       0.711130   -0.386890   -0.773960
  C      -1.022170   -0.741170   -0.005450
  H      -2.057490   -0.538710   -0.268600
  H      -0.907740   -1.821830    0.108540
  H      -0.824630   -0.275490    0.964640
--
0 1
  C       2.531370    1.908080    0.624830
  H       3.037760    2.869530    0.589960
  H       2.120820    1.761950    1.622710
  H       1.701720    1.898570   -0.076670
  C       3.447000    0.753140    0.308920
  O       3.022800   -0.366770    0.023830
  N       4.773130    1.014870    0.368120
  H       5.071150    1.925290    0.665800
  C       5.755540   -0.025250    0.145370
  H       5.398980   -0.676180   -0.646800
  H       6.695910    0.428280   -0.153140
  H       5.915050   -0.629770    1.037450
units angstrom
no_reorient
symmetry c1
}

set {
scf_type DF
mp2_type DF
e_convergence 7
reference rhf
}

energy('mp2/aug-cc-pv[tq]z', bsse_type='cp')
--------------------------------------------------------------------------

    Molecular point group: c1
  Charge       = 0
  Multiplicity = 1
  Basis Set: AUG-CC-PVTZ
    Blend: AUG-CC-PVTZ
  Basis Set: (AUG-CC-PVTZ AUX)
    Blend: AUG-CC-PVTZ-JKFIT
  @DF-RHF Final Energy:  -247.10281440253402
    Total Energy =                       -247.1028144025340225
  Basis Set: (AUG-CC-PVTZ AUX)
    Blend: AUG-CC-PVTZ-RI
	 Reference Energy          =    -247.1028144025340225 [Eh]
	 Singles Energy            =      -0.0000000000000000 [Eh]
	 Same-Spin Energy          =      -0.2463526369783158 [Eh]
	 Opposite-Spin Energy      =      -0.8098622917253533 [Eh]
	 Correlation Energy        =      -1.0562149287036691 [Eh]
	 Total Energy              =    -248.1590293312376900 [Eh]
	 SCS Total Energy          =    -248.1567666982638798 [Eh]
    Molecular point group: c1
  Basis Set: AUG-CC-PVQZ
    Blend: AUG-CC-PVQZ
  Basis Set: (AUG-CC-PVQZ AUX)
    Blend: AUG-CC-PVQZ-JKFIT
  @DF-RHF Final Energy:  -247.11824555136957
    Total Energy =                       -247.1182455513695686
  Basis Set: (AUG-CC-PVQZ AUX)
  @DF-RHF Final Energy:  -247.10286725968461
    Total Energy =                       -247.1028672596846150
  @DF-RHF Final Energy:  -247.11826651110761
    Total Energy =                       -247.1182665111076062
  @DF-RHF Final Energy:  -115.09157170201883
    Total Energy =                       -115.0915717020188254
  @DF-RHF Final Energy:  -115.09903284065685
    Total Energy =                       -115.0990328406568466
  @DF-RHF Final Energy:  -115.09149522587310
    Total Energy =                       -115.0914952258731034
  @DF-RHF Final Energy:  -115.09900414635361
    Total Energy =                       -115.0990041463536073
  Multiplicity = 1
  @DF-RHF Final Energy:  -362.20150504649496
    Total Energy =                       -362.2015050464949582
	 Singles Energy            =      -0.0000000000000000 [Eh]
	 Same-Spin Energy          =      -0.3534837762565277 [Eh]
	 Opposite-Spin Energy      =      -1.1765323431787515 [Eh]
	 Correlation Energy        =      -1.5300161194352793 [Eh]
	 Total Energy              =    -363.7315211659302463 [Eh]
	 SCS Total Energy          =    -363.7311717837283140 [Eh]
    Molecular point group: c1

    Geometry (in Angstrom), charge = 0, multiplicity = 1:

       Center              X                  Y                   Z               Mass
    ------------   -----------------  -----------------  -----------------  -----------------
         O           -2.754124911124    -0.523344418019    -1.079999470162    15.994914619570
         H           -1.834214911124    -0.693364418019    -0.821549470162     1.007825032230
         C           -3.567514911124    -1.047644418019    -0.053039470162    12.000000000000
         H           -4.602834911124    -0.845184418019    -0.316189470162     1.007825032230
         H           -3.453084911124    -2.128304418019     0.060950529838     1.007825032230
         H           -3.369974911124    -0.581964418019     0.917050529838     1.007825032230
         C           -0.013974911124     1.601605581981     0.577240529838    12.000000000000
         H            0.492415088876     2.563055581981     0.542370529838     1.007825032230
         H           -0.424524911124     1.455475581981     1.575120529838     1.007825032230
         H           -0.843624911124     1.592095581981    -0.124259470162     1.007825032230
         C            0.901655088876     0.446665581981     0.261330529838    12.000000000000
         O            0.477455088876    -0.673244418019    -0.023759470162    15.994914619570
         N            2.227785088876     0.708395581981     0.320530529838    14.003074004430
         H            2.525805088876     1.618815581981     0.618210529838     1.007825032230
         C            3.210195088876    -0.331724418019     0.097780529838    12.000000000000
         H            2.853635088876    -0.982654418019    -0.694389470162     1.007825032230
         H            4.150565088876     0.121805581981    -0.200729470162     1.007825032230
         H            3.369705088876    -0.936244418019     0.989860529838     1.007825032230

  Charge       = 0
  Multiplicity = 1
  Basis Set: AUG-CC-PVQZ
    Blend: AUG-CC-PVQZ
  Basis Set: (AUG-CC-PVQZ AUX)
    Blend: AUG-CC-PVQZ-JKFIT

    Orbital Energies [Eh]
    ---------------------

    Doubly Occupied:

       1A    -20.534732     2A    -20.518966     3A    -15.592465
       4A    -11.354564     5A    -11.262297     6A    -11.252615
       7A    -11.239130     8A     -1.381599     9A     -1.336955
      10A     -1.238037    11A     -1.025960    12A     -0.939582
      13A     -0.906309    14A     -0.798973    15A     -0.697513
      16A     -0.671882    17A     -0.660469    18A     -0.641520
      19A     -0.602889    20A     -0.591447    21A     -0.587869
      22A     -0.576169    23A     -0.563802    24A     -0.553615
      25A     -0.509618    26A     -0.485520    27A     -0.432883
      28A     -0.430071    29A     -0.401418

  @DF-RHF Final Energy:  -362.22437819284312

   => Energetics <=

    Nuclear Repulsion Energy =            302.6970514307462281
    One-Electron Energy =               -1094.2651298114074052
    Two-Electron Energy =                 429.3437001878180581
    Total Energy =                       -362.2243781928431190

  Dipole Moment: [D]
     X:     3.2960      Y:     2.7482      Z:     2.5362     Total:     4.9848

  Basis Set: (AUG-CC-PVQZ AUX)
    Blend: AUG-CC-PVQZ-RI
	 Reference Energy          =    -362.2243781928431190 [Eh]
	 Singles Energy            =      -0.0000000000000000 [Eh]
	 Same-Spin Energy          =      -0.3750496343404233 [Eh]
	 Opposite-Spin Energy      =      -1.3220107621924468 [Eh]
	 Correlation Energy        =      -1.6970603965328701 [Eh]
	 Total Energy              =    -363.9214385893760095 [Eh]

	 ================> DF-SCS-MP2 Energies <==================
	-----------------------------------------------------------
	 SCS Same-Spin Scale       =       0.3333333333333333 [-]
	 SCS Opposite-Spin Scale   =       1.2000000000000000 [-]
	 SCS Same-Spin Energy      =      -0.1250165447801411 [Eh]
	 SCS Opposite-Spin Energy  =      -1.5864129146309363 [Eh]
	 SCS Correlation Energy    =      -1.7114294594110773 [Eh]
	 SCS Total Energy          =    -363.9358076522541978 [Eh]
	-----------------------------------------------------------

*** Psi4 exiting successfully. Buy a developer a beer!
