                               Psi4 1.4a2.dev224

  ==> Input File <==

--------------------------------------------------------------------------
#Generated by lconvert.py for cbs job

memory 40 GB

molecule  {
0 1
  O       -0.2087770    -0.2168710    -1.0324060
  H        0.7111260    -0.3868920    -0.7739620
  C       -1.0221730    -0.7411710    -0.0054540
  H       -2.0574910    -0.5387070    -0.2685970
  H       -0.9077430    -1.8218260     0.1085370
  H       -0.8246310    -0.2754950     0.9646450
--
0 1
  C        1.6422030     1.9003400     0.3179680
  H        2.1485970     2.8617890     0.2830980
  H        1.2316590     1.7542040     1.3158450
  H        0.8125550     1.8908270    -0.3835370
  C        2.5578330     0.7454010     0.0020520
  O        2.1336390    -0.3745090    -0.2830290
  N        3.8839700     1.0071260     0.0612510
  H        4.1819830     1.9175540     0.3589390
  C        4.8663760    -0.0329860    -0.1614920
  H        4.5098190    -0.6839230    -0.9536690
  H        5.8067460     0.4205380    -0.4600060
  H        5.0258860    -0.6375120     0.7305830
units angstrom
no_reorient
symmetry c1
}

set {
scf_type DF
mp2_type DF
e_convergence 7
reference rhf
}

energy('mp2/aug-cc-pv[tq]z', bsse_type='cp')
--------------------------------------------------------------------------

    Molecular point group: c1
  Charge       = 0
  Multiplicity = 1
  Basis Set: AUG-CC-PVTZ
    Blend: AUG-CC-PVTZ
  Basis Set: (AUG-CC-PVTZ AUX)
    Blend: AUG-CC-PVTZ-JKFIT
  @DF-RHF Final Energy:  -247.10281448329846
    Total Energy =                       -247.1028144832984594
  Basis Set: (AUG-CC-PVTZ AUX)
    Blend: AUG-CC-PVTZ-RI
	 Reference Energy          =    -247.1028144832984594 [Eh]
	 Singles Energy            =      -0.0000000000000000 [Eh]
	 Same-Spin Energy          =      -0.2463526651558925 [Eh]
	 Opposite-Spin Energy      =      -0.8098622763126244 [Eh]
	 Correlation Energy        =      -1.0562149414685169 [Eh]
	 Total Energy              =    -248.1590294247669704 [Eh]
	 SCS Total Energy          =    -248.1567667699255821 [Eh]
    Molecular point group: c1
  Basis Set: AUG-CC-PVQZ
    Blend: AUG-CC-PVQZ
  Basis Set: (AUG-CC-PVQZ AUX)
    Blend: AUG-CC-PVQZ-JKFIT
  @DF-RHF Final Energy:  -247.11824564398518
    Total Energy =                       -247.1182456439851762
  Basis Set: (AUG-CC-PVQZ AUX)
  @DF-RHF Final Energy:  -247.10298547180147
    Total Energy =                       -247.1029854718014462
  @DF-RHF Final Energy:  -247.11829219488470
    Total Energy =                       -247.1182921948847024
  @DF-RHF Final Energy:  -115.09167169061793
    Total Energy =                       -115.0916716906179289
  @DF-RHF Final Energy:  -115.09905909171235
    Total Energy =                       -115.0990590917123484
  @DF-RHF Final Energy:  -115.09149581768459
    Total Energy =                       -115.0914958176845886
  @DF-RHF Final Energy:  -115.09900476338115
    Total Energy =                       -115.0990047633811457
  Multiplicity = 1
  @DF-RHF Final Energy:  -362.19368969279225
    Total Energy =                       -362.1936896927922476
	 Singles Energy            =      -0.0000000000000000 [Eh]
	 Same-Spin Energy          =      -0.3574525502661137 [Eh]
	 Opposite-Spin Energy      =      -1.1803453130324559 [Eh]
	 Correlation Energy        =      -1.5377978632985696 [Eh]
	 Total Energy              =    -363.7314875560908263 [Eh]
	 SCS Total Energy          =    -363.7292549185199277 [Eh]
    Molecular point group: c1

    Geometry (in Angstrom), charge = 0, multiplicity = 1:

       Center              X                  Y                   Z               Mass
    ------------   -----------------  -----------------  -----------------  -----------------
         O           -2.135959737801    -0.517964232231    -0.866658380926    15.994914619570
         H           -1.216056737801    -0.687985232231    -0.608214380926     1.007825032230
         C           -2.949355737801    -1.042264232231     0.160293619074    12.000000000000
         H           -3.984673737801    -0.839800232231    -0.102849380926     1.007825032230
         H           -2.834925737801    -2.122919232231     0.274284619074     1.007825032230
         H           -2.751813737801    -0.576588232231     1.130392619074     1.007825032230
         C           -0.284979737801     1.599246767769     0.483715619074    12.000000000000
         H            0.221414262199     2.560695767769     0.448845619074     1.007825032230
         H           -0.695523737801     1.453110767769     1.481592619074     1.007825032230
         H           -1.114627737801     1.589733767769    -0.217789380926     1.007825032230
         C            0.630650262199     0.444307767769     0.167799619074    12.000000000000
         O            0.206456262199    -0.675602232231    -0.117281380926    15.994914619570
         N            1.956787262199     0.706032767769     0.226998619074    14.003074004430
         H            2.254800262199     1.616460767769     0.524686619074     1.007825032230
         C            2.939193262199    -0.334079232231     0.004255619074    12.000000000000
         H            2.582636262199    -0.985016232231    -0.787921380926     1.007825032230
         H            3.879563262199     0.119444767769    -0.294258380926     1.007825032230
         H            3.098703262199    -0.938605232231     0.896330619074     1.007825032230

  Charge       = 0
  Multiplicity = 1
  Basis Set: AUG-CC-PVQZ
    Blend: AUG-CC-PVQZ
  Basis Set: (AUG-CC-PVQZ AUX)
    Blend: AUG-CC-PVQZ-JKFIT

    Orbital Energies [Eh]
    ---------------------

    Doubly Occupied:

       1A    -20.532652     2A    -20.491839     3A    -15.602496
       4A    -11.368263     5A    -11.268710     6A    -11.239245
       7A    -11.235676     8A     -1.404767     9A     -1.307447
      10A     -1.249393    11A     -1.031235    12A     -0.945525
      13A     -0.889977    14A     -0.813947    15A     -0.706077
      16A     -0.687900    17A     -0.661130    18A     -0.648366
      19A     -0.596754    20A     -0.589017    21A     -0.584277
      22A     -0.567032    23A     -0.558135    24A     -0.549924
      25A     -0.521764    26A     -0.476146    27A     -0.431213
      28A     -0.412903    29A     -0.401876

  @DF-RHF Final Energy:  -362.21645234589522

   => Energetics <=

    Nuclear Repulsion Energy =            322.2152208583402739
    One-Electron Energy =               -1133.3159772588205669
    Two-Electron Energy =                 448.8843040545851295
    Total Energy =                       -362.2164523458952203

  Dipole Moment: [D]
     X:     4.1767      Y:     2.9883      Z:     2.5664     Total:     5.7412

  Basis Set: (AUG-CC-PVQZ AUX)
    Blend: AUG-CC-PVQZ-RI
	 Reference Energy          =    -362.2164523458952203 [Eh]
	 Singles Energy            =      -0.0000000000000000 [Eh]
	 Same-Spin Energy          =      -0.3790530082209292 [Eh]
	 Opposite-Spin Energy      =      -1.3251736285427980 [Eh]
	 Correlation Energy        =      -1.7042266367637273 [Eh]
	 Total Energy              =    -363.9206789826589556 [Eh]

	 ================> DF-SCS-MP2 Energies <==================
	-----------------------------------------------------------
	 SCS Same-Spin Scale       =       0.3333333333333333 [-]
	 SCS Opposite-Spin Scale   =       1.2000000000000000 [-]
	 SCS Same-Spin Energy      =      -0.1263510027403097 [Eh]
	 SCS Opposite-Spin Energy  =      -1.5902083542513574 [Eh]
	 SCS Correlation Energy    =      -1.7165593569916671 [Eh]
	 SCS Total Energy          =    -363.9330117028869154 [Eh]
	-----------------------------------------------------------

*** Psi4 exiting successfully. Buy a developer a beer!
