                               Psi4 1.4a2.dev224

  ==> Input File <==

--------------------------------------------------------------------------
#Generated by lconvert.py for cbs job

memory 20 GB

molecule  {
0 1
  O      -0.786560    0.045170   -0.007190
  H       0.177710    0.012700   -0.006830
  C      -1.247990   -1.290280    0.001080
  H      -2.334280   -1.258900    0.000220
  H      -0.925970   -1.849770   -0.880450
  H      -0.927030   -1.838460    0.890080
--
0 1
  O       3.947670   -0.111030   -0.002790
  H       4.386880    0.277120   -0.762660
  H       4.385560    0.291570    0.750300
units angstrom
no_reorient
symmetry c1
}

set {
scf_type DF
mp2_type DF
e_convergence 7
reference rhf
}

energy('mp2/aug-cc-pv[tq]z', bsse_type='cp')
--------------------------------------------------------------------------

    Molecular point group: c1
  Charge       = 0
  Multiplicity = 1
  Basis Set: AUG-CC-PVTZ
    Blend: AUG-CC-PVTZ
  Basis Set: (AUG-CC-PVTZ AUX)
    Blend: AUG-CC-PVTZ-JKFIT
  @DF-RHF Final Energy:   -76.06040098025127
    Total Energy =                        -76.0604009802512735
  Basis Set: (AUG-CC-PVTZ AUX)
    Blend: AUG-CC-PVTZ-RI
	 Reference Energy          =     -76.0604009802512735 [Eh]
	 Singles Energy            =      -0.0000000000000000 [Eh]
	 Same-Spin Energy          =      -0.0683861203120096 [Eh]
	 Opposite-Spin Energy      =      -0.2153025203771157 [Eh]
	 Correlation Energy        =      -0.2836886406891253 [Eh]
	 Total Energy              =     -76.3440896209403945 [Eh]
	 SCS Total Energy          =     -76.3415593781411559 [Eh]
    Molecular point group: c1
  Basis Set: AUG-CC-PVQZ
    Blend: AUG-CC-PVQZ
  Basis Set: (AUG-CC-PVQZ AUX)
    Blend: AUG-CC-PVQZ-JKFIT
  @DF-RHF Final Energy:   -76.06578234103954
    Total Energy =                        -76.0657823410395508
  Basis Set: (AUG-CC-PVQZ AUX)
  @DF-RHF Final Energy:   -76.06041011021537
    Total Energy =                        -76.0604101102153578
  @DF-RHF Final Energy:   -76.06578672564561
    Total Energy =                        -76.0657867256456086
  @DF-RHF Final Energy:  -115.09189302875835
    Total Energy =                       -115.0918930287583493
  @DF-RHF Final Energy:  -115.09940604996699
    Total Energy =                       -115.0994060499669871
  @DF-RHF Final Energy:  -115.09188320763384
    Total Energy =                       -115.0918832076338418
  @DF-RHF Final Energy:  -115.09940320635104
    Total Energy =                       -115.0994032063510417
  Multiplicity = 1
  @DF-RHF Final Energy:  -191.15399276623626
    Total Energy =                       -191.1539927662362572
	 Singles Energy            =      -0.0000000000000000 [Eh]
	 Same-Spin Energy          =      -0.1742643628722050 [Eh]
	 Opposite-Spin Energy      =      -0.5800449077771268 [Eh]
	 Correlation Energy        =      -0.7543092706493317 [Eh]
	 Total Energy              =    -191.9083020368856012 [Eh]
	 SCS Total Energy          =    -191.9081347765262251 [Eh]
    Molecular point group: c1

    Geometry (in Angstrom), charge = 0, multiplicity = 1:

       Center              X                  Y                   Z               Mass
    ------------   -----------------  -----------------  -----------------  -----------------
         O           -1.593685171171     0.463595953279    -0.004070647886    15.994914619570
         H           -0.629415171171     0.431125953279    -0.003710647886     1.007825032230
         C           -2.055115171171    -0.871854046721     0.004199352114    12.000000000000
         H           -3.141405171171    -0.840474046721     0.003339352114     1.007825032230
         H           -1.733095171171    -1.431344046721    -0.877330647886     1.007825032230
         H           -1.734155171171    -1.420034046721     0.893199352114     1.007825032230
         O            3.140544828829     0.307395953279     0.000329352114    15.994914619570
         H            3.579754828829     0.695545953279    -0.759540647886     1.007825032230
         H            3.578434828829     0.709995953279     0.753419352114     1.007825032230

  Charge       = 0
  Multiplicity = 1
  Basis Set: AUG-CC-PVQZ
    Blend: AUG-CC-PVQZ
  Basis Set: (AUG-CC-PVQZ AUX)
    Blend: AUG-CC-PVQZ-JKFIT

    Orbital Energies [Eh]
    ---------------------

    Doubly Occupied:

       1A    -20.572813     2A    -20.549669     3A    -11.262231
       4A     -1.359432     5A     -1.351410     6A     -0.917827
       7A     -0.722999     8A     -0.684577     9A     -0.613529
      10A     -0.593571    11A     -0.587999    12A     -0.518153
      13A     -0.497081    14A     -0.443643

  @DF-RHF Final Energy:  -191.16687754145673

   => Energetics <=

    Nuclear Repulsion Energy =             68.3680625583443771
    One-Electron Energy =                -397.7200111880737268
    Two-Electron Energy =                 138.1850710882726219
    Total Energy =                       -191.1668775414567278

  Dipole Moment: [D]
     X:     2.6269      Y:    -0.1359      Z:    -0.0020     Total:     2.6304

  Basis Set: (AUG-CC-PVQZ AUX)
    Blend: AUG-CC-PVQZ-RI
	 Reference Energy          =    -191.1668775414567278 [Eh]
	 Singles Energy            =      -0.0000000000000000 [Eh]
	 Same-Spin Energy          =      -0.1853206139736535 [Eh]
	 Opposite-Spin Energy      =      -0.6548617395489592 [Eh]
	 Correlation Energy        =      -0.8401823535226127 [Eh]
	 Total Energy              =    -192.0070598949793350 [Eh]

	 ================> DF-SCS-MP2 Energies <==================
	-----------------------------------------------------------
	 SCS Same-Spin Scale       =       0.3333333333333333 [-]
	 SCS Opposite-Spin Scale   =       1.2000000000000000 [-]
	 SCS Same-Spin Energy      =      -0.0617735379912178 [Eh]
	 SCS Opposite-Spin Energy  =      -0.7858340874587511 [Eh]
	 SCS Correlation Energy    =      -0.8476076254499689 [Eh]
	 SCS Total Energy          =    -192.0144851669066952 [Eh]
	-----------------------------------------------------------

*** Psi4 exiting successfully. Buy a developer a beer!
