                               Psi4 1.4a2.dev224

  ==> Input File <==

--------------------------------------------------------------------------
#Generated by lconvert.py for cbs job

memory 40 GB

molecule  {
0 1
  O       -0.7865620     0.0451680    -0.0071890
  H        0.1777070     0.0126960    -0.0068350
  C       -1.2479910    -1.2902840     0.0010840
  H       -2.3342770    -1.2588970     0.0002210
  H       -0.9259660    -1.8497680    -0.8804450
  H       -0.9270280    -1.8384630     0.8900770
--
0 1
  O        1.9635350    -0.0459100    -0.0049180
  H        2.4027390     0.3422420    -0.7647910
  H        2.4014190     0.3566940     0.7481710
units angstrom
no_reorient
symmetry c1
}

set {
scf_type DF
mp2_type DF
e_convergence 7
reference rhf
}

energy('mp2/aug-cc-pv[tq]z', bsse_type='cp')
--------------------------------------------------------------------------

    Molecular point group: c1
  Charge       = 0
  Multiplicity = 1
  Basis Set: AUG-CC-PVTZ
    Blend: AUG-CC-PVTZ
  Basis Set: (AUG-CC-PVTZ AUX)
    Blend: AUG-CC-PVTZ-JKFIT
  @DF-RHF Final Energy:   -76.06040105751924
    Total Energy =                        -76.0604010575192433
  Basis Set: (AUG-CC-PVTZ AUX)
    Blend: AUG-CC-PVTZ-RI
	 Reference Energy          =     -76.0604010575192433 [Eh]
	 Singles Energy            =      -0.0000000000000000 [Eh]
	 Same-Spin Energy          =      -0.0683861019172100 [Eh]
	 Opposite-Spin Energy      =      -0.2153024660655256 [Eh]
	 Correlation Energy        =      -0.2836885679827356 [Eh]
	 Total Energy              =     -76.3440896255019794 [Eh]
	 SCS Total Energy          =     -76.3415593841036042 [Eh]
    Molecular point group: c1
  Basis Set: AUG-CC-PVQZ
    Blend: AUG-CC-PVQZ
  Basis Set: (AUG-CC-PVQZ AUX)
    Blend: AUG-CC-PVQZ-JKFIT
  @DF-RHF Final Energy:   -76.06578242152472
    Total Energy =                        -76.0657824215247160
  Basis Set: (AUG-CC-PVQZ AUX)
  @DF-RHF Final Energy:   -76.06050225498016
    Total Energy =                        -76.0605022549801504
  @DF-RHF Final Energy:   -76.06582435117988
    Total Energy =                        -76.0658243511798844
  @DF-RHF Final Energy:  -115.09195824942722
    Total Energy =                       -115.0919582494272220
  @DF-RHF Final Energy:  -115.09942508663850
    Total Energy =                       -115.0994250866385045
  @DF-RHF Final Energy:  -115.09188333964623
    Total Energy =                       -115.0918833396462304
  @DF-RHF Final Energy:  -115.09940334517950
    Total Energy =                       -115.0994033451794962
  Multiplicity = 1
  @DF-RHF Final Energy:  -191.15643260833093
    Total Energy =                       -191.1564326083309311
	 Singles Energy            =      -0.0000000000000000 [Eh]
	 Same-Spin Energy          =      -0.1763706018358016 [Eh]
	 Opposite-Spin Energy      =      -0.5824423219125390 [Eh]
	 Correlation Energy        =      -0.7588129237483405 [Eh]
	 Total Energy              =    -191.9152455320792683 [Eh]
	 SCS Total Energy          =    -191.9141535952379058 [Eh]
    Molecular point group: c1

    Geometry (in Angstrom), charge = 0, multiplicity = 1:

       Center              X                  Y                   Z               Mass
    ------------   -----------------  -----------------  -----------------  -----------------
         O           -0.879503680519     0.440155753878    -0.003304839796    15.994914619570
         H            0.084765319481     0.407683753878    -0.002950839796     1.007825032230
         C           -1.340932680519    -0.895296246122     0.004968160204    12.000000000000
         H           -2.427218680519    -0.863909246122     0.004105160204     1.007825032230
         H           -1.018907680519    -1.454780246122    -0.876560839796     1.007825032230
         H           -1.019969680519    -1.443475246122     0.893961160204     1.007825032230
         O            1.870593319481     0.349077753878    -0.001033839796    15.994914619570
         H            2.309797319481     0.737229753878    -0.760906839796     1.007825032230
         H            2.308477319481     0.751681753878     0.752055160204     1.007825032230

  Charge       = 0
  Multiplicity = 1
  Basis Set: AUG-CC-PVQZ
    Blend: AUG-CC-PVQZ
  Basis Set: (AUG-CC-PVQZ AUX)
    Blend: AUG-CC-PVQZ-JKFIT

    Orbital Energies [Eh]
    ---------------------

    Doubly Occupied:

       1A    -20.595033     2A    -20.519911     3A    -11.247582
       4A     -1.386576     5A     -1.326928     6A     -0.902162
       7A     -0.746926     8A     -0.683638     9A     -0.611799
      10A     -0.596009    11A     -0.570350    12A     -0.542867
      13A     -0.473474    14A     -0.422241

  @DF-RHF Final Energy:  -191.16928189921131

   => Energetics <=

    Nuclear Repulsion Energy =             80.3011785574288695
    One-Electron Energy =                -421.6899292380776387
    Two-Electron Energy =                 150.2194687814374277
    Total Energy =                       -191.1692818992113132

  Dipole Moment: [D]
     X:     3.3079      Y:     0.0362      Z:    -0.0026     Total:     3.3081

  Basis Set: (AUG-CC-PVQZ AUX)
    Blend: AUG-CC-PVQZ-RI
	 Reference Energy          =    -191.1692818992113132 [Eh]
	 Singles Energy            =      -0.0000000000000000 [Eh]
	 Same-Spin Energy          =      -0.1874185116492249 [Eh]
	 Opposite-Spin Energy      =      -0.6566294387397345 [Eh]
	 Correlation Energy        =      -0.8440479503889593 [Eh]
	 Total Energy              =    -192.0133298496002681 [Eh]

	 ================> DF-SCS-MP2 Energies <==================
	-----------------------------------------------------------
	 SCS Same-Spin Scale       =       0.3333333333333333 [-]
	 SCS Opposite-Spin Scale   =       1.2000000000000000 [-]
	 SCS Same-Spin Energy      =      -0.0624728372164083 [Eh]
	 SCS Opposite-Spin Energy  =      -0.7879553264876813 [Eh]
	 SCS Correlation Energy    =      -0.8504281637040896 [Eh]
	 SCS Total Energy          =    -192.0197100629154079 [Eh]
	-----------------------------------------------------------

*** Psi4 exiting successfully. Buy a developer a beer!
