                               Psi4 1.4a2.dev224

  ==> Input File <==

--------------------------------------------------------------------------
#Generated by lconvert.py for cbs job

memory 40 GB

molecule  {
0 1
  O       -0.7865620     0.0451680    -0.0071890
  H        0.1777070     0.0126960    -0.0068350
  C       -1.2479910    -1.2902840     0.0010840
  H       -2.3342770    -1.2588970     0.0002210
  H       -0.9259660    -1.8497680    -0.8804450
  H       -0.9270280    -1.8384630     0.8900770
--
0 1
  O        1.5666060    -0.0328840    -0.0053450
  H        2.0058100     0.3552680    -0.7652170
  H        2.0044910     0.3697200     0.7477450
units angstrom
no_reorient
symmetry c1
}

set {
scf_type DF
mp2_type DF
e_convergence 7
reference rhf
}

energy('mp2/aug-cc-pv[tq]z', bsse_type='cp')
--------------------------------------------------------------------------

    Molecular point group: c1
  Charge       = 0
  Multiplicity = 1
  Basis Set: AUG-CC-PVTZ
    Blend: AUG-CC-PVTZ
  Basis Set: (AUG-CC-PVTZ AUX)
    Blend: AUG-CC-PVTZ-JKFIT
  @DF-RHF Final Energy:   -76.06040103811145
    Total Energy =                        -76.0604010381114506
  Basis Set: (AUG-CC-PVTZ AUX)
    Blend: AUG-CC-PVTZ-RI
	 Reference Energy          =     -76.0604010381114506 [Eh]
	 Singles Energy            =      -0.0000000000000000 [Eh]
	 Same-Spin Energy          =      -0.0683861065291231 [Eh]
	 Opposite-Spin Energy      =      -0.2153024799238052 [Eh]
	 Correlation Energy        =      -0.2836885864529284 [Eh]
	 Total Energy              =     -76.3440896245643756 [Eh]
	 SCS Total Energy          =     -76.3415593828630534 [Eh]
    Molecular point group: c1
  Basis Set: AUG-CC-PVQZ
    Blend: AUG-CC-PVQZ
  Basis Set: (AUG-CC-PVQZ AUX)
    Blend: AUG-CC-PVQZ-JKFIT
  @DF-RHF Final Energy:   -76.06578240096741
    Total Energy =                        -76.0657824009674073
  Basis Set: (AUG-CC-PVQZ AUX)
  @DF-RHF Final Energy:   -76.06056863760843
    Total Energy =                        -76.0605686376084122
  @DF-RHF Final Energy:   -76.06584166001824
    Total Energy =                        -76.0658416600182363
  @DF-RHF Final Energy:  -115.09201232290471
    Total Energy =                       -115.0920123229047078
  @DF-RHF Final Energy:  -115.09943436843649
    Total Energy =                       -115.0994343684364907
  @DF-RHF Final Energy:  -115.09188333969563
    Total Energy =                       -115.0918833396956273
  @DF-RHF Final Energy:  -115.09940334518009
    Total Energy =                       -115.0994033451800931
  Multiplicity = 1
  @DF-RHF Final Energy:  -191.13763825645145
    Total Energy =                       -191.1376382564514529
	 Singles Energy            =      -0.0000000000000000 [Eh]
	 Same-Spin Energy          =      -0.1787212474781250 [Eh]
	 Opposite-Spin Energy      =      -0.5843661367655572 [Eh]
	 Correlation Energy        =      -0.7630873842436821 [Eh]
	 Total Energy              =    -191.9007256406951285 [Eh]
	 SCS Total Energy          =    -191.8984513697294858 [Eh]
    Molecular point group: c1

    Geometry (in Angstrom), charge = 0, multiplicity = 1:

       Center              X                  Y                   Z               Mass
    ------------   -----------------  -----------------  -----------------  -----------------
         O           -0.736630487985     0.435467090494    -0.003151182915    15.994914619570
         H            0.227638512015     0.402995090494    -0.002797182915     1.007825032230
         C           -1.198059487985    -0.899984909506     0.005121817085    12.000000000000
         H           -2.284345487985    -0.868597909506     0.004258817085     1.007825032230
         H           -0.876034487985    -1.459468909506    -0.876407182915     1.007825032230
         H           -0.877096487985    -1.448163909506     0.894114817085     1.007825032230
         O            1.616537512015     0.357415090494    -0.001307182915    15.994914619570
         H            2.055741512015     0.745567090494    -0.761179182915     1.007825032230
         H            2.054422512015     0.760019090494     0.751782817085     1.007825032230

  Charge       = 0
  Multiplicity = 1
  Basis Set: AUG-CC-PVQZ
    Blend: AUG-CC-PVQZ
  Basis Set: (AUG-CC-PVQZ AUX)
    Blend: AUG-CC-PVQZ-JKFIT

    Orbital Energies [Eh]
    ---------------------

    Doubly Occupied:

       1A    -20.609029     2A    -20.491658     3A    -11.237803
       4A     -1.414742     5A     -1.308196     6A     -0.894647
       7A     -0.766155     8A     -0.722271     9A     -0.606740
      10A     -0.584097    11A     -0.571771    12A     -0.538263
      13A     -0.449976    14A     -0.405548

  @DF-RHF Final Energy:  -191.15039413574752

   => Energetics <=

    Nuclear Repulsion Energy =             84.8598808474905297
    One-Electron Energy =                -430.8187567037213626
    Two-Electron Energy =                 154.8084817204833428
    Total Energy =                       -191.1503941357475185

  Dipole Moment: [D]
     X:     3.8723      Y:     0.2048      Z:    -0.0034     Total:     3.8777

  Basis Set: (AUG-CC-PVQZ AUX)
    Blend: AUG-CC-PVQZ-RI
	 Reference Energy          =    -191.1503941357475185 [Eh]
	 Singles Energy            =      -0.0000000000000000 [Eh]
	 Same-Spin Energy          =      -0.1898359506283077 [Eh]
	 Opposite-Spin Energy      =      -0.6585902963133966 [Eh]
	 Correlation Energy        =      -0.8484262469417043 [Eh]
	 Total Energy              =    -191.9988203826892175 [Eh]

	 ================> DF-SCS-MP2 Energies <==================
	-----------------------------------------------------------
	 SCS Same-Spin Scale       =       0.3333333333333333 [-]
	 SCS Opposite-Spin Scale   =       1.2000000000000000 [-]
	 SCS Same-Spin Energy      =      -0.0632786502094359 [Eh]
	 SCS Opposite-Spin Energy  =      -0.7903083555760759 [Eh]
	 SCS Correlation Energy    =      -0.8535870057855118 [Eh]
	 SCS Total Energy          =    -192.0039811415330178 [Eh]
	-----------------------------------------------------------

*** Psi4 exiting successfully. Buy a developer a beer!
