                               Psi4 1.4a2.dev224

  ==> Input File <==

--------------------------------------------------------------------------
#Generated by lconvert.py for cbs job

memory 40 GB

molecule  {
0 1
  O       -0.7865620     0.0451680    -0.0071890
  H        0.1777070     0.0126960    -0.0068350
  C       -1.2479910    -1.2902840     0.0010840
  H       -2.3342770    -1.2588970     0.0002210
  H       -0.9259660    -1.8497680    -0.8804450
  H       -0.9270280    -1.8384630     0.8900770
--
0 1
  O        2.1618490    -0.0524180    -0.0047060
  H        2.6010530     0.3357340    -0.7645780
  H        2.5997330     0.3501860     0.7483840
units angstrom
no_reorient
symmetry c1
}

set {
scf_type DF
mp2_type DF
e_convergence 7
reference rhf
}

energy('mp2/aug-cc-pv[tq]z', bsse_type='cp')
--------------------------------------------------------------------------

    Molecular point group: c1
  Charge       = 0
  Multiplicity = 1
  Basis Set: AUG-CC-PVTZ
    Blend: AUG-CC-PVTZ
  Basis Set: (AUG-CC-PVTZ AUX)
    Blend: AUG-CC-PVTZ-JKFIT
  @DF-RHF Final Energy:   -76.06040105782903
    Total Energy =                        -76.0604010578290257
  Basis Set: (AUG-CC-PVTZ AUX)
    Blend: AUG-CC-PVTZ-RI
	 Reference Energy          =     -76.0604010578290257 [Eh]
	 Singles Energy            =      -0.0000000000000000 [Eh]
	 Same-Spin Energy          =      -0.0683861018446109 [Eh]
	 Opposite-Spin Energy      =      -0.2153024658476114 [Eh]
	 Correlation Energy        =      -0.2836885676922223 [Eh]
	 Total Energy              =     -76.3440896255212493 [Eh]
	 SCS Total Energy          =     -76.3415593841276916 [Eh]
    Molecular point group: c1
  Basis Set: AUG-CC-PVQZ
    Blend: AUG-CC-PVQZ
  Basis Set: (AUG-CC-PVQZ AUX)
    Blend: AUG-CC-PVQZ-JKFIT
  @DF-RHF Final Energy:   -76.06578242181020
    Total Energy =                        -76.0657824218101979
  Basis Set: (AUG-CC-PVQZ AUX)
  @DF-RHF Final Energy:   -76.06047723430572
    Total Energy =                        -76.0604772343057220
  @DF-RHF Final Energy:   -76.06581754561533
    Total Energy =                        -76.0658175456153174
  @DF-RHF Final Energy:  -115.09193918546745
    Total Energy =                       -115.0919391854674529
  @DF-RHF Final Energy:  -115.09942112398488
    Total Energy =                       -115.0994211239848823
  @DF-RHF Final Energy:  -115.09188333961453
    Total Energy =                       -115.0918833396145260
  @DF-RHF Final Energy:  -115.09940334523347
    Total Energy =                       -115.0994033452334691
  Multiplicity = 1
  @DF-RHF Final Energy:  -191.15805969354415
    Total Energy =                       -191.1580596935441463
	 Singles Energy            =      -0.0000000000000000 [Eh]
	 Same-Spin Energy          =      -0.1756960535155417 [Eh]
	 Opposite-Spin Energy      =      -0.5818476580528635 [Eh]
	 Correlation Energy        =      -0.7575437115684053 [Eh]
	 Total Energy              =    -191.9156034051125630 [Eh]
	 SCS Total Energy          =    -191.9148422343794209 [Eh]
    Molecular point group: c1

    Geometry (in Angstrom), charge = 0, multiplicity = 1:

       Center              X                  Y                   Z               Mass
    ------------   -----------------  -----------------  -----------------  -----------------
         O           -0.950886114905     0.442498285838    -0.003381188742    15.994914619570
         H            0.013382885095     0.410026285838    -0.003027188742     1.007825032230
         C           -1.412315114905    -0.892953714162     0.004891811258    12.000000000000
         H           -2.498601114905    -0.861566714162     0.004028811258     1.007825032230
         H           -1.090290114905    -1.452437714162    -0.876637188742     1.007825032230
         H           -1.091352114905    -1.441132714162     0.893884811258     1.007825032230
         O            1.997524885095     0.344912285838    -0.000898188742    15.994914619570
         H            2.436728885095     0.733064285838    -0.760770188742     1.007825032230
         H            2.435408885095     0.747516285838     0.752191811258     1.007825032230

  Charge       = 0
  Multiplicity = 1
  Basis Set: AUG-CC-PVQZ
    Blend: AUG-CC-PVQZ
  Basis Set: (AUG-CC-PVQZ AUX)
    Blend: AUG-CC-PVQZ-JKFIT

    Orbital Energies [Eh]
    ---------------------

    Doubly Occupied:

       1A    -20.590274     2A    -20.527971     3A    -11.250816
       4A     -1.379370     5A     -1.332875     6A     -0.905371
       7A     -0.741184     8A     -0.677649     9A     -0.611168
      10A     -0.599978    11A     -0.573529    12A     -0.538418
      13A     -0.479944    14A     -0.427460

  @DF-RHF Final Energy:  -191.17093871189346

   => Energetics <=

    Nuclear Repulsion Energy =             78.4544430019475527
    One-Electron Energy =                -417.9787457542962557
    Two-Electron Energy =                 148.3533640404552614
    Total Energy =                       -191.1709387118934558

  Dipole Moment: [D]
     X:     3.1320      Y:    -0.0132      Z:    -0.0024     Total:     3.1320

  Basis Set: (AUG-CC-PVQZ AUX)
    Blend: AUG-CC-PVQZ-RI
	 Reference Energy          =    -191.1709387118934558 [Eh]
	 Singles Energy            =      -0.0000000000000000 [Eh]
	 Same-Spin Energy          =      -0.1867272934152675 [Eh]
	 Opposite-Spin Energy      =      -0.6560642810681470 [Eh]
	 Correlation Energy        =      -0.8427915744834145 [Eh]
	 Total Energy              =    -192.0137302863768696 [Eh]

	 ================> DF-SCS-MP2 Energies <==================
	-----------------------------------------------------------
	 SCS Same-Spin Scale       =       0.3333333333333333 [-]
	 SCS Opposite-Spin Scale   =       1.2000000000000000 [-]
	 SCS Same-Spin Energy      =      -0.0622424311384225 [Eh]
	 SCS Opposite-Spin Energy  =      -0.7872771372817763 [Eh]
	 SCS Correlation Energy    =      -0.8495195684201988 [Eh]
	 SCS Total Energy          =    -192.0204582803136475 [Eh]
	-----------------------------------------------------------

*** Psi4 exiting successfully. Buy a developer a beer!
