                               Psi4 1.4a2.dev224

  ==> Input File <==

--------------------------------------------------------------------------
#Generated by lconvert.py for cbs job

memory 40 GB

molecule  {
0 1
  O       -0.7865620     0.0451680    -0.0071890
  H        0.1777070     0.0126960    -0.0068350
  C       -1.2479910    -1.2902840     0.0010840
  H       -2.3342770    -1.2588970     0.0002210
  H       -0.9259660    -1.8497680    -0.8804450
  H       -0.9270280    -1.8384630     0.8900770
--
0 1
  O        2.3603630    -0.0589330    -0.0044920
  H        2.7995670     0.3292190    -0.7643650
  H        2.7982470     0.3436710     0.7485970
units angstrom
no_reorient
symmetry c1
}

set {
scf_type DF
mp2_type DF
e_convergence 7
reference rhf
}

energy('mp2/aug-cc-pv[tq]z', bsse_type='cp')
--------------------------------------------------------------------------

    Molecular point group: c1
  Charge       = 0
  Multiplicity = 1
  Basis Set: AUG-CC-PVTZ
    Blend: AUG-CC-PVTZ
  Basis Set: (AUG-CC-PVTZ AUX)
    Blend: AUG-CC-PVTZ-JKFIT
  @DF-RHF Final Energy:   -76.06040105750543
    Total Energy =                        -76.0604010575054303
  Basis Set: (AUG-CC-PVTZ AUX)
    Blend: AUG-CC-PVTZ-RI
	 Reference Energy          =     -76.0604010575054303 [Eh]
	 Singles Energy            =      -0.0000000000000000 [Eh]
	 Same-Spin Energy          =      -0.0683861019172358 [Eh]
	 Opposite-Spin Energy      =      -0.2153024660656148 [Eh]
	 Correlation Energy        =      -0.2836885679828506 [Eh]
	 Total Energy              =     -76.3440896254882801 [Eh]
	 SCS Total Energy          =     -76.3415593840899191 [Eh]
    Molecular point group: c1
  Basis Set: AUG-CC-PVQZ
    Blend: AUG-CC-PVQZ
  Basis Set: (AUG-CC-PVQZ AUX)
    Blend: AUG-CC-PVQZ-JKFIT
  @DF-RHF Final Energy:   -76.06578242150773
    Total Energy =                        -76.0657824215077341
  Basis Set: (AUG-CC-PVQZ AUX)
  @DF-RHF Final Energy:   -76.06047024124031
    Total Energy =                        -76.0604702412402958
  @DF-RHF Final Energy:   -76.06581358649805
    Total Energy =                        -76.0658135864980522
  @DF-RHF Final Energy:  -115.09192918450603
    Total Energy =                       -115.0919291845060286
  @DF-RHF Final Energy:  -115.09941760945962
    Total Energy =                       -115.0994176094596213
  @DF-RHF Final Energy:  -115.09188333961930
    Total Energy =                       -115.0918833396193008
  @DF-RHF Final Energy:  -115.09940334536377
    Total Energy =                       -115.0994033453637684
  Multiplicity = 1
  @DF-RHF Final Energy:  -191.15813208280179
    Total Energy =                       -191.1581320828017851
	 Singles Energy            =      -0.0000000000000000 [Eh]
	 Same-Spin Energy          =      -0.1752374394390353 [Eh]
	 Opposite-Spin Energy      =      -0.5814090060607378 [Eh]
	 Correlation Energy        =      -0.7566464454997730 [Eh]
	 Total Energy              =    -191.9147785283015537 [Eh]
	 SCS Total Energy          =    -191.9142353698876775 [Eh]
    Molecular point group: c1

    Geometry (in Angstrom), charge = 0, multiplicity = 1:

       Center              X                  Y                   Z               Mass
    ------------   -----------------  -----------------  -----------------  -----------------
         O           -1.022340538596     0.444843337423    -0.003458177014    15.994914619570
         H           -0.058071538596     0.412371337423    -0.003104177014     1.007825032230
         C           -1.483769538596    -0.890608662577     0.004814822986    12.000000000000
         H           -2.570055538596    -0.859221662577     0.003951822986     1.007825032230
         H           -1.161744538596    -1.450092662577    -0.876714177014     1.007825032230
         H           -1.162806538596    -1.438787662577     0.893807822986     1.007825032230
         O            2.124584461404     0.340742337423    -0.000761177014    15.994914619570
         H            2.563788461404     0.728894337423    -0.760634177014     1.007825032230
         H            2.562468461404     0.743346337423     0.752327822986     1.007825032230

  Charge       = 0
  Multiplicity = 1
  Basis Set: AUG-CC-PVQZ
    Blend: AUG-CC-PVQZ
  Basis Set: (AUG-CC-PVQZ AUX)
    Blend: AUG-CC-PVQZ-JKFIT

    Orbital Energies [Eh]
    ---------------------

    Doubly Occupied:

       1A    -20.586481     2A    -20.533675     3A    -11.253320
       4A     -1.374334     5A     -1.337332     6A     -0.908009
       7A     -0.736904     8A     -0.676214     9A     -0.608695
      10A     -0.603037    11A     -0.576638    12A     -0.533998
      13A     -0.484479    14A     -0.431348

  @DF-RHF Final Energy:  -191.17099981390598

   => Energetics <=

    Nuclear Repulsion Energy =             76.8211039025212585
    One-Electron Energy =                -414.6952747674579314
    Two-Electron Energy =                 146.7031710510306937
    Total Energy =                       -191.1709998139059792

  Dipole Moment: [D]
     X:     3.0021      Y:    -0.0482      Z:    -0.0023     Total:     3.0025

  Basis Set: (AUG-CC-PVQZ AUX)
    Blend: AUG-CC-PVQZ-RI
	 Reference Energy          =    -191.1709998139059792 [Eh]
	 Singles Energy            =      -0.0000000000000000 [Eh]
	 Same-Spin Energy          =      -0.1862603308644175 [Eh]
	 Opposite-Spin Energy      =      -0.6556789134247600 [Eh]
	 Correlation Energy        =      -0.8419392442891775 [Eh]
	 Total Energy              =    -192.0129390581951441 [Eh]

	 ================> DF-SCS-MP2 Energies <==================
	-----------------------------------------------------------
	 SCS Same-Spin Scale       =       0.3333333333333333 [-]
	 SCS Opposite-Spin Scale   =       1.2000000000000000 [-]
	 SCS Same-Spin Energy      =      -0.0620867769548058 [Eh]
	 SCS Opposite-Spin Energy  =      -0.7868146961097120 [Eh]
	 SCS Correlation Energy    =      -0.8489014730645178 [Eh]
	 SCS Total Energy          =    -192.0199012869705086 [Eh]
	-----------------------------------------------------------

*** Psi4 exiting successfully. Buy a developer a beer!
