                               Psi4 1.4a2.dev224

  ==> Input File <==

--------------------------------------------------------------------------
#Generated by lconvert.py for cbs job

memory 40 GB

molecule  {
0 1
  O       -0.7865620     0.0451680    -0.0071890
  H        0.1777070     0.0126960    -0.0068350
  C       -1.2479910    -1.2902840     0.0010840
  H       -2.3342770    -1.2588970     0.0002210
  H       -0.9259660    -1.8497680    -0.8804450
  H       -0.9270280    -1.8384630     0.8900770
--
0 1
  O        2.2611560    -0.0556770    -0.0045990
  H        2.7003600     0.3324750    -0.7644720
  H        2.6990400     0.3469270     0.7484910
units angstrom
no_reorient
symmetry c1
}

set {
scf_type DF
mp2_type DF
e_convergence 7
reference rhf
}

energy('mp2/aug-cc-pv[tq]z', bsse_type='cp')
--------------------------------------------------------------------------

    Molecular point group: c1
  Charge       = 0
  Multiplicity = 1
  Basis Set: AUG-CC-PVTZ
    Blend: AUG-CC-PVTZ
  Basis Set: (AUG-CC-PVTZ AUX)
    Blend: AUG-CC-PVTZ-JKFIT
  @DF-RHF Final Energy:   -76.06040103182134
    Total Energy =                        -76.0604010318213426
  Basis Set: (AUG-CC-PVTZ AUX)
    Blend: AUG-CC-PVTZ-RI
	 Reference Energy          =     -76.0604010318213426 [Eh]
	 Singles Energy            =      -0.0000000000000000 [Eh]
	 Same-Spin Energy          =      -0.0683861080072088 [Eh]
	 Opposite-Spin Energy      =      -0.2153024848427026 [Eh]
	 Correlation Energy        =      -0.2836885928499114 [Eh]
	 Total Energy              =     -76.3440896246712555 [Eh]
	 SCS Total Energy          =     -76.3415593829683274 [Eh]
    Molecular point group: c1
  Basis Set: AUG-CC-PVQZ
    Blend: AUG-CC-PVQZ
  Basis Set: (AUG-CC-PVQZ AUX)
    Blend: AUG-CC-PVQZ-JKFIT
  @DF-RHF Final Energy:   -76.06578239374572
    Total Energy =                        -76.0657823937457209
  Basis Set: (AUG-CC-PVQZ AUX)
  @DF-RHF Final Energy:   -76.06047195921177
    Total Energy =                        -76.0604719592117817
  @DF-RHF Final Energy:   -76.06581548194535
    Total Energy =                        -76.0658154819453500
  @DF-RHF Final Energy:  -115.09193327962080
    Total Energy =                       -115.0919332796208039
  @DF-RHF Final Energy:  -115.09941930438109
    Total Energy =                       -115.0994193043810867
  @DF-RHF Final Energy:  -115.09188333959435
    Total Energy =                       -115.0918833395943466
  @DF-RHF Final Energy:  -115.09940334515467
    Total Energy =                       -115.0994033451546699
  Multiplicity = 1
  @DF-RHF Final Energy:  -191.15821312587627
    Total Energy =                       -191.1582131258762729
	 Singles Energy            =      -0.0000000000000000 [Eh]
	 Same-Spin Energy          =      -0.1754444429957451 [Eh]
	 Opposite-Spin Energy      =      -0.5816141735196096 [Eh]
	 Correlation Energy        =      -0.7570586165153548 [Eh]
	 Total Energy              =    -191.9152717423916386 [Eh]
	 SCS Total Energy          =    -191.9146316150983864 [Eh]
    Molecular point group: c1

    Geometry (in Angstrom), charge = 0, multiplicity = 1:

       Center              X                  Y                   Z               Mass
    ------------   -----------------  -----------------  -----------------  -----------------
         O           -0.986631324076     0.443671351550    -0.003419682878    15.994914619570
         H           -0.022362324076     0.411199351550    -0.003065682878     1.007825032230
         C           -1.448060324076    -0.891780648450     0.004853317122    12.000000000000
         H           -2.534346324076    -0.860393648450     0.003990317122     1.007825032230
         H           -1.126035324076    -1.451264648450    -0.876675682878     1.007825032230
         H           -1.127097324076    -1.439959648450     0.893846317122     1.007825032230
         O            2.061086675924     0.342826351550    -0.000829682878    15.994914619570
         H            2.500290675924     0.730978351550    -0.760702682878     1.007825032230
         H            2.498970675924     0.745430351550     0.752260317122     1.007825032230

  Charge       = 0
  Multiplicity = 1
  Basis Set: AUG-CC-PVQZ
    Blend: AUG-CC-PVQZ
  Basis Set: (AUG-CC-PVQZ AUX)
    Blend: AUG-CC-PVQZ-JKFIT

    Orbital Energies [Eh]
    ---------------------

    Doubly Occupied:

       1A    -20.588272     2A    -20.531064     3A    -11.252146
       4A     -1.376641     5A     -1.335262     6A     -0.906759
       7A     -0.738893     8A     -0.676553     9A     -0.610061
      10A     -0.601606    11A     -0.575143    12A     -0.536134
      13A     -0.482407    14A     -0.429544

  @DF-RHF Final Energy:  -191.17108972940824

   => Energetics <=

    Nuclear Repulsion Energy =             77.6129951427092806
    One-Electron Energy =                -416.2871994399300775
    Two-Electron Energy =                 147.5031145678125597
    Total Energy =                       -191.1710897294082372

  Dipole Moment: [D]
     X:     3.0622      Y:    -0.0322      Z:    -0.0023     Total:     3.0623

  Basis Set: (AUG-CC-PVQZ AUX)
    Blend: AUG-CC-PVQZ-RI
	 Reference Energy          =    -191.1710897294082372 [Eh]
	 Singles Energy            =      -0.0000000000000000 [Eh]
	 Same-Spin Energy          =      -0.1864705280752136 [Eh]
	 Opposite-Spin Energy      =      -0.6558529914230093 [Eh]
	 Correlation Energy        =      -0.8423235194982230 [Eh]
	 Total Energy              =    -192.0134132489064598 [Eh]

	 ================> DF-SCS-MP2 Energies <==================
	-----------------------------------------------------------
	 SCS Same-Spin Scale       =       0.3333333333333333 [-]
	 SCS Opposite-Spin Scale   =       1.2000000000000000 [-]
	 SCS Same-Spin Energy      =      -0.0621568426917379 [Eh]
	 SCS Opposite-Spin Energy  =      -0.7870235897076112 [Eh]
	 SCS Correlation Energy    =      -0.8491804323993490 [Eh]
	 SCS Total Energy          =    -192.0202701618075878 [Eh]
	-----------------------------------------------------------

*** Psi4 exiting successfully. Buy a developer a beer!
