                               Psi4 1.4a2.dev224

  ==> Input File <==

--------------------------------------------------------------------------
#Generated by lconvert.py for cbs job

memory 20 GB

molecule  {
0 1
  O      -0.786560    0.045170   -0.007190
  H       0.177710    0.012700   -0.006830
  C      -1.247990   -1.290280    0.001080
  H      -2.334280   -1.258900    0.000220
  H      -0.925970   -1.849770   -0.880450
  H      -0.927030   -1.838460    0.890080
--
0 1
  O       3.352430   -0.091490   -0.003430
  H       3.791640    0.296660   -0.763300
  H       3.790320    0.311110    0.749660
units angstrom
no_reorient
symmetry c1
}

set {
scf_type DF
mp2_type DF
e_convergence 7
reference rhf
}

energy('mp2/aug-cc-pv[tq]z', bsse_type='cp')
--------------------------------------------------------------------------

    Molecular point group: c1
  Charge       = 0
  Multiplicity = 1
  Basis Set: AUG-CC-PVTZ
    Blend: AUG-CC-PVTZ
  Basis Set: (AUG-CC-PVTZ AUX)
    Blend: AUG-CC-PVTZ-JKFIT
  @DF-RHF Final Energy:   -76.06040098024984
    Total Energy =                        -76.0604009802498240
  Basis Set: (AUG-CC-PVTZ AUX)
    Blend: AUG-CC-PVTZ-RI
	 Reference Energy          =     -76.0604009802498382 [Eh]
	 Singles Energy            =      -0.0000000000000000 [Eh]
	 Same-Spin Energy          =      -0.0683861203120152 [Eh]
	 Opposite-Spin Energy      =      -0.2153025203771579 [Eh]
	 Correlation Energy        =      -0.2836886406891731 [Eh]
	 Total Energy              =     -76.3440896209390161 [Eh]
	 SCS Total Energy          =     -76.3415593781397632 [Eh]
    Molecular point group: c1
  Basis Set: AUG-CC-PVQZ
    Blend: AUG-CC-PVQZ
  Basis Set: (AUG-CC-PVQZ AUX)
    Blend: AUG-CC-PVQZ-JKFIT
  @DF-RHF Final Energy:   -76.06578234103205
    Total Energy =                        -76.0657823410320475
  Basis Set: (AUG-CC-PVQZ AUX)
  @DF-RHF Final Energy:   -76.06041798564146
    Total Energy =                        -76.0604179856414646
  @DF-RHF Final Energy:   -76.06579381609312
    Total Energy =                        -76.0657938160931053
  @DF-RHF Final Energy:  -115.09189922943949
    Total Energy =                       -115.0918992294394911
  @DF-RHF Final Energy:  -115.09940823199148
    Total Energy =                       -115.0994082319914753
  @DF-RHF Final Energy:  -115.09188320762782
    Total Energy =                       -115.0918832076278164
  @DF-RHF Final Energy:  -115.09940320637479
    Total Energy =                       -115.0994032063747881
  Multiplicity = 1
  @DF-RHF Final Energy:  -191.15504852194297
    Total Energy =                       -191.1550485219429731
	 Singles Energy            =      -0.0000000000000000 [Eh]
	 Same-Spin Energy          =      -0.1743802086334938 [Eh]
	 Opposite-Spin Energy      =      -0.5802466857788545 [Eh]
	 Correlation Energy        =      -0.7546268944123484 [Eh]
	 Total Energy              =    -191.9096754163553271 [Eh]
	 SCS Total Energy          =    -191.9094712810887700 [Eh]
    Molecular point group: c1

    Geometry (in Angstrom), charge = 0, multiplicity = 1:

       Center              X                  Y                   Z               Mass
    ------------   -----------------  -----------------  -----------------  -----------------
         O           -1.379430603949     0.456562598256    -0.003840282112    15.994914619570
         H           -0.415160603949     0.424092598256    -0.003480282112     1.007825032230
         C           -1.840860603949    -0.878887401744     0.004429717888    12.000000000000
         H           -2.927150603949    -0.847507401744     0.003569717888     1.007825032230
         H           -1.518840603949    -1.438377401744    -0.877100282112     1.007825032230
         H           -1.519900603949    -1.427067401744     0.893429717888     1.007825032230
         O            2.759559396051     0.319902598256    -0.000080282112    15.994914619570
         H            3.198769396051     0.708052598256    -0.759950282112     1.007825032230
         H            3.197449396051     0.722502598256     0.753009717888     1.007825032230

  Charge       = 0
  Multiplicity = 1
  Basis Set: AUG-CC-PVQZ
    Blend: AUG-CC-PVQZ
  Basis Set: (AUG-CC-PVQZ AUX)
    Blend: AUG-CC-PVQZ-JKFIT

    Orbital Energies [Eh]
    ---------------------

    Doubly Occupied:

       1A    -20.575802     2A    -20.546553     3A    -11.260163
       4A     -1.362455     5A     -1.348469     6A     -0.915560
       7A     -0.725936     8A     -0.681898     9A     -0.611178
      10A     -0.597014    11A     -0.585507    12A     -0.521395
      13A     -0.494599    14A     -0.441036

  @DF-RHF Final Energy:  -191.16792491003633

   => Energetics <=

    Nuclear Repulsion Energy =             70.8392275739842319
    One-Electron Energy =                -402.6791725152799586
    Two-Electron Energy =                 140.6720200312593647
    Total Energy =                       -191.1679249100363336

  Dipole Moment: [D]
     X:     2.6964      Y:    -0.1220      Z:    -0.0020     Total:     2.6992

  Basis Set: (AUG-CC-PVQZ AUX)
    Blend: AUG-CC-PVQZ-RI
	 Reference Energy          =    -191.1679249100363336 [Eh]
	 Singles Energy            =      -0.0000000000000000 [Eh]
	 Same-Spin Energy          =      -0.1854224744603909 [Eh]
	 Opposite-Spin Energy      =      -0.6549397962040086 [Eh]
	 Correlation Energy        =      -0.8403622706643994 [Eh]
	 Total Energy              =    -192.0082871807007336 [Eh]

	 ================> DF-SCS-MP2 Energies <==================
	-----------------------------------------------------------
	 SCS Same-Spin Scale       =       0.3333333333333333 [-]
	 SCS Opposite-Spin Scale   =       1.2000000000000000 [-]
	 SCS Same-Spin Energy      =      -0.0618074914867970 [Eh]
	 SCS Opposite-Spin Energy  =      -0.7859277554448102 [Eh]
	 SCS Correlation Energy    =      -0.8477352469316072 [Eh]
	 SCS Total Energy          =    -192.0156601569679538 [Eh]
	-----------------------------------------------------------

*** Psi4 exiting successfully. Buy a developer a beer!
