                               Psi4 1.4a2.dev224

  ==> Input File <==

--------------------------------------------------------------------------
#Generated by lconvert.py for cbs job

memory 20 GB

molecule  {
0 1
  O      -0.786560    0.045170   -0.007190
  H       0.177710    0.012700   -0.006830
  C      -1.247990   -1.290280    0.001080
  H      -2.334280   -1.258900    0.000220
  H      -0.925970   -1.849770   -0.880450
  H      -0.927030   -1.838460    0.890080
--
0 1
  O       2.757190   -0.071960   -0.004070
  H       3.196390    0.316200   -0.763940
  H       3.195080    0.330650    0.749020
units angstrom
no_reorient
symmetry c1
}

set {
scf_type DF
mp2_type DF
e_convergence 7
reference rhf
}

energy('mp2/aug-cc-pv[tq]z', bsse_type='cp')
--------------------------------------------------------------------------

    Molecular point group: c1
  Charge       = 0
  Multiplicity = 1
  Basis Set: AUG-CC-PVTZ
    Blend: AUG-CC-PVTZ
  Basis Set: (AUG-CC-PVTZ AUX)
    Blend: AUG-CC-PVTZ-JKFIT
  @DF-RHF Final Energy:   -76.06040082191704
    Total Energy =                        -76.0604008219170424
  Basis Set: (AUG-CC-PVTZ AUX)
    Blend: AUG-CC-PVTZ-RI
	 Reference Energy          =     -76.0604008219170424 [Eh]
	 Singles Energy            =      -0.0000000000000000 [Eh]
	 Same-Spin Energy          =      -0.0683861579249352 [Eh]
	 Opposite-Spin Energy      =      -0.2153026333974652 [Eh]
	 Correlation Energy        =      -0.2836887913224004 [Eh]
	 Total Energy              =     -76.3440896132394471 [Eh]
	 SCS Total Energy          =     -76.3415593679689835 [Eh]
    Molecular point group: c1
  Basis Set: AUG-CC-PVQZ
    Blend: AUG-CC-PVQZ
  Basis Set: (AUG-CC-PVQZ AUX)
    Blend: AUG-CC-PVQZ-JKFIT
  @DF-RHF Final Energy:   -76.06578217371990
    Total Energy =                        -76.0657821737198958
  Basis Set: (AUG-CC-PVQZ AUX)
  @DF-RHF Final Energy:   -76.06045835588077
    Total Energy =                        -76.0604583558807690
  @DF-RHF Final Energy:   -76.06580397019934
    Total Energy =                        -76.0658039701993403
  @DF-RHF Final Energy:  -115.09191540581635
    Total Energy =                       -115.0919154058163514
  @DF-RHF Final Energy:  -115.09941231785561
    Total Energy =                       -115.0994123178556094
  @DF-RHF Final Energy:  -115.09188320756998
    Total Energy =                       -115.0918832075699783
  @DF-RHF Final Energy:  -115.09940320638586
    Total Energy =                       -115.0994032063858583
  Multiplicity = 1
  @DF-RHF Final Energy:  -191.15688819136517
    Total Energy =                       -191.1568881913651694
	 Singles Energy            =      -0.0000000000000000 [Eh]
	 Same-Spin Energy          =      -0.1747076273988519 [Eh]
	 Opposite-Spin Energy      =      -0.5807671218435464 [Eh]
	 Correlation Energy        =      -0.7554747492423983 [Eh]
	 Total Energy              =    -191.9123629406075793 [Eh]
	 SCS Total Energy          =    -191.9120446133770486 [Eh]
    Molecular point group: c1

    Geometry (in Angstrom), charge = 0, multiplicity = 1:

       Center              X                  Y                   Z               Mass
    ------------   -----------------  -----------------  -----------------  -----------------
         O           -1.165175835309     0.449532439866    -0.003609916339    15.994914619570
         H           -0.200905835309     0.417062439866    -0.003249916339     1.007825032230
         C           -1.626605835309    -0.885917560134     0.004660083661    12.000000000000
         H           -2.712895835309    -0.854537560134     0.003800083661     1.007825032230
         H           -1.304585835309    -1.445407560134    -0.876869916339     1.007825032230
         H           -1.305645835309    -1.434097560134     0.893660083661     1.007825032230
         O            2.378574164691     0.332402439866    -0.000489916339    15.994914619570
         H            2.817774164691     0.720562439866    -0.760359916339     1.007825032230
         H            2.816464164691     0.735012439866     0.752600083661     1.007825032230

  Charge       = 0
  Multiplicity = 1
  Basis Set: AUG-CC-PVQZ
    Blend: AUG-CC-PVQZ
  Basis Set: (AUG-CC-PVQZ AUX)
    Blend: AUG-CC-PVQZ-JKFIT

    Orbital Energies [Eh]
    ---------------------

    Doubly Occupied:

       1A    -20.580929     2A    -20.540871     3A    -11.256872
       4A     -1.367848     5A     -1.343347     6A     -0.911902
       7A     -0.731051     8A     -0.678042     9A     -0.607318
      10A     -0.602991    11A     -0.581304    12A     -0.527284
      13A     -0.490146    14A     -0.436570

  @DF-RHF Final Energy:  -191.16973672111277

   => Energetics <=

    Nuclear Repulsion Energy =             74.0616149482851682
    One-Electron Energy =                -409.1497536993712743
    Two-Electron Energy =                 143.9184020299733220
    Total Energy =                       -191.1697367211127698

  Dipole Moment: [D]
     X:     2.8318      Y:    -0.0913      Z:    -0.0021     Total:     2.8333

  Basis Set: (AUG-CC-PVQZ AUX)
    Blend: AUG-CC-PVQZ-RI
	 Reference Energy          =    -191.1697367211127698 [Eh]
	 Singles Energy            =      -0.0000000000000000 [Eh]
	 Same-Spin Energy          =      -0.1857335010088469 [Eh]
	 Opposite-Spin Energy      =      -0.6552243398089443 [Eh]
	 Correlation Energy        =      -0.8409578408177912 [Eh]
	 Total Energy              =    -192.0106945619305634 [Eh]

	 ================> DF-SCS-MP2 Energies <==================
	-----------------------------------------------------------
	 SCS Same-Spin Scale       =       0.3333333333333333 [-]
	 SCS Opposite-Spin Scale   =       1.2000000000000000 [-]
	 SCS Same-Spin Energy      =      -0.0619111670029490 [Eh]
	 SCS Opposite-Spin Energy  =      -0.7862692077707332 [Eh]
	 SCS Correlation Energy    =      -0.8481803747736821 [Eh]
	 SCS Total Energy          =    -192.0179170958864461 [Eh]
	-----------------------------------------------------------

*** Psi4 exiting successfully. Buy a developer a beer!
