                               Psi4 1.4a2.dev224

  ==> Input File <==

--------------------------------------------------------------------------
#Generated by lconvert.py for cbs job

memory 40 GB

molecule  {
0 1
  O       -0.7865620     0.0451680    -0.0071890
  H        0.1777070     0.0126960    -0.0068350
  C       -1.2479910    -1.2902840     0.0010840
  H       -2.3342770    -1.2588970     0.0002210
  H       -0.9259660    -1.8497680    -0.8804450
  H       -0.9270280    -1.8384630     0.8900770
--
0 1
  O        2.0627420    -0.0491660    -0.0048120
  H        2.5019460     0.3389860    -0.7646850
  H        2.5006260     0.3534380     0.7482780
units angstrom
no_reorient
symmetry c1
}

set {
scf_type DF
mp2_type DF
e_convergence 7
reference rhf
}

energy('mp2/aug-cc-pv[tq]z', bsse_type='cp')
--------------------------------------------------------------------------

    Molecular point group: c1
  Charge       = 0
  Multiplicity = 1
  Basis Set: AUG-CC-PVTZ
    Blend: AUG-CC-PVTZ
  Basis Set: (AUG-CC-PVTZ AUX)
    Blend: AUG-CC-PVTZ-JKFIT
  @DF-RHF Final Energy:   -76.06040103181316
    Total Energy =                        -76.0604010318131429
  Basis Set: (AUG-CC-PVTZ AUX)
    Blend: AUG-CC-PVTZ-RI
	 Reference Energy          =     -76.0604010318131571 [Eh]
	 Singles Energy            =      -0.0000000000000000 [Eh]
	 Same-Spin Energy          =      -0.0683861080072260 [Eh]
	 Opposite-Spin Energy      =      -0.2153024848427019 [Eh]
	 Correlation Energy        =      -0.2836885928499279 [Eh]
	 Total Energy              =     -76.3440896246630842 [Eh]
	 SCS Total Energy          =     -76.3415593829601420 [Eh]
    Molecular point group: c1
  Basis Set: AUG-CC-PVQZ
    Blend: AUG-CC-PVQZ
  Basis Set: (AUG-CC-PVQZ AUX)
    Blend: AUG-CC-PVQZ-JKFIT
  @DF-RHF Final Energy:   -76.06578239375101
    Total Energy =                        -76.0657823937510074
  Basis Set: (AUG-CC-PVQZ AUX)
  @DF-RHF Final Energy:   -76.06048759920589
    Total Energy =                        -76.0604875992058851
  @DF-RHF Final Energy:   -76.06582032138050
    Total Energy =                        -76.0658203213804995
  @DF-RHF Final Energy:  -115.09194755415929
    Total Energy =                       -115.0919475541592902
  @DF-RHF Final Energy:  -115.09942305010900
    Total Energy =                       -115.0994230501089959
  @DF-RHF Final Energy:  -115.09188333969367
    Total Energy =                       -115.0918833396936662
  @DF-RHF Final Energy:  -115.09940334524427
    Total Energy =                       -115.0994033452442693
  Multiplicity = 1
  @DF-RHF Final Energy:  -191.15753556179047
    Total Energy =                       -191.1575355617904677
	 Singles Energy            =      -0.0000000000000000 [Eh]
	 Same-Spin Energy          =      -0.1760010557589136 [Eh]
	 Opposite-Spin Energy      =      -0.5821199346337464 [Eh]
	 Correlation Energy        =      -0.7581209903926600 [Eh]
	 Total Energy              =    -191.9156565521831226 [Eh]
	 SCS Total Energy          =    -191.9147465019372589 [Eh]
    Molecular point group: c1

    Geometry (in Angstrom), charge = 0, multiplicity = 1:

       Center              X                  Y                   Z               Mass
    ------------   -----------------  -----------------  -----------------  -----------------
         O           -0.915212895038     0.441327739751    -0.003343014269    15.994914619570
         H            0.049056104962     0.408855739751    -0.002989014269     1.007825032230
         C           -1.376641895038    -0.894124260249     0.004929985731    12.000000000000
         H           -2.462927895038    -0.862737260249     0.004066985731     1.007825032230
         H           -1.054616895038    -1.453608260249    -0.876599014269     1.007825032230
         H           -1.055678895038    -1.442303260249     0.893922985731     1.007825032230
         O            1.934091104962     0.346993739751    -0.000966014269    15.994914619570
         H            2.373295104962     0.735145739751    -0.760839014269     1.007825032230
         H            2.371975104962     0.749597739751     0.752123985731     1.007825032230

  Charge       = 0
  Multiplicity = 1
  Basis Set: AUG-CC-PVQZ
    Blend: AUG-CC-PVQZ
  Basis Set: (AUG-CC-PVQZ AUX)
    Blend: AUG-CC-PVQZ-JKFIT

    Orbital Energies [Eh]
    ---------------------

    Doubly Occupied:

       1A    -20.592512     2A    -20.524301     3A    -11.249306
       4A     -1.382626     5A     -1.330122     6A     -0.903842
       7A     -0.743831     8A     -0.679865     9A     -0.611815
      10A     -0.598126    11A     -0.571874    12A     -0.540740
      13A     -0.477007    14A     -0.425049

  @DF-RHF Final Energy:  -191.17040570288066

   => Energetics <=

    Nuclear Repulsion Energy =             79.3477337683373776
    One-Electron Energy =                -419.7742450674199972
    Two-Electron Energy =                 149.2561055962019623
    Total Energy =                       -191.1704057028806574

  Dipole Moment: [D]
     X:     3.2131      Y:     0.0093      Z:    -0.0025     Total:     3.2131

  Basis Set: (AUG-CC-PVQZ AUX)
    Blend: AUG-CC-PVQZ-RI
	 Reference Energy          =    -191.1704057028806574 [Eh]
	 Singles Energy            =      -0.0000000000000000 [Eh]
	 Same-Spin Energy          =      -0.1870394203771352 [Eh]
	 Opposite-Spin Energy      =      -0.6563198937787438 [Eh]
	 Correlation Energy        =      -0.8433593141558789 [Eh]
	 Total Energy              =    -192.0137650170365475 [Eh]

	 ================> DF-SCS-MP2 Energies <==================
	-----------------------------------------------------------
	 SCS Same-Spin Scale       =       0.3333333333333333 [-]
	 SCS Opposite-Spin Scale   =       1.2000000000000000 [-]
	 SCS Same-Spin Energy      =      -0.0623464734590451 [Eh]
	 SCS Opposite-Spin Energy  =      -0.7875838725344925 [Eh]
	 SCS Correlation Energy    =      -0.8499303459935376 [Eh]
	 SCS Total Energy          =    -192.0203360488741851 [Eh]
	-----------------------------------------------------------

*** Psi4 exiting successfully. Buy a developer a beer!
