                               Psi4 1.4a2.dev224

  ==> Input File <==

--------------------------------------------------------------------------
#Generated by lconvert.py for cbs job

memory 40 GB

molecule  {
0 1
  O       -0.7865620     0.0451680    -0.0071890
  H        0.1777070     0.0126960    -0.0068350
  C       -1.2479910    -1.2902840     0.0010840
  H       -2.3342770    -1.2588970     0.0002210
  H       -0.9259660    -1.8497680    -0.8804450
  H       -0.9270280    -1.8384630     0.8900770
--
0 1
  O        1.7650200    -0.0393960    -0.0051320
  H        2.2042250     0.3487570    -0.7650040
  H        2.2029050     0.3632090     0.7479580
units angstrom
no_reorient
symmetry c1
}

set {
scf_type DF
mp2_type DF
e_convergence 7
reference rhf
}

energy('mp2/aug-cc-pv[tq]z', bsse_type='cp')
--------------------------------------------------------------------------

    Molecular point group: c1
  Charge       = 0
  Multiplicity = 1
  Basis Set: AUG-CC-PVTZ
    Blend: AUG-CC-PVTZ
  Basis Set: (AUG-CC-PVTZ AUX)
    Blend: AUG-CC-PVTZ-JKFIT
  @DF-RHF Final Energy:   -76.06040098276753
    Total Energy =                        -76.0604009827675327
  Basis Set: (AUG-CC-PVTZ AUX)
    Blend: AUG-CC-PVTZ-RI
	 Reference Energy          =     -76.0604009827675327 [Eh]
	 Singles Energy            =      -0.0000000000000000 [Eh]
	 Same-Spin Energy          =      -0.0683861196808953 [Eh]
	 Opposite-Spin Energy      =      -0.2153025194440797 [Eh]
	 Correlation Energy        =      -0.2836886391249750 [Eh]
	 Total Energy              =     -76.3440896218925076 [Eh]
	 SCS Total Energy          =     -76.3415593793273928 [Eh]
    Molecular point group: c1
  Basis Set: AUG-CC-PVQZ
    Blend: AUG-CC-PVQZ
  Basis Set: (AUG-CC-PVQZ AUX)
    Blend: AUG-CC-PVQZ-JKFIT
  @DF-RHF Final Energy:   -76.06578234250406
    Total Energy =                        -76.0657823425040647
  Basis Set: (AUG-CC-PVQZ AUX)
  @DF-RHF Final Energy:   -76.06053622306105
    Total Energy =                        -76.0605362230610496
  @DF-RHF Final Energy:   -76.06583239567236
    Total Energy =                        -76.0658323956723592
  @DF-RHF Final Energy:  -115.09198321691127
    Total Energy =                       -115.0919832169112738
  @DF-RHF Final Energy:  -115.09942949438799
    Total Energy =                       -115.0994294943879908
  @DF-RHF Final Energy:  -115.09188333965525
    Total Energy =                       -115.0918833396552543
  @DF-RHF Final Energy:  -115.09940334527415
    Total Energy =                       -115.0994033452741547
  Multiplicity = 1
  @DF-RHF Final Energy:  -191.15112155161199
    Total Energy =                       -191.1511215516119933
	 Singles Energy            =      -0.0000000000000000 [Eh]
	 Same-Spin Energy          =      -0.1773481465828445 [Eh]
	 Opposite-Spin Energy      =      -0.5832646346524486 [Eh]
	 Correlation Energy        =      -0.7606127812352931 [Eh]
	 Total Energy              =    -191.9117343328472884 [Eh]
	 SCS Total Energy          =    -191.9101551620558723 [Eh]
    Molecular point group: c1

    Geometry (in Angstrom), charge = 0, multiplicity = 1:

       Center              X                  Y                   Z               Mass
    ------------   -----------------  -----------------  -----------------  -----------------
         O           -0.808048937165     0.437811021957    -0.003227851524    15.994914619570
         H            0.156220062835     0.405339021957    -0.002873851524     1.007825032230
         C           -1.269477937165    -0.897640978043     0.005045148476    12.000000000000
         H           -2.355763937165    -0.866253978043     0.004182148476     1.007825032230
         H           -0.947452937165    -1.457124978043    -0.876483851524     1.007825032230
         H           -0.948514937165    -1.445819978043     0.894038148476     1.007825032230
         O            1.743533062835     0.353247021957    -0.001170851524    15.994914619570
         H            2.182738062835     0.741400021957    -0.761042851524     1.007825032230
         H            2.181418062835     0.755852021957     0.751919148476     1.007825032230

  Charge       = 0
  Multiplicity = 1
  Basis Set: AUG-CC-PVQZ
    Blend: AUG-CC-PVQZ
  Basis Set: (AUG-CC-PVQZ AUX)
    Blend: AUG-CC-PVQZ-JKFIT

    Orbital Energies [Eh]
    ---------------------

    Doubly Occupied:

       1A    -20.601129     2A    -20.508321     3A    -11.243343
       4A     -1.397463     5A     -1.318910     6A     -0.898412
       7A     -0.754883     8A     -0.697608     9A     -0.609471
      10A     -0.590817    11A     -0.569301    12A     -0.544354
      13A     -0.464017    14A     -0.415145

  @DF-RHF Final Energy:  -191.16391024200504

   => Energetics <=

    Nuclear Repulsion Energy =             82.4145514864141973
    One-Electron Energy =                -425.9305741000776493
    Two-Electron Energy =                 152.3521123716583929
    Total Energy =                       -191.1639102420050449

  Dipole Moment: [D]
     X:     3.5479      Y:     0.1062      Z:    -0.0029     Total:     3.5495

  Basis Set: (AUG-CC-PVQZ AUX)
    Blend: AUG-CC-PVQZ-RI
	 Reference Energy          =    -191.1639102420050449 [Eh]
	 Singles Energy            =      -0.0000000000000000 [Eh]
	 Same-Spin Energy          =      -0.1884260829097970 [Eh]
	 Opposite-Spin Energy      =      -0.6574565887762188 [Eh]
	 Correlation Energy        =      -0.8458826716860157 [Eh]
	 Total Energy              =    -192.0097929136910579 [Eh]

	 ================> DF-SCS-MP2 Energies <==================
	-----------------------------------------------------------
	 SCS Same-Spin Scale       =       0.3333333333333333 [-]
	 SCS Opposite-Spin Scale   =       1.2000000000000000 [-]
	 SCS Same-Spin Energy      =      -0.0628086943032656 [Eh]
	 SCS Opposite-Spin Energy  =      -0.7889479065314625 [Eh]
	 SCS Correlation Energy    =      -0.8517566008347282 [Eh]
	 SCS Total Energy          =    -192.0156668428397779 [Eh]
	-----------------------------------------------------------

*** Psi4 exiting successfully. Buy a developer a beer!
