                               Psi4 1.4a2.dev224

  ==> Input File <==

--------------------------------------------------------------------------
#Generated by lconvert.py for cbs job

memory 40 GB

molecule  {
0 1
  N       -0.8934510    -0.0438440    -0.0429970
  H        0.0969480    -0.2560590    -0.0710700
  H       -1.3684390    -0.9333910     0.0338380
  C       -1.1757820     0.7579080     1.1452370
  H       -2.2416270     0.9722160     1.1950250
  H       -0.8807900     0.3042470     2.0972090
  H       -0.6630060     1.7143290     1.0608090
--
0 1
  O        1.8970130    -0.0844200     0.0103090
  H        2.1790390     0.2855290    -0.8295550
  C        2.2829270     0.8271640     1.0297450
  H        1.9597440     0.3975310     1.9728120
  H        3.3639820     0.9662480     1.0687850
  H        1.8044520     1.8007620     0.9145690
units angstrom
no_reorient
symmetry c1
}

set {
scf_type DF
mp2_type DF
e_convergence 7
reference rhf
}

energy('mp2/aug-cc-pv[tq]z', bsse_type='cp')
--------------------------------------------------------------------------

    Molecular point group: c1
  Charge       = 0
  Multiplicity = 1
  Basis Set: AUG-CC-PVTZ
    Blend: AUG-CC-PVTZ
  Basis Set: (AUG-CC-PVTZ AUX)
    Blend: AUG-CC-PVTZ-JKFIT
  @DF-RHF Final Energy:  -115.09206824968970
    Total Energy =                       -115.0920682496897030
  Basis Set: (AUG-CC-PVTZ AUX)
    Blend: AUG-CC-PVTZ-RI
	 Reference Energy          =    -115.0920682496897030 [Eh]
	 Singles Energy            =      -0.0000000000000000 [Eh]
	 Same-Spin Energy          =      -0.1057607558132905 [Eh]
	 Opposite-Spin Energy      =      -0.3646658245111784 [Eh]
	 Correlation Energy        =      -0.4704265803244689 [Eh]
	 Total Energy              =    -115.5624948300141739 [Eh]
	 SCS Total Energy          =    -115.5649208243742123 [Eh]
    Molecular point group: c1
  Basis Set: AUG-CC-PVQZ
    Blend: AUG-CC-PVQZ
  Basis Set: (AUG-CC-PVQZ AUX)
    Blend: AUG-CC-PVQZ-JKFIT
  @DF-RHF Final Energy:  -115.09958659240077
    Total Energy =                       -115.0995865924007688
  Basis Set: (AUG-CC-PVQZ AUX)
  @DF-RHF Final Energy:  -115.09219995515166
    Total Energy =                       -115.0921999551516564
  @DF-RHF Final Energy:  -115.09963748095366
    Total Energy =                       -115.0996374809536604
  @DF-RHF Final Energy:   -95.25543158475034
    Total Energy =                        -95.2554315847503403
  @DF-RHF Final Energy:   -95.26137835948064
    Total Energy =                        -95.2613783594806449
  @DF-RHF Final Energy:   -95.25537688731947
    Total Energy =                        -95.2553768873194713
  @DF-RHF Final Energy:   -95.26136207795668
    Total Energy =                        -95.2613620779566759
  Multiplicity = 1
  @DF-RHF Final Energy:  -210.34253162086023
    Total Energy =                       -210.3425316208602283
	 Singles Energy            =      -0.0000000000000000 [Eh]
	 Same-Spin Energy          =      -0.2049254825049294 [Eh]
	 Opposite-Spin Energy      =      -0.7214932272684776 [Eh]
	 Correlation Energy        =      -0.9264187097734070 [Eh]
	 Total Energy              =    -211.2689503306336292 [Eh]
	 SCS Total Energy          =    -211.2766319877507044 [Eh]
    Molecular point group: c1

    Geometry (in Angstrom), charge = 0, multiplicity = 1:

       Center              X                  Y                   Z               Mass
    ------------   -----------------  -----------------  -----------------  -----------------
         N           -1.454758952045    -0.398207232121    -0.568826690898    14.003074004430
         H           -0.464359952045    -0.610422232121    -0.596899690898     1.007825032230
         H           -1.929746952045    -1.287754232121    -0.491991690898     1.007825032230
         C           -1.737089952045     0.403544767879     0.619407309102    12.000000000000
         H           -2.802934952045     0.617852767879     0.669195309102     1.007825032230
         H           -1.442097952045    -0.050116232121     1.571379309102     1.007825032230
         H           -1.224313952045     1.359965767879     0.534979309102     1.007825032230
         O            1.335705047955    -0.438783232121    -0.515520690898    15.994914619570
         H            1.617731047955    -0.068834232121    -1.355384690898     1.007825032230
         C            1.721619047955     0.472800767879     0.503915309102    12.000000000000
         H            1.398436047955     0.043167767879     1.446982309102     1.007825032230
         H            2.802674047955     0.611884767879     0.542955309102     1.007825032230
         H            1.243144047955     1.446398767879     0.388739309102     1.007825032230

  Charge       = 0
  Multiplicity = 1
  Basis Set: AUG-CC-PVQZ
    Blend: AUG-CC-PVQZ
  Basis Set: (AUG-CC-PVQZ AUX)
    Blend: AUG-CC-PVQZ-JKFIT

    Orbital Energies [Eh]
    ---------------------

    Doubly Occupied:

       1A    -20.571924     2A    -15.507776     3A    -11.280076
       4A    -11.226542     5A     -1.377334     6A     -1.148933
       7A     -0.939659     8A     -0.880453     9A     -0.710211
      10A     -0.665283    11A     -0.621363    12A     -0.607705
      13A     -0.583441    14A     -0.540902    15A     -0.522686
      16A     -0.504364    17A     -0.457748    18A     -0.370992

  @DF-RHF Final Energy:  -210.35597609945171

   => Energetics <=

    Nuclear Repulsion Energy =            134.7104783857879795
    One-Electron Energy =                -553.0981210068912333
    Two-Electron Energy =                 208.0316665216515730
    Total Energy =                       -210.3559760994517092

  Dipole Moment: [D]
     X:     1.9785      Y:     0.7699      Z:     0.8581     Total:     2.2899

  Basis Set: (AUG-CC-PVQZ AUX)
    Blend: AUG-CC-PVQZ-RI
	 Reference Energy          =    -210.3559760994517092 [Eh]
	 Singles Energy            =      -0.0000000000000000 [Eh]
	 Same-Spin Energy          =      -0.2173303948996677 [Eh]
	 Opposite-Spin Energy      =      -0.8069960413173973 [Eh]
	 Correlation Energy        =      -1.0243264362170650 [Eh]
	 Total Energy              =    -211.3803025356687613 [Eh]

	 ================> DF-SCS-MP2 Energies <==================
	-----------------------------------------------------------
	 SCS Same-Spin Scale       =       0.3333333333333333 [-]
	 SCS Opposite-Spin Scale   =       1.2000000000000000 [-]
	 SCS Same-Spin Energy      =      -0.0724434649665559 [Eh]
	 SCS Opposite-Spin Energy  =      -0.9683952495808767 [Eh]
	 SCS Correlation Energy    =      -1.0408387145474327 [Eh]
	 SCS Total Energy          =    -211.3968148139991285 [Eh]
	-----------------------------------------------------------

*** Psi4 exiting successfully. Buy a developer a beer!
