                               Psi4 1.4a2.dev224

  ==> Input File <==

--------------------------------------------------------------------------
#Generated by lconvert.py for cbs job

memory 40 GB

molecule  {
0 1
  N       -0.8934510    -0.0438440    -0.0429970
  H        0.0969480    -0.2560590    -0.0710700
  H       -1.3684390    -0.9333910     0.0338380
  C       -1.1757820     0.7579080     1.1452370
  H       -2.2416270     0.9722160     1.1950250
  H       -0.8807900     0.3042470     2.0972090
  H       -0.6630060     1.7143290     1.0608090
--
0 1
  O        2.5721370    -0.0200460     0.0408310
  H        2.8541630     0.3499030    -0.7990330
  C        2.9580510     0.8915380     1.0602670
  H        2.6348680     0.4619060     2.0033340
  H        4.0391060     1.0306220     1.0993070
  H        2.4795760     1.8651360     0.9450900
units angstrom
no_reorient
symmetry c1
}

set {
scf_type DF
mp2_type DF
e_convergence 7
reference rhf
}

energy('mp2/aug-cc-pv[tq]z', bsse_type='cp')
--------------------------------------------------------------------------

    Molecular point group: c1
  Charge       = 0
  Multiplicity = 1
  Basis Set: AUG-CC-PVTZ
    Blend: AUG-CC-PVTZ
  Basis Set: (AUG-CC-PVTZ AUX)
    Blend: AUG-CC-PVTZ-JKFIT
  @DF-RHF Final Energy:  -115.09206825539884
    Total Energy =                       -115.0920682553988428
  Basis Set: (AUG-CC-PVTZ AUX)
    Blend: AUG-CC-PVTZ-RI
	 Reference Energy          =    -115.0920682553988428 [Eh]
	 Singles Energy            =      -0.0000000000000000 [Eh]
	 Same-Spin Energy          =      -0.1057607548492769 [Eh]
	 Opposite-Spin Energy      =      -0.3646658210850910 [Eh]
	 Correlation Energy        =      -0.4704265759343679 [Eh]
	 Total Energy              =    -115.5624948313332112 [Eh]
	 SCS Total Energy          =    -115.5649208256507166 [Eh]
    Molecular point group: c1
  Basis Set: AUG-CC-PVQZ
    Blend: AUG-CC-PVQZ
  Basis Set: (AUG-CC-PVQZ AUX)
    Blend: AUG-CC-PVQZ-JKFIT
  @DF-RHF Final Energy:  -115.09958659831608
    Total Energy =                       -115.0995865983160797
  Basis Set: (AUG-CC-PVQZ AUX)
  @DF-RHF Final Energy:  -115.09215557071451
    Total Energy =                       -115.0921555707145103
  @DF-RHF Final Energy:  -115.09961974985080
    Total Energy =                       -115.0996197498508025
  @DF-RHF Final Energy:   -95.25540885953239
    Total Energy =                        -95.2554088595323947
  @DF-RHF Final Energy:   -95.26137182456922
    Total Energy =                        -95.2613718245692240
  @DF-RHF Final Energy:   -95.25537688729978
    Total Energy =                        -95.2553768872997750
  @DF-RHF Final Energy:   -95.26136207795354
    Total Energy =                        -95.2613620779535353
  Multiplicity = 1
  @DF-RHF Final Energy:  -210.34971585116358
    Total Energy =                       -210.3497158511635803
	 Singles Energy            =      -0.0000000000000000 [Eh]
	 Same-Spin Energy          =      -0.2023867693510332 [Eh]
	 Opposite-Spin Energy      =      -0.7183437411265747 [Eh]
	 Correlation Energy        =      -0.9207305104776079 [Eh]
	 Total Energy              =    -211.2704463616411772 [Eh]
	 SCS Total Energy          =    -211.2791905969658046 [Eh]
    Molecular point group: c1

    Geometry (in Angstrom), charge = 0, multiplicity = 1:

       Center              X                  Y                   Z               Mass
    ------------   -----------------  -----------------  -----------------  -----------------
         N           -1.797587713132    -0.430896440999    -0.584325782409    14.003074004430
         H           -0.807188713132    -0.643111440999    -0.612398782409     1.007825032230
         H           -2.272575713132    -1.320443440999    -0.507490782409     1.007825032230
         C           -2.079918713132     0.370855559001     0.603908217591    12.000000000000
         H           -3.145763713132     0.585163559001     0.653696217591     1.007825032230
         H           -1.784926713132    -0.082805440999     1.555880217591     1.007825032230
         H           -1.567142713132     1.327276559001     0.519480217591     1.007825032230
         O            1.668000286868    -0.407098440999    -0.500497782409    15.994914619570
         H            1.950026286868    -0.037149440999    -1.340361782409     1.007825032230
         C            2.053914286868     0.504485559001     0.518938217591    12.000000000000
         H            1.730731286868     0.074853559001     1.462005217591     1.007825032230
         H            3.134969286868     0.643569559001     0.557978217591     1.007825032230
         H            1.575439286868     1.478083559001     0.403761217591     1.007825032230

  Charge       = 0
  Multiplicity = 1
  Basis Set: AUG-CC-PVQZ
    Blend: AUG-CC-PVQZ
  Basis Set: (AUG-CC-PVQZ AUX)
    Blend: AUG-CC-PVQZ-JKFIT

    Orbital Energies [Eh]
    ---------------------

    Doubly Occupied:

       1A    -20.565460     2A    -15.524297     3A    -11.275723
       4A    -11.231686     5A     -1.366369     6A     -1.159184
       7A     -0.933131     8A     -0.886679     9A     -0.699914
      10A     -0.653023    11A     -0.626910    12A     -0.602148
      13A     -0.593726    14A     -0.546073    15A     -0.514583
      16A     -0.506541    17A     -0.460212    18A     -0.382285

  @DF-RHF Final Energy:  -210.36315350320334

   => Energetics <=

    Nuclear Repulsion Energy =            125.9771125128228277
    One-Electron Energy =                -535.6246396705441839
    Two-Electron Energy =                 199.2843736545180207
    Total Energy =                       -210.3631535032033355

  Dipole Moment: [D]
     X:     1.5989      Y:     0.7933      Z:     0.8996     Total:     1.9988

  Basis Set: (AUG-CC-PVQZ AUX)
    Blend: AUG-CC-PVQZ-RI
	 Reference Energy          =    -210.3631535032033355 [Eh]
	 Singles Energy            =      -0.0000000000000000 [Eh]
	 Same-Spin Energy          =      -0.2147926402948735 [Eh]
	 Opposite-Spin Energy      =      -0.8043935085700410 [Eh]
	 Correlation Energy        =      -1.0191861488649145 [Eh]
	 Total Energy              =    -211.3823396520682536 [Eh]

	 ================> DF-SCS-MP2 Energies <==================
	-----------------------------------------------------------
	 SCS Same-Spin Scale       =       0.3333333333333333 [-]
	 SCS Opposite-Spin Scale   =       1.2000000000000000 [-]
	 SCS Same-Spin Energy      =      -0.0715975467649578 [Eh]
	 SCS Opposite-Spin Energy  =      -0.9652722102840492 [Eh]
	 SCS Correlation Energy    =      -1.0368697570490071 [Eh]
	 SCS Total Energy          =    -211.4000232602523397 [Eh]
	-----------------------------------------------------------

*** Psi4 exiting successfully. Buy a developer a beer!
