                               Psi4 1.4a2.dev224

  ==> Input File <==

--------------------------------------------------------------------------
#Generated by lconvert.py for cbs job

memory 40 GB

molecule  {
0 1
  N       -0.8934510    -0.0438440    -0.0429970
  H        0.0969480    -0.2560590    -0.0710700
  H       -1.3684390    -0.9333910     0.0338380
  C       -1.1757820     0.7579080     1.1452370
  H       -2.2416270     0.9722160     1.1950250
  H       -0.8807900     0.3042470     2.0972090
  H       -0.6630060     1.7143290     1.0608090
--
0 1
  O        2.1221210    -0.0629560     0.0204860
  H        2.4041470     0.3069930    -0.8193780
  C        2.5080350     0.8486280     1.0399220
  H        2.1848510     0.4189960     1.9829890
  H        3.5890900     0.9877120     1.0789620
  H        2.0295600     1.8222260     0.9247460
units angstrom
no_reorient
symmetry c1
}

set {
scf_type DF
mp2_type DF
e_convergence 7
reference rhf
}

energy('mp2/aug-cc-pv[tq]z', bsse_type='cp')
--------------------------------------------------------------------------

    Molecular point group: c1
  Charge       = 0
  Multiplicity = 1
  Basis Set: AUG-CC-PVTZ
    Blend: AUG-CC-PVTZ
  Basis Set: (AUG-CC-PVTZ AUX)
    Blend: AUG-CC-PVTZ-JKFIT
  @DF-RHF Final Energy:  -115.09206825067584
    Total Energy =                       -115.0920682506758368
  Basis Set: (AUG-CC-PVTZ AUX)
    Blend: AUG-CC-PVTZ-RI
	 Reference Energy          =    -115.0920682506758368 [Eh]
	 Singles Energy            =      -0.0000000000000000 [Eh]
	 Same-Spin Energy          =      -0.1057607557560213 [Eh]
	 Opposite-Spin Energy      =      -0.3646658234888365 [Eh]
	 Correlation Energy        =      -0.4704265792448578 [Eh]
	 Total Energy              =    -115.5624948299206949 [Eh]
	 SCS Total Energy          =    -115.5649208241144521 [Eh]
    Molecular point group: c1
  Basis Set: AUG-CC-PVQZ
    Blend: AUG-CC-PVQZ
  Basis Set: (AUG-CC-PVQZ AUX)
    Blend: AUG-CC-PVQZ-JKFIT
  @DF-RHF Final Energy:  -115.09958659361209
    Total Energy =                       -115.0995865936120879
  Basis Set: (AUG-CC-PVQZ AUX)
  @DF-RHF Final Energy:  -115.09217048893879
    Total Energy =                       -115.0921704889387911
  @DF-RHF Final Energy:  -115.09962906791930
    Total Energy =                       -115.0996290679192953
  @DF-RHF Final Energy:   -95.25542182549621
    Total Energy =                        -95.2554218254962137
  @DF-RHF Final Energy:   -95.26137571773100
    Total Energy =                        -95.2613757177309992
  @DF-RHF Final Energy:   -95.25537688728208
    Total Energy =                        -95.2553768872820825
  @DF-RHF Final Energy:   -95.26136207795051
    Total Energy =                        -95.2613620779505084
  Multiplicity = 1
  @DF-RHF Final Energy:  -210.34752294906446
    Total Energy =                       -210.3475229490644551
	 Singles Energy            =      -0.0000000000000000 [Eh]
	 Same-Spin Energy          =      -0.2037213317419676 [Eh]
	 Opposite-Spin Energy      =      -0.7200576693707349 [Eh]
	 Correlation Energy        =      -0.9237790011127025 [Eh]
	 Total Energy              =    -211.2713019501771612 [Eh]
	 SCS Total Energy          =    -211.2794992628899990 [Eh]
    Molecular point group: c1

    Geometry (in Angstrom), charge = 0, multiplicity = 1:

       Center              X                  Y                   Z               Mass
    ------------   -----------------  -----------------  -----------------  -----------------
         N           -1.569069043173    -0.409106692540    -0.573994583465    14.003074004430
         H           -0.578670043173    -0.621321692540    -0.602067583465     1.007825032230
         H           -2.044057043173    -1.298653692540    -0.497159583465     1.007825032230
         C           -1.851400043173     0.392645307460     0.614239416535    12.000000000000
         H           -2.917245043173     0.606953307460     0.664027416535     1.007825032230
         H           -1.556408043173    -0.061015692540     1.566211416535     1.007825032230
         H           -1.338624043173     1.349066307460     0.529811416535     1.007825032230
         O            1.446502956827    -0.428218692540    -0.510511583465    15.994914619570
         H            1.728528956827    -0.058269692540    -1.350375583465     1.007825032230
         C            1.832416956827     0.483365307460     0.508924416535    12.000000000000
         H            1.509232956827     0.053733307460     1.451991416535     1.007825032230
         H            2.913471956827     0.622449307460     0.547964416535     1.007825032230
         H            1.353941956827     1.456963307460     0.393748416535     1.007825032230

  Charge       = 0
  Multiplicity = 1
  Basis Set: AUG-CC-PVQZ
    Blend: AUG-CC-PVQZ
  Basis Set: (AUG-CC-PVQZ AUX)
    Blend: AUG-CC-PVQZ-JKFIT

    Orbital Energies [Eh]
    ---------------------

    Doubly Occupied:

       1A    -20.569165     2A    -15.515636     3A    -11.278173
       4A    -11.228867     5A     -1.371948     6A     -1.153420
       7A     -0.936544     8A     -0.883173     9A     -0.705086
      10A     -0.657533    11A     -0.624052    12A     -0.606332
      13A     -0.588177    14A     -0.542448    15A     -0.519684
      16A     -0.504063    17A     -0.460782    18A     -0.376221

  @DF-RHF Final Energy:  -210.36098497550023

   => Energetics <=

    Nuclear Repulsion Energy =            131.4375157268261489
    One-Electron Energy =                -546.5543902574929689
    Two-Electron Energy =                 204.7558895551665614
    Total Energy =                       -210.3609849755002301

  Dipole Moment: [D]
     X:     1.8016      Y:     0.7783      Z:     0.8753     Total:     2.1489

  Basis Set: (AUG-CC-PVQZ AUX)
    Blend: AUG-CC-PVQZ-RI
	 Reference Energy          =    -210.3609849755002301 [Eh]
	 Singles Energy            =      -0.0000000000000000 [Eh]
	 Same-Spin Energy          =      -0.2161155431243528 [Eh]
	 Opposite-Spin Energy      =      -0.8057625980031407 [Eh]
	 Correlation Energy        =      -1.0218781411274933 [Eh]
	 Total Energy              =    -211.3828631166277319 [Eh]

	 ================> DF-SCS-MP2 Energies <==================
	-----------------------------------------------------------
	 SCS Same-Spin Scale       =       0.3333333333333333 [-]
	 SCS Opposite-Spin Scale   =       1.2000000000000000 [-]
	 SCS Same-Spin Energy      =      -0.0720385143747843 [Eh]
	 SCS Opposite-Spin Energy  =      -0.9669151176037687 [Eh]
	 SCS Correlation Energy    =      -1.0389536319785528 [Eh]
	 SCS Total Energy          =    -211.3999386074787878 [Eh]
	-----------------------------------------------------------

*** Psi4 exiting successfully. Buy a developer a beer!
