                               Psi4 1.4a2.dev224

  ==> Input File <==

--------------------------------------------------------------------------
#Generated by lconvert.py for cbs job

memory 40 GB

molecule  {
0 1
  N       -0.8934510    -0.0438440    -0.0429970
  H        0.0969480    -0.2560590    -0.0710700
  H       -1.3684390    -0.9333910     0.0338380
  C       -1.1757820     0.7579080     1.1452370
  H       -2.2416270     0.9722160     1.1950250
  H       -0.8807900     0.3042470     2.0972090
  H       -0.6630060     1.7143290     1.0608090
--
0 1
  O        2.3470290    -0.0415100     0.0306540
  H        2.6290550     0.3284380    -0.8092100
  C        2.7329430     0.8700740     1.0500900
  H        2.4097600     0.4404410     1.9931570
  H        3.8139980     1.0091570     1.0891300
  H        2.2544690     1.8436720     0.9349140
units angstrom
no_reorient
symmetry c1
}

set {
scf_type DF
mp2_type DF
e_convergence 7
reference rhf
}

energy('mp2/aug-cc-pv[tq]z', bsse_type='cp')
--------------------------------------------------------------------------

    Molecular point group: c1
  Charge       = 0
  Multiplicity = 1
  Basis Set: AUG-CC-PVTZ
    Blend: AUG-CC-PVTZ
  Basis Set: (AUG-CC-PVTZ AUX)
    Blend: AUG-CC-PVTZ-JKFIT
  @DF-RHF Final Energy:  -115.09206827669716
    Total Energy =                       -115.0920682766971623
  Basis Set: (AUG-CC-PVTZ AUX)
    Blend: AUG-CC-PVTZ-RI
	 Reference Energy          =    -115.0920682766971623 [Eh]
	 Singles Energy            =      -0.0000000000000000 [Eh]
	 Same-Spin Energy          =      -0.1057607505226782 [Eh]
	 Opposite-Spin Energy      =      -0.3646658066120929 [Eh]
	 Correlation Energy        =      -0.4704265571347711 [Eh]
	 Total Energy              =    -115.5624948338319342 [Eh]
	 SCS Total Energy          =    -115.5649208281392362 [Eh]
    Molecular point group: c1
  Basis Set: AUG-CC-PVQZ
    Blend: AUG-CC-PVQZ
  Basis Set: (AUG-CC-PVQZ AUX)
    Blend: AUG-CC-PVQZ-JKFIT
  @DF-RHF Final Energy:  -115.09958662068827
    Total Energy =                       -115.0995866206882710
  Basis Set: (AUG-CC-PVQZ AUX)
  @DF-RHF Final Energy:  -115.09216284740019
    Total Energy =                       -115.0921628474001892
  @DF-RHF Final Energy:  -115.09962468417430
    Total Energy =                       -115.0996246841743016
  @DF-RHF Final Energy:   -95.25541510899951
    Total Energy =                        -95.2554151089995145
  @DF-RHF Final Energy:   -95.26137362057125
    Total Energy =                        -95.2613736205712485
  @DF-RHF Final Energy:   -95.25537688728109
    Total Energy =                        -95.2553768872810878
  @DF-RHF Final Energy:   -95.26136207794539
    Total Energy =                        -95.2613620779453925
  Multiplicity = 1
  @DF-RHF Final Energy:  -210.34930226428111
    Total Energy =                       -210.3493022642811070
	 Singles Energy            =      -0.0000000000000000 [Eh]
	 Same-Spin Energy          =      -0.2029224222212805 [Eh]
	 Opposite-Spin Energy      =      -0.7190517264229450 [Eh]
	 Correlation Energy        =      -0.9219741486442256 [Eh]
	 Total Energy              =    -211.2712764129253458 [Eh]
	 SCS Total Energy          =    -211.2798051433957482 [Eh]
    Molecular point group: c1

    Geometry (in Angstrom), charge = 0, multiplicity = 1:

       Center              X                  Y                   Z               Mass
    ------------   -----------------  -----------------  -----------------  -----------------
         N           -1.683277622004    -0.419996948619    -0.579157905822    14.003074004430
         H           -0.692878622004    -0.632211948619    -0.607230905822     1.007825032230
         H           -2.158265622004    -1.309543948619    -0.502322905822     1.007825032230
         C           -1.965608622004     0.381755051381     0.609076094178    12.000000000000
         H           -3.031453622004     0.596063051381     0.658864094178     1.007825032230
         H           -1.670616622004    -0.071905948619     1.561048094178     1.007825032230
         H           -1.452832622004     1.338176051381     0.524648094178     1.007825032230
         O            1.557202377996    -0.417662948619    -0.505506905822    15.994914619570
         H            1.839228377996    -0.047714948619    -1.345370905822     1.007825032230
         C            1.943116377996     0.493921051381     0.513929094178    12.000000000000
         H            1.619933377996     0.064288051381     1.456996094178     1.007825032230
         H            3.024171377996     0.633004051381     0.552969094178     1.007825032230
         H            1.464642377996     1.467519051381     0.398753094178     1.007825032230

  Charge       = 0
  Multiplicity = 1
  Basis Set: AUG-CC-PVQZ
    Blend: AUG-CC-PVQZ
  Basis Set: (AUG-CC-PVQZ AUX)
    Blend: AUG-CC-PVQZ-JKFIT

    Orbital Energies [Eh]
    ---------------------

    Doubly Occupied:

       1A    -20.567096     2A    -15.520790     3A    -11.276784
       4A    -11.230496     5A     -1.368608     6A     -1.156718
       7A     -0.934532     8A     -0.885172     9A     -0.701973
      10A     -0.653932    11A     -0.626247    12A     -0.604052
      13A     -0.591440    14A     -0.544413    15A     -0.516793
      16A     -0.505163    17A     -0.460989    18A     -0.379776

  @DF-RHF Final Energy:  -210.36274868056790

   => Energetics <=

    Nuclear Repulsion Energy =            128.5496022954222326
    One-Electron Energy =                -540.7747484755657297
    Two-Electron Energy =                 201.8623974995755930
    Total Energy =                       -210.3627486805679041

  Dipole Moment: [D]
     X:     1.6822      Y:     0.7863      Z:     0.8890     Total:     2.0587

  Basis Set: (AUG-CC-PVQZ AUX)
    Blend: AUG-CC-PVQZ-RI
	 Reference Energy          =    -210.3627486805679041 [Eh]
	 Singles Energy            =      -0.0000000000000000 [Eh]
	 Same-Spin Energy          =      -0.2153188182806096 [Eh]
	 Opposite-Spin Energy      =      -0.8049459036075961 [Eh]
	 Correlation Energy        =      -1.0202647218882057 [Eh]
	 Total Energy              =    -211.3830134024561005 [Eh]

	 ================> DF-SCS-MP2 Energies <==================
	-----------------------------------------------------------
	 SCS Same-Spin Scale       =       0.3333333333333333 [-]
	 SCS Opposite-Spin Scale   =       1.2000000000000000 [-]
	 SCS Same-Spin Energy      =      -0.0717729394268699 [Eh]
	 SCS Opposite-Spin Energy  =      -0.9659350843291152 [Eh]
	 SCS Correlation Energy    =      -1.0377080237559850 [Eh]
	 SCS Total Energy          =    -211.4004567043238865 [Eh]
	-----------------------------------------------------------

*** Psi4 exiting successfully. Buy a developer a beer!
