                               Psi4 1.4a2.dev224

  ==> Input File <==

--------------------------------------------------------------------------
#Generated by lconvert.py for cbs job

memory 20 GB

molecule  {
0 1
  N      -0.893450   -0.043840   -0.043000
  H       0.096950   -0.256060   -0.071070
  H      -1.368440   -0.933390    0.033840
  C      -1.175780    0.757910    1.145240
  H      -2.241630    0.972220    1.195030
  H      -0.880790    0.304250    2.097210
  H      -0.663010    1.714330    1.060810
--
0 1
  O       4.372200    0.151590    0.122210
  H       4.654230    0.521540   -0.717660
  C       4.758120    1.063180    1.141640
  H       4.434930    0.633550    2.084710
  H       5.839170    1.202260    1.180680
  H       4.279640    2.036780    1.026470
units angstrom
no_reorient
symmetry c1
}

set {
scf_type DF
mp2_type DF
e_convergence 7
reference rhf
}

energy('mp2/aug-cc-pv[tq]z', bsse_type='cp')
--------------------------------------------------------------------------

    Molecular point group: c1
  Charge       = 0
  Multiplicity = 1
  Basis Set: AUG-CC-PVTZ
    Blend: AUG-CC-PVTZ
  Basis Set: (AUG-CC-PVTZ AUX)
    Blend: AUG-CC-PVTZ-JKFIT
  @DF-RHF Final Energy:  -115.09206783507723
    Total Energy =                       -115.0920678350772306
  Basis Set: (AUG-CC-PVTZ AUX)
    Blend: AUG-CC-PVTZ-RI
	 Reference Energy          =    -115.0920678350772306 [Eh]
	 Singles Energy            =      -0.0000000000000000 [Eh]
	 Same-Spin Energy          =      -0.1057608508561206 [Eh]
	 Opposite-Spin Energy      =      -0.3646661012563119 [Eh]
	 Correlation Energy        =      -0.4704269521124325 [Eh]
	 Total Energy              =    -115.5624947871896637 [Eh]
	 SCS Total Energy          =    -115.5649207735368407 [Eh]
    Molecular point group: c1
  Basis Set: AUG-CC-PVQZ
    Blend: AUG-CC-PVQZ
  Basis Set: (AUG-CC-PVQZ AUX)
    Blend: AUG-CC-PVQZ-JKFIT
  @DF-RHF Final Energy:  -115.09958615735232
    Total Energy =                       -115.0995861573523200
  Basis Set: (AUG-CC-PVQZ AUX)
  @DF-RHF Final Energy:  -115.09207865778376
    Total Energy =                       -115.0920786577837589
  @DF-RHF Final Energy:  -115.09959179482249
    Total Energy =                       -115.0995917948224871
  @DF-RHF Final Energy:   -95.25538302256304
    Total Energy =                        -95.2553830225630378
  @DF-RHF Final Energy:   -95.26136417269166
    Total Energy =                        -95.2613641726916569
  @DF-RHF Final Energy:   -95.25537666567647
    Total Energy =                        -95.2553766656764651
  @DF-RHF Final Energy:   -95.26136184575000
    Total Energy =                        -95.2613618457500024
  Multiplicity = 1
  @DF-RHF Final Energy:  -210.34807744816652
    Total Energy =                       -210.3480774481665208
	 Singles Energy            =      -0.0000000000000000 [Eh]
	 Same-Spin Energy          =      -0.2012886174275529 [Eh]
	 Opposite-Spin Energy      =      -0.7165859775271757 [Eh]
	 Correlation Energy        =      -0.9178745949547286 [Eh]
	 Total Energy              =    -211.2659520431212457 [Eh]
	 SCS Total Energy          =    -211.2750768270083199 [Eh]
    Molecular point group: c1

    Geometry (in Angstrom), charge = 0, multiplicity = 1:

       Center              X                  Y                   Z               Mass
    ------------   -----------------  -----------------  -----------------  -----------------
         N           -2.711662549455    -0.518052245360    -0.625651817506    14.003074004430
         H           -1.721262549455    -0.730272245360    -0.653721817506     1.007825032230
         H           -3.186652549455    -1.407602245360    -0.548811817506     1.007825032230
         C           -2.993992549455     0.283697754640     0.562588182494    12.000000000000
         H           -4.059842549455     0.498007754640     0.612378182494     1.007825032230
         H           -2.699002549455    -0.169962245360     1.514558182494     1.007825032230
         H           -2.481222549455     1.240117754640     0.478158182494     1.007825032230
         O            2.553987450545    -0.322622245360    -0.460441817506    15.994914619570
         H            2.836017450545     0.047327754640    -1.300311817506     1.007825032230
         C            2.939907450545     0.588967754640     0.558988182494    12.000000000000
         H            2.616717450545     0.159337754640     1.502058182494     1.007825032230
         H            4.020957450545     0.728047754640     0.598028182494     1.007825032230
         H            2.461427450545     1.562567754640     0.443818182494     1.007825032230

  Charge       = 0
  Multiplicity = 1
  Basis Set: AUG-CC-PVQZ
    Blend: AUG-CC-PVQZ
  Basis Set: (AUG-CC-PVQZ AUX)
    Blend: AUG-CC-PVQZ-JKFIT

    Orbital Energies [Eh]
    ---------------------

    Doubly Occupied:

       1A    -20.559673     2A    -15.533808     3A    -11.271954
       4A    -11.235779     5A     -1.360123     6A     -1.167051
       7A     -0.928768     8A     -0.891848     9A     -0.694208
      10A     -0.658390    11A     -0.623605    12A     -0.600457
      13A     -0.596018    14A     -0.551849    15A     -0.512477
      16A     -0.508075    17A     -0.455174    18A     -0.389716

  @DF-RHF Final Energy:  -210.36157058445519

   => Energetics <=

    Nuclear Repulsion Energy =            112.4759314768915601
    One-Electron Energy =                -508.5970547618643991
    Two-Electron Energy =                 185.7595527005176450
    Total Energy =                       -210.3615705844551940

  Dipole Moment: [D]
     X:     1.3717      Y:     0.8213      Z:     0.9354     Total:     1.8523

  Basis Set: (AUG-CC-PVQZ AUX)
    Blend: AUG-CC-PVQZ-RI
	 Reference Energy          =    -210.3615705844551940 [Eh]
	 Singles Energy            =      -0.0000000000000000 [Eh]
	 Same-Spin Energy          =      -0.2137427200574009 [Eh]
	 Opposite-Spin Energy      =      -0.8032197927196931 [Eh]
	 Correlation Energy        =      -1.0169625127770940 [Eh]
	 Total Energy              =    -211.3785330972322924 [Eh]

	 ================> DF-SCS-MP2 Energies <==================
	-----------------------------------------------------------
	 SCS Same-Spin Scale       =       0.3333333333333333 [-]
	 SCS Opposite-Spin Scale   =       1.2000000000000000 [-]
	 SCS Same-Spin Energy      =      -0.0712475733524670 [Eh]
	 SCS Opposite-Spin Energy  =      -0.9638637512636317 [Eh]
	 SCS Correlation Energy    =      -1.0351113246160986 [Eh]
	 SCS Total Energy          =    -211.3966819090713045 [Eh]
	-----------------------------------------------------------

*** Psi4 exiting successfully. Buy a developer a beer!
