                               Psi4 1.4a2.dev224

  ==> Input File <==

--------------------------------------------------------------------------
#Generated by lconvert.py for cbs job

memory 40 GB

molecule  {
0 1
  N       -0.8934510    -0.0438440    -0.0429970
  H        0.0969480    -0.2560590    -0.0710700
  H       -1.3684390    -0.9333910     0.0338380
  C       -1.1757820     0.7579080     1.1452370
  H       -2.2416270     0.9722160     1.1950250
  H       -0.8807900     0.3042470     2.0972090
  H       -0.6630060     1.7143290     1.0608090
--
0 1
  O        2.4596330    -0.0307730     0.0357450
  H        2.7416590     0.3391750    -0.8041190
  C        2.8455470     0.8808110     1.0551810
  H        2.5223640     0.4511780     1.9982470
  H        3.9266020     1.0198940     1.0942210
  H        2.3670720     1.8544090     0.9400040
units angstrom
no_reorient
symmetry c1
}

set {
scf_type DF
mp2_type DF
e_convergence 7
reference rhf
}

energy('mp2/aug-cc-pv[tq]z', bsse_type='cp')
--------------------------------------------------------------------------

    Molecular point group: c1
  Charge       = 0
  Multiplicity = 1
  Basis Set: AUG-CC-PVTZ
    Blend: AUG-CC-PVTZ
  Basis Set: (AUG-CC-PVTZ AUX)
    Blend: AUG-CC-PVTZ-JKFIT
  @DF-RHF Final Energy:  -115.09206828259791
    Total Energy =                       -115.0920682825979071
  Basis Set: (AUG-CC-PVTZ AUX)
    Blend: AUG-CC-PVTZ-RI
	 Reference Energy          =    -115.0920682825979071 [Eh]
	 Singles Energy            =      -0.0000000000000000 [Eh]
	 Same-Spin Energy          =      -0.1057607497494516 [Eh]
	 Opposite-Spin Energy      =      -0.3646658044305491 [Eh]
	 Correlation Energy        =      -0.4704265541800007 [Eh]
	 Total Energy              =    -115.5624948367779012 [Eh]
	 SCS Total Energy          =    -115.5649208311643861 [Eh]
    Molecular point group: c1
  Basis Set: AUG-CC-PVQZ
    Blend: AUG-CC-PVQZ
  Basis Set: (AUG-CC-PVQZ AUX)
    Blend: AUG-CC-PVQZ-JKFIT
  @DF-RHF Final Energy:  -115.09958662693722
    Total Energy =                       -115.0995866269372243
  Basis Set: (AUG-CC-PVQZ AUX)
  @DF-RHF Final Energy:  -115.09216004914497
    Total Energy =                       -115.0921600491449652
  @DF-RHF Final Energy:  -115.09962243921964
    Total Energy =                       -115.0996224392196439
  @DF-RHF Final Energy:   -95.25541204211947
    Total Energy =                        -95.2554120421194739
  @DF-RHF Final Energy:   -95.26137269757416
    Total Energy =                        -95.2613726975741599
  @DF-RHF Final Energy:   -95.25537688724904
    Total Energy =                        -95.2553768872490423
  @DF-RHF Final Energy:   -95.26136207803731
    Total Energy =                        -95.2613620780373083
  Multiplicity = 1
  @DF-RHF Final Energy:  -210.34961286852959
    Total Energy =                       -210.3496128685295901
	 Singles Energy            =      -0.0000000000000000 [Eh]
	 Same-Spin Energy          =      -0.2026280403278130 [Eh]
	 Opposite-Spin Energy      =      -0.7186675184894236 [Eh]
	 Correlation Energy        =      -0.9212955588172365 [Eh]
	 Total Energy              =    -211.2709084273468250 [Eh]
	 SCS Total Energy          =    -211.2795565708261734 [Eh]
    Molecular point group: c1

    Geometry (in Angstrom), charge = 0, multiplicity = 1:

       Center              X                  Y                   Z               Mass
    ------------   -----------------  -----------------  -----------------  -----------------
         N           -1.740458049637    -0.425449209845    -0.581743089649    14.003074004430
         H           -0.750059049637    -0.637664209845    -0.609816089649     1.007825032230
         H           -2.215446049637    -1.314996209845    -0.504908089649     1.007825032230
         C           -2.022789049637     0.376302790155     0.606490910351    12.000000000000
         H           -3.088634049637     0.590610790155     0.656278910351     1.007825032230
         H           -1.727797049637    -0.077358209845     1.558462910351     1.007825032230
         H           -1.510013049637     1.332723790155     0.522062910351     1.007825032230
         O            1.612625950363    -0.412378209845    -0.503001089649    15.994914619570
         H            1.894651950363    -0.042430209845    -1.342865089649     1.007825032230
         C            1.998539950363     0.499205790155     0.516434910351    12.000000000000
         H            1.675356950363     0.069572790155     1.459500910351     1.007825032230
         H            3.079594950363     0.638288790155     0.555474910351     1.007825032230
         H            1.520064950363     1.472803790155     0.401257910351     1.007825032230

  Charge       = 0
  Multiplicity = 1
  Basis Set: AUG-CC-PVQZ
    Blend: AUG-CC-PVQZ
  Basis Set: (AUG-CC-PVQZ AUX)
    Blend: AUG-CC-PVQZ-JKFIT

    Orbital Energies [Eh]
    ---------------------

    Doubly Occupied:

       1A    -20.566233     2A    -15.522704     3A    -11.276220
       4A    -11.231134     5A     -1.367386     6A     -1.158038
       7A     -0.933774     8A     -0.885977     9A     -0.700847
      10A     -0.653236    11A     -0.626738    12A     -0.603042
      13A     -0.592682    14A     -0.545289    15A     -0.515604
      16A     -0.505855    17A     -0.460658    18A     -0.381134

  @DF-RHF Final Energy:  -210.36305290298270

   => Energetics <=

    Nuclear Repulsion Energy =            127.2264383228537952
    One-Electron Energy =                -538.1258775986912042
    Two-Electron Energy =                 200.5363863728546789
    Total Energy =                       -210.3630529029827017

  Dipole Moment: [D]
     X:     1.6370      Y:     0.7899      Z:     0.8946     Total:     2.0258

  Basis Set: (AUG-CC-PVQZ AUX)
    Blend: AUG-CC-PVQZ-RI
	 Reference Energy          =    -210.3630529029827017 [Eh]
	 Singles Energy            =      -0.0000000000000000 [Eh]
	 Same-Spin Energy          =      -0.2150286691344926 [Eh]
	 Opposite-Spin Energy      =      -0.8046437961462647 [Eh]
	 Correlation Energy        =      -1.0196724652807574 [Eh]
	 Total Energy              =    -211.3827253682634648 [Eh]

	 ================> DF-SCS-MP2 Energies <==================
	-----------------------------------------------------------
	 SCS Same-Spin Scale       =       0.3333333333333333 [-]
	 SCS Opposite-Spin Scale   =       1.2000000000000000 [-]
	 SCS Same-Spin Energy      =      -0.0716762230448309 [Eh]
	 SCS Opposite-Spin Energy  =      -0.9655725553755176 [Eh]
	 SCS Correlation Energy    =      -1.0372487784203483 [Eh]
	 SCS Total Energy          =    -211.4003016814030502 [Eh]
	-----------------------------------------------------------

*** Psi4 exiting successfully. Buy a developer a beer!
