                               Psi4 1.4a2.dev224

  ==> Input File <==

--------------------------------------------------------------------------
#Generated by lconvert.py for cbs job

memory 40 GB

molecule  {
0 1
  N       -0.8934510    -0.0438440    -0.0429970
  H        0.0969480    -0.2560590    -0.0710700
  H       -1.3684390    -0.9333910     0.0338380
  C       -1.1757820     0.7579080     1.1452370
  H       -2.2416270     0.9722160     1.1950250
  H       -0.8807900     0.3042470     2.0972090
  H       -0.6630060     1.7143290     1.0608090
--
0 1
  O        1.6720050    -0.1058750     0.0001370
  H        1.9540310     0.2640740    -0.8397270
  C        2.0579190     0.8057090     1.0195730
  H        1.7347360     0.3760770     1.9626390
  H        3.1389740     0.9447930     1.0586130
  H        1.5794440     1.7793070     0.9043960
units angstrom
no_reorient
symmetry c1
}

set {
scf_type DF
mp2_type DF
e_convergence 7
reference rhf
}

energy('mp2/aug-cc-pv[tq]z', bsse_type='cp')
--------------------------------------------------------------------------

    Molecular point group: c1
  Charge       = 0
  Multiplicity = 1
  Basis Set: AUG-CC-PVTZ
    Blend: AUG-CC-PVTZ
  Basis Set: (AUG-CC-PVTZ AUX)
    Blend: AUG-CC-PVTZ-JKFIT
  @DF-RHF Final Energy:  -115.09206826149973
    Total Energy =                       -115.0920682614997332
  Basis Set: (AUG-CC-PVTZ AUX)
    Blend: AUG-CC-PVTZ-RI
	 Reference Energy          =    -115.0920682614997332 [Eh]
	 Singles Energy            =      -0.0000000000000000 [Eh]
	 Same-Spin Energy          =      -0.1057607553522779 [Eh]
	 Opposite-Spin Energy      =      -0.3646658169405183 [Eh]
	 Correlation Energy        =      -0.4704265722927962 [Eh]
	 Total Energy              =    -115.5624948337925275 [Eh]
	 SCS Total Energy          =    -115.5649208269457802 [Eh]
    Molecular point group: c1
  Basis Set: AUG-CC-PVQZ
    Blend: AUG-CC-PVQZ
  Basis Set: (AUG-CC-PVQZ AUX)
    Blend: AUG-CC-PVQZ-JKFIT
  @DF-RHF Final Energy:  -115.09958660502416
    Total Energy =                       -115.0995866050241574
  Basis Set: (AUG-CC-PVQZ AUX)
  @DF-RHF Final Energy:  -115.09224175744018
    Total Energy =                       -115.0922417574401777
  @DF-RHF Final Energy:  -115.09964893533540
    Total Energy =                       -115.0996489353353951
  @DF-RHF Final Energy:   -95.25544499861790
    Total Energy =                        -95.2554449986179037
  @DF-RHF Final Energy:   -95.26138172990366
    Total Energy =                        -95.2613817299036612
  @DF-RHF Final Energy:   -95.25537688733623
    Total Energy =                        -95.2553768873362259
  @DF-RHF Final Energy:   -95.26136207801436
    Total Energy =                        -95.2613620780143577
  Multiplicity = 1
  @DF-RHF Final Energy:  -210.33024244261725
    Total Energy =                       -210.3302424426172479
	 Singles Energy            =      -0.0000000000000000 [Eh]
	 Same-Spin Energy          =      -0.2067326430478046 [Eh]
	 Opposite-Spin Energy      =      -0.7235170974217827 [Eh]
	 Correlation Energy        =      -0.9302497404695873 [Eh]
	 Total Energy              =    -211.2604921830868250 [Eh]
	 SCS Total Energy          =    -211.2673738405393351 [Eh]
    Molecular point group: c1

    Geometry (in Angstrom), charge = 0, multiplicity = 1:

       Center              X                  Y                   Z               Mass
    ------------   -----------------  -----------------  -----------------  -----------------
         N           -1.340499625056    -0.387312373871    -0.563661305377    14.003074004430
         H           -0.350100625056    -0.599527373871    -0.591734305377     1.007825032230
         H           -1.815487625056    -1.276859373871    -0.486826305377     1.007825032230
         C           -1.622830625056     0.414439626129     0.624572694623    12.000000000000
         H           -2.688675625056     0.628747626129     0.674360694623     1.007825032230
         H           -1.327838625056    -0.039221373871     1.576544694623     1.007825032230
         H           -1.110054625056     1.370860626129     0.540144694623     1.007825032230
         O            1.224956374944    -0.449343373871    -0.520527305377    15.994914619570
         H            1.506982374944    -0.079394373871    -1.360391305377     1.007825032230
         C            1.610870374944     0.462240626129     0.498908694623    12.000000000000
         H            1.287687374944     0.032608626129     1.441974694623     1.007825032230
         H            2.691925374944     0.601324626129     0.537948694623     1.007825032230
         H            1.132395374944     1.435838626129     0.383731694623     1.007825032230

  Charge       = 0
  Multiplicity = 1
  Basis Set: AUG-CC-PVQZ
    Blend: AUG-CC-PVQZ
  Basis Set: (AUG-CC-PVQZ AUX)
    Blend: AUG-CC-PVQZ-JKFIT

    Orbital Energies [Eh]
    ---------------------

    Doubly Occupied:

       1A    -20.575943     2A    -15.495507     3A    -11.282806
       4A    -11.223130     5A     -1.386728     6A     -1.142805
       7A     -0.944846     8A     -0.876746     9A     -0.719452
      10A     -0.678240    11A     -0.623793    12A     -0.603312
      13A     -0.576636    14A     -0.542942    15A     -0.522687
      16A     -0.507869    17A     -0.448734    18A     -0.363074

  @DF-RHF Final Energy:  -210.34363892271816

   => Energetics <=

    Nuclear Repulsion Energy =            138.4496492939142911
    One-Electron Energy =                -560.5560763833079818
    Two-Electron Energy =                 211.7627881666755627
    Total Energy =                       -210.3436389227181564

  Dipole Moment: [D]
     X:     2.2469      Y:     0.7630      Z:     0.8372     Total:     2.5163

  Basis Set: (AUG-CC-PVQZ AUX)
    Blend: AUG-CC-PVQZ-RI
	 Reference Energy          =    -210.3436389227181564 [Eh]
	 Singles Energy            =      -0.0000000000000000 [Eh]
	 Same-Spin Energy          =      -0.2191669174740086 [Eh]
	 Opposite-Spin Energy      =      -0.8088716100006988 [Eh]
	 Correlation Energy        =      -1.0280385274747075 [Eh]
	 Total Energy              =    -211.3716774501928626 [Eh]

	 ================> DF-SCS-MP2 Energies <==================
	-----------------------------------------------------------
	 SCS Same-Spin Scale       =       0.3333333333333333 [-]
	 SCS Opposite-Spin Scale   =       1.2000000000000000 [-]
	 SCS Same-Spin Energy      =      -0.0730556391580029 [Eh]
	 SCS Opposite-Spin Energy  =      -0.9706459320008386 [Eh]
	 SCS Correlation Energy    =      -1.0437015711588415 [Eh]
	 SCS Total Energy          =    -211.3873404938769909 [Eh]
	-----------------------------------------------------------

*** Psi4 exiting successfully. Buy a developer a beer!
