                               Psi4 1.4a2.dev224

  ==> Input File <==

--------------------------------------------------------------------------
#Generated by lconvert.py for cbs job

memory 40 GB

molecule  {
0 1
  N       -0.8934510    -0.0438440    -0.0429970
  H        0.0969480    -0.2560590    -0.0710700
  H       -1.3684390    -0.9333910     0.0338380
  C       -1.1757820     0.7579080     1.1452370
  H       -2.2416270     0.9722160     1.1950250
  H       -0.8807900     0.3042470     2.0972090
  H       -0.6630060     1.7143290     1.0608090
--
0 1
  O        2.2346250    -0.0522280     0.0255720
  H        2.5166510     0.3177200    -0.8142920
  C        2.6205390     0.8593560     1.0450080
  H        2.2973560     0.4297230     1.9880750
  H        3.7015940     0.9984390     1.0840480
  H        2.1420640     1.8329540     0.9298320
units angstrom
no_reorient
symmetry c1
}

set {
scf_type DF
mp2_type DF
e_convergence 7
reference rhf
}

energy('mp2/aug-cc-pv[tq]z', bsse_type='cp')
--------------------------------------------------------------------------

    Molecular point group: c1
  Charge       = 0
  Multiplicity = 1
  Basis Set: AUG-CC-PVTZ
    Blend: AUG-CC-PVTZ
  Basis Set: (AUG-CC-PVTZ AUX)
    Blend: AUG-CC-PVTZ-JKFIT
  @DF-RHF Final Energy:  -115.09206827429279
    Total Energy =                       -115.0920682742927852
  Basis Set: (AUG-CC-PVTZ AUX)
    Blend: AUG-CC-PVTZ-RI
	 Reference Energy          =    -115.0920682742927852 [Eh]
	 Singles Energy            =      -0.0000000000000000 [Eh]
	 Same-Spin Energy          =      -0.1057607501974842 [Eh]
	 Opposite-Spin Energy      =      -0.3646658089247715 [Eh]
	 Correlation Energy        =      -0.4704265591222557 [Eh]
	 Total Energy              =    -115.5624948334150446 [Eh]
	 SCS Total Energy          =    -115.5649208284016680 [Eh]
    Molecular point group: c1
  Basis Set: AUG-CC-PVQZ
    Blend: AUG-CC-PVQZ
  Basis Set: (AUG-CC-PVQZ AUX)
    Blend: AUG-CC-PVQZ-JKFIT
  @DF-RHF Final Energy:  -115.09958661788879
    Total Energy =                       -115.0995866178887894
  Basis Set: (AUG-CC-PVQZ AUX)
  @DF-RHF Final Energy:  -115.09216523790123
    Total Energy =                       -115.0921652379012272
  @DF-RHF Final Energy:  -115.09962677053772
    Total Energy =                       -115.0996267705377250
  @DF-RHF Final Energy:   -95.25541824505788
    Total Energy =                        -95.2554182450578821
  @DF-RHF Final Energy:   -95.26137461406543
    Total Energy =                        -95.2613746140654314
  @DF-RHF Final Energy:   -95.25537688723935
    Total Energy =                        -95.2553768872393505
  @DF-RHF Final Energy:   -95.26136207791777
    Total Energy =                        -95.2613620779177666
  Multiplicity = 1
  @DF-RHF Final Energy:  -210.34866510739099
    Total Energy =                       -210.3486651073909854
	 Singles Energy            =      -0.0000000000000000 [Eh]
	 Same-Spin Energy          =      -0.2032813475252001 [Eh]
	 Opposite-Spin Energy      =      -0.7195094836059279 [Eh]
	 Correlation Energy        =      -0.9227908311311279 [Eh]
	 Total Energy              =    -211.2714559385221094 [Eh]
	 SCS Total Energy          =    -211.2798369368931617 [Eh]
    Molecular point group: c1

    Geometry (in Angstrom), charge = 0, multiplicity = 1:

       Center              X                  Y                   Z               Mass
    ------------   -----------------  -----------------  -----------------  -----------------
         N           -1.626198722647    -0.414554335616    -0.576577260246    14.003074004430
         H           -0.635799722647    -0.626769335616    -0.604650260246     1.007825032230
         H           -2.101186722647    -1.304101335616    -0.499742260246     1.007825032230
         C           -1.908529722647     0.387197664384     0.611656739754    12.000000000000
         H           -2.974374722647     0.601505664384     0.661444739754     1.007825032230
         H           -1.613537722647    -0.066463335616     1.563628739754     1.007825032230
         H           -1.395753722647     1.343618664384     0.527228739754     1.007825032230
         O            1.501877277353    -0.422938335616    -0.508008260246    15.994914619570
         H            1.783903277353    -0.052990335616    -1.347872260246     1.007825032230
         C            1.887791277353     0.488645664384     0.511427739754    12.000000000000
         H            1.564608277353     0.059012664384     1.454494739754     1.007825032230
         H            2.968846277353     0.627728664384     0.550467739754     1.007825032230
         H            1.409316277353     1.462243664384     0.396251739754     1.007825032230

  Charge       = 0
  Multiplicity = 1
  Basis Set: AUG-CC-PVQZ
    Blend: AUG-CC-PVQZ
  Basis Set: (AUG-CC-PVQZ AUX)
    Blend: AUG-CC-PVQZ-JKFIT

    Orbital Energies [Eh]
    ---------------------

    Doubly Occupied:

       1A    -20.568065     2A    -15.518473     3A    -11.277428
       4A    -11.229750     5A     -1.370097     6A     -1.155193
       7A     -0.935438     8A     -0.884247     9A     -0.703354
      10A     -0.655299    11A     -0.625354    12A     -0.605167
      13A     -0.589958    14A     -0.543454    15A     -0.518157
      16A     -0.504530    17A     -0.461091    18A     -0.378162

  @DF-RHF Final Energy:  -210.36212056084165

   => Energetics <=

    Nuclear Repulsion Energy =            129.9495922341062908
    One-Electron Energy =                -543.5769843117677738
    Two-Electron Energy =                 203.2652715168198654
    Total Energy =                       -210.3621205608416460

  Dipole Moment: [D]
     X:     1.7363      Y:     0.7824      Z:     0.8826     Total:     2.0990

  Basis Set: (AUG-CC-PVQZ AUX)
    Blend: AUG-CC-PVQZ-RI
	 Reference Energy          =    -210.3621205608416460 [Eh]
	 Singles Energy            =      -0.0000000000000000 [Eh]
	 Same-Spin Energy          =      -0.2156753409660628 [Eh]
	 Opposite-Spin Energy      =      -0.8053128842921657 [Eh]
	 Correlation Energy        =      -1.0209882252582285 [Eh]
	 Total Energy              =    -211.3831087860998821 [Eh]

	 ================> DF-SCS-MP2 Energies <==================
	-----------------------------------------------------------
	 SCS Same-Spin Scale       =       0.3333333333333333 [-]
	 SCS Opposite-Spin Scale   =       1.2000000000000000 [-]
	 SCS Same-Spin Energy      =      -0.0718917803220209 [Eh]
	 SCS Opposite-Spin Energy  =      -0.9663754611505988 [Eh]
	 SCS Correlation Energy    =      -1.0382672414726197 [Eh]
	 SCS Total Energy          =    -211.4003878023142704 [Eh]
	-----------------------------------------------------------

*** Psi4 exiting successfully. Buy a developer a beer!
