                               Psi4 1.4a2.dev224

  ==> Input File <==

--------------------------------------------------------------------------
#Generated by lconvert.py for cbs job

memory 20 GB

molecule  {
0 1
  N      -0.893450   -0.043840   -0.043000
  H       0.096950   -0.256060   -0.071070
  H      -1.368440   -0.933390    0.033840
  C      -1.175780    0.757910    1.145240
  H      -2.241630    0.972220    1.195030
  H      -0.880790    0.304250    2.097210
  H      -0.663010    1.714330    1.060810
--
0 1
  O       3.022150    0.022860    0.061180
  H       3.304180    0.392810   -0.778690
  C       3.408070    0.934450    1.080610
  H       3.084880    0.504820    2.023680
  H       4.489120    1.073530    1.119650
  H       2.929590    1.908050    0.965430
units angstrom
no_reorient
symmetry c1
}

set {
scf_type DF
mp2_type DF
e_convergence 7
reference rhf
}

energy('mp2/aug-cc-pv[tq]z', bsse_type='cp')
--------------------------------------------------------------------------

    Molecular point group: c1
  Charge       = 0
  Multiplicity = 1
  Basis Set: AUG-CC-PVTZ
    Blend: AUG-CC-PVTZ
  Basis Set: (AUG-CC-PVTZ AUX)
    Blend: AUG-CC-PVTZ-JKFIT
  @DF-RHF Final Energy:  -115.09206785823186
    Total Energy =                       -115.0920678582318573
  Basis Set: (AUG-CC-PVTZ AUX)
    Blend: AUG-CC-PVTZ-RI
	 Reference Energy          =    -115.0920678582318573 [Eh]
	 Singles Energy            =      -0.0000000000000000 [Eh]
	 Same-Spin Energy          =      -0.1057608413445432 [Eh]
	 Opposite-Spin Energy      =      -0.3646660977549416 [Eh]
	 Correlation Energy        =      -0.4704269390994849 [Eh]
	 Total Energy              =    -115.5624947973313397 [Eh]
	 SCS Total Energy          =    -115.5649207893193022 [Eh]
    Molecular point group: c1
  Basis Set: AUG-CC-PVQZ
    Blend: AUG-CC-PVQZ
  Basis Set: (AUG-CC-PVQZ AUX)
    Blend: AUG-CC-PVQZ-JKFIT
  @DF-RHF Final Energy:  -115.09958617956354
    Total Energy =                       -115.0995861795635449
  Basis Set: (AUG-CC-PVQZ AUX)
  @DF-RHF Final Energy:  -115.09212090056674
    Total Energy =                       -115.0921209005667407
  @DF-RHF Final Energy:  -115.09960860136172
    Total Energy =                       -115.0996086013617230
  @DF-RHF Final Energy:   -95.25539621674595
    Total Energy =                        -95.2553962167459503
  @DF-RHF Final Energy:   -95.26136868865969
    Total Energy =                        -95.2613686886596867
  @DF-RHF Final Energy:   -95.25537666570453
    Total Energy =                        -95.2553766657045315
  @DF-RHF Final Energy:   -95.26136184587347
    Total Energy =                        -95.2613618458734663
  Multiplicity = 1
  @DF-RHF Final Energy:  -210.34930667641348
    Total Energy =                       -210.3493066764134767
	 Singles Energy            =      -0.0000000000000000 [Eh]
	 Same-Spin Energy          =      -0.2017818945605379 [Eh]
	 Opposite-Spin Energy      =      -0.7174475061823803 [Eh]
	 Correlation Energy        =      -0.9192294007429181 [Eh]
	 Total Energy              =    -211.2685360771563978 [Eh]
	 SCS Total Energy          =    -211.2775043153525019 [Eh]
    Molecular point group: c1

    Geometry (in Angstrom), charge = 0, multiplicity = 1:

       Center              X                  Y                   Z               Mass
    ------------   -----------------  -----------------  -----------------  -----------------
         N           -2.026105571914    -0.452682999985    -0.594660551942    14.003074004430
         H           -1.035705571914    -0.664902999985    -0.622730551942     1.007825032230
         H           -2.501095571914    -1.342232999985    -0.517820551942     1.007825032230
         C           -2.308435571914     0.349067000015     0.593579448058    12.000000000000
         H           -3.374285571914     0.563377000015     0.643369448058     1.007825032230
         H           -2.013445571914    -0.104592999985     1.545549448058     1.007825032230
         H           -1.795665571914     1.305487000015     0.509149448058     1.007825032230
         O            1.889494428086    -0.385982999985    -0.490480551942    15.994914619570
         H            2.171524428086    -0.016032999985    -1.330350551942     1.007825032230
         C            2.275414428086     0.525607000015     0.528949448058    12.000000000000
         H            1.952224428086     0.095977000015     1.472019448058     1.007825032230
         H            3.356464428086     0.664687000015     0.567989448058     1.007825032230
         H            1.796934428086     1.499207000015     0.413769448058     1.007825032230

  Charge       = 0
  Multiplicity = 1
  Basis Set: AUG-CC-PVQZ
    Blend: AUG-CC-PVQZ
  Basis Set: (AUG-CC-PVQZ AUX)
    Blend: AUG-CC-PVQZ-JKFIT

    Orbital Energies [Eh]
    ---------------------

    Doubly Occupied:

       1A    -20.563069     2A    -15.528599     3A    -11.274212
       4A    -11.233309     5A     -1.363576     6A     -1.162519
       7A     -0.931292     8A     -0.888769     9A     -0.697371
      10A     -0.654270    11A     -0.626149    12A     -0.599596
      13A     -0.596537    14A     -0.548440    15A     -0.511812
      16A     -0.508758    17A     -0.458306    18A     -0.385506

  @DF-RHF Final Energy:  -210.36276503781133

   => Energetics <=

    Nuclear Repulsion Energy =            121.5978511103928383
    One-Electron Energy =                -526.8570440747174644
    Two-Electron Energy =                 194.8964279265132689
    Total Energy =                       -210.3627650378113287

  Dipole Moment: [D]
     X:     1.4944      Y:     0.8042      Z:     0.9146     Total:     1.9278

  Basis Set: (AUG-CC-PVQZ AUX)
    Blend: AUG-CC-PVQZ-RI
	 Reference Energy          =    -210.3627650378113287 [Eh]
	 Singles Energy            =      -0.0000000000000000 [Eh]
	 Same-Spin Energy          =      -0.2142078141252936 [Eh]
	 Opposite-Spin Energy      =      -0.8037470689040866 [Eh]
	 Correlation Energy        =      -1.0179548830293803 [Eh]
	 Total Energy              =    -211.3807199208407042 [Eh]

	 ================> DF-SCS-MP2 Energies <==================
	-----------------------------------------------------------
	 SCS Same-Spin Scale       =       0.3333333333333333 [-]
	 SCS Opposite-Spin Scale   =       1.2000000000000000 [-]
	 SCS Same-Spin Energy      =      -0.0714026047084312 [Eh]
	 SCS Opposite-Spin Energy  =      -0.9644964826849040 [Eh]
	 SCS Correlation Energy    =      -1.0358990873933351 [Eh]
	 SCS Total Energy          =    -211.3986641252046752 [Eh]
	-----------------------------------------------------------

*** Psi4 exiting successfully. Buy a developer a beer!
