                               Psi4 1.4a2.dev224

  ==> Input File <==

--------------------------------------------------------------------------
#Generated by lconvert.py for cbs job

memory 20 GB

molecule  {
0 1
  N      -0.893450   -0.043840   -0.043000
  H       0.096950   -0.256060   -0.071070
  H      -1.368440   -0.933390    0.033840
  C      -1.175780    0.757910    1.145240
  H      -2.241630    0.972220    1.195030
  H      -0.880790    0.304250    2.097210
  H      -0.663010    1.714330    1.060810
--
0 1
  O       3.697180    0.087230    0.091690
  H       3.979200    0.457180   -0.748170
  C       4.083090    0.998810    1.111130
  H       3.759910    0.569180    2.054190
  H       5.164150    1.137900    1.150170
  H       3.604620    1.972410    0.995950
units angstrom
no_reorient
symmetry c1
}

set {
scf_type DF
mp2_type DF
e_convergence 7
reference rhf
}

energy('mp2/aug-cc-pv[tq]z', bsse_type='cp')
--------------------------------------------------------------------------

    Molecular point group: c1
  Charge       = 0
  Multiplicity = 1
  Basis Set: AUG-CC-PVTZ
    Blend: AUG-CC-PVTZ
  Basis Set: (AUG-CC-PVTZ AUX)
    Blend: AUG-CC-PVTZ-JKFIT
  @DF-RHF Final Energy:  -115.09206853865066
    Total Energy =                       -115.0920685386506648
  Basis Set: (AUG-CC-PVTZ AUX)
    Blend: AUG-CC-PVTZ-RI
	 Reference Energy          =    -115.0920685386506648 [Eh]
	 Singles Energy            =      -0.0000000000000000 [Eh]
	 Same-Spin Energy          =      -0.1057606928941946 [Eh]
	 Opposite-Spin Energy      =      -0.3646656248555120 [Eh]
	 Correlation Energy        =      -0.4704263177497067 [Eh]
	 Total Energy              =    -115.5624948564003773 [Eh]
	 SCS Total Energy          =    -115.5649208527753444 [Eh]
    Molecular point group: c1
  Basis Set: AUG-CC-PVQZ
    Blend: AUG-CC-PVQZ
  Basis Set: (AUG-CC-PVQZ AUX)
    Blend: AUG-CC-PVQZ-JKFIT
  @DF-RHF Final Energy:  -115.09958689741768
    Total Energy =                       -115.0995868974176801
  Basis Set: (AUG-CC-PVQZ AUX)
  @DF-RHF Final Energy:  -115.09208785557243
    Total Energy =                       -115.0920878555724300
  @DF-RHF Final Energy:  -115.09959795770862
    Total Energy =                       -115.0995979577086246
  @DF-RHF Final Energy:   -95.25538689936070
    Total Energy =                        -95.2553868993607011
  @DF-RHF Final Energy:   -95.26136580906982
    Total Energy =                        -95.2613658090698152
  @DF-RHF Final Energy:   -95.25537666565589
    Total Energy =                        -95.2553766656558878
  @DF-RHF Final Energy:   -95.26136184577368
    Total Energy =                        -95.2613618457736777
  Multiplicity = 1
  @DF-RHF Final Energy:  -210.34851511410193
    Total Energy =                       -210.3485151141019287
	 Singles Energy            =      -0.0000000000000000 [Eh]
	 Same-Spin Energy          =      -0.2014179734049091 [Eh]
	 Opposite-Spin Energy      =      -0.7168146249787353 [Eh]
	 Correlation Energy        =      -0.9182325983836443 [Eh]
	 Total Energy              =    -211.2667477124855679 [Eh]
	 SCS Total Energy          =    -211.2758319885447236 [Eh]
    Molecular point group: c1

    Geometry (in Angstrom), charge = 0, multiplicity = 1:

       Center              X                  Y                   Z               Mass
    ------------   -----------------  -----------------  -----------------  -----------------
         N           -2.368884537196    -0.485367939386    -0.610155947910    14.003074004430
         H           -1.378484537196    -0.697587939386    -0.638225947910     1.007825032230
         H           -2.843874537196    -1.374917939386    -0.533315947910     1.007825032230
         C           -2.651214537196     0.316382060614     0.578084052090    12.000000000000
         H           -3.717064537196     0.530692060614     0.627874052090     1.007825032230
         H           -2.356224537196    -0.137277939386     1.530054052090     1.007825032230
         H           -2.138444537196     1.272802060614     0.493654052090     1.007825032230
         O            2.221745462804    -0.354297939386    -0.475465947910    15.994914619570
         H            2.503765462804     0.015652060614    -1.315325947910     1.007825032230
         C            2.607655462804     0.557282060614     0.543974052090    12.000000000000
         H            2.284475462804     0.127652060614     1.487034052090     1.007825032230
         H            3.688715462804     0.696372060614     0.583014052090     1.007825032230
         H            2.129185462804     1.530882060614     0.428794052090     1.007825032230

  Charge       = 0
  Multiplicity = 1
  Basis Set: AUG-CC-PVQZ
    Blend: AUG-CC-PVQZ
  Basis Set: (AUG-CC-PVQZ AUX)
    Blend: AUG-CC-PVQZ-JKFIT

    Orbital Energies [Eh]
    ---------------------

    Doubly Occupied:

       1A    -20.560893     2A    -15.531959     3A    -11.272808
       4A    -11.234809     5A     -1.361337     6A     -1.165387
       7A     -0.929702     8A     -0.890670     9A     -0.695332
      10A     -0.656747    11A     -0.624595    12A     -0.599232
      13A     -0.597072    14A     -0.550563    15A     -0.511355
      16A     -0.509116    17A     -0.456312    18A     -0.388175

  @DF-RHF Final Energy:  -210.36200055629598

   => Energetics <=

    Nuclear Repulsion Energy =            116.4452847694492590
    One-Electron Energy =                -516.5424405173307605
    Two-Electron Energy =                 189.7351551915855339
    Total Energy =                       -210.3620005562959818

  Dipole Moment: [D]
     X:     1.4134      Y:     0.8147      Z:     0.9278     Total:     1.8768

  Basis Set: (AUG-CC-PVQZ AUX)
    Blend: AUG-CC-PVQZ-RI
	 Reference Energy          =    -210.3620005562959818 [Eh]
	 Singles Energy            =      -0.0000000000000000 [Eh]
	 Same-Spin Energy          =      -0.2138634195368881 [Eh]
	 Opposite-Spin Energy      =      -0.8033578444862403 [Eh]
	 Correlation Energy        =      -1.0172212640231284 [Eh]
	 Total Energy              =    -211.3792218203191169 [Eh]

	 ================> DF-SCS-MP2 Energies <==================
	-----------------------------------------------------------
	 SCS Same-Spin Scale       =       0.3333333333333333 [-]
	 SCS Opposite-Spin Scale   =       1.2000000000000000 [-]
	 SCS Same-Spin Energy      =      -0.0712878065122960 [Eh]
	 SCS Opposite-Spin Energy  =      -0.9640294133834882 [Eh]
	 SCS Correlation Energy    =      -1.0353172198957843 [Eh]
	 SCS Total Energy          =    -211.3973177761917555 [Eh]
	-----------------------------------------------------------

*** Psi4 exiting successfully. Buy a developer a beer!
