                               Psi4 1.4a2.dev224

  ==> Input File <==

--------------------------------------------------------------------------
#Generated by lconvert.py for cbs job

memory 40 GB

molecule  {
0 1
  N       -0.6386410     0.4709160     0.0445680
  H        0.1899540    -0.1139370    -0.0057740
  H       -1.3004690     0.0812570    -0.6136680
  C       -1.1986590     0.3913990     1.3919470
  H       -2.0927380     1.0092450     1.4531670
  H       -1.4627460    -0.6158440     1.7294520
  H       -0.4802760     0.7986750     2.1010870
--
0 1
  N        1.9824790    -0.3911280     0.1588110
  H        2.2787480    -0.1165900    -0.7691750
  H        2.6060290    -1.1388180     0.4340050
  C        2.1427090     0.7440830     1.0724860
  H        1.8725190     0.4293870     2.0781390
  H        3.1501190     1.1658590     1.1094580
  H        1.4501690     1.5298580     0.7798290
units angstrom
no_reorient
symmetry c1
}

set {
scf_type DF
mp2_type DF
e_convergence 7
reference rhf
}

energy('mp2/aug-cc-pv[tq]z', bsse_type='cp')
--------------------------------------------------------------------------

    Molecular point group: c1
  Charge       = 0
  Multiplicity = 1
  Basis Set: AUG-CC-PVTZ
    Blend: AUG-CC-PVTZ
  Basis Set: (AUG-CC-PVTZ AUX)
    Blend: AUG-CC-PVTZ-JKFIT
  @DF-RHF Final Energy:   -95.25540799806096
    Total Energy =                        -95.2554079980609600
  Basis Set: (AUG-CC-PVTZ AUX)
    Blend: AUG-CC-PVTZ-RI
	 Reference Energy          =     -95.2554079980609600 [Eh]
	 Singles Energy            =      -0.0000000000000000 [Eh]
	 Same-Spin Energy          =      -0.0953981914230324 [Eh]
	 Opposite-Spin Energy      =      -0.3516919639277385 [Eh]
	 Correlation Energy        =      -0.4470901553507709 [Eh]
	 Total Energy              =     -95.7024981534117245 [Eh]
	 SCS Total Energy          =     -95.7092377519152535 [Eh]
    Molecular point group: c1
  Basis Set: AUG-CC-PVQZ
    Blend: AUG-CC-PVQZ
  Basis Set: (AUG-CC-PVQZ AUX)
    Blend: AUG-CC-PVQZ-JKFIT
  @DF-RHF Final Energy:   -95.26138971449352
    Total Energy =                        -95.2613897144935180
  Basis Set: (AUG-CC-PVQZ AUX)
  @DF-RHF Final Energy:   -95.25549681810244
    Total Energy =                        -95.2554968181024435
  @DF-RHF Final Energy:   -95.26142142696672
    Total Energy =                        -95.2614214269667201
  @DF-RHF Final Energy:   -95.25539120898813
    Total Energy =                        -95.2553912089881294
  @DF-RHF Final Energy:   -95.26132532699921
    Total Energy =                        -95.2613253269992128
  @DF-RHF Final Energy:   -95.25531910234437
    Total Energy =                        -95.2553191023443731
  @DF-RHF Final Energy:   -95.26130143457578
    Total Energy =                        -95.2613014345757847
  Multiplicity = 1
  @DF-RHF Final Energy:  -190.50220968417347
    Total Energy =                       -190.5022096841734651
	 Singles Energy            =      -0.0000000000000000 [Eh]
	 Same-Spin Energy          =      -0.1965855131173170 [Eh]
	 Opposite-Spin Energy      =      -0.7109369679055804 [Eh]
	 Correlation Energy        =      -0.9075224810228975 [Eh]
	 Total Energy              =    -191.4097321651963739 [Eh]
	 SCS Total Energy          =    -191.4208625500326093 [Eh]
    Molecular point group: c1

    Geometry (in Angstrom), charge = 0, multiplicity = 1:

       Center              X                  Y                   Z               Mass
    ------------   -----------------  -----------------  -----------------  -----------------
         N           -1.225042360659     0.184276256529    -0.612321151229    14.003074004430
         H           -0.396447360659    -0.400576743471    -0.662663151229     1.007825032230
         H           -1.886870360659    -0.205382743471    -1.270557151229     1.007825032230
         C           -1.785060360659     0.104759256529     0.735057848771    12.000000000000
         H           -2.679139360659     0.722605256529     0.796277848771     1.007825032230
         H           -2.049147360659    -0.902483743471     1.072562848771     1.007825032230
         H           -1.066677360659     0.512035256529     1.444197848771     1.007825032230
         N            1.396077639341    -0.677767743471    -0.498078151229    14.003074004430
         H            1.692346639341    -0.403229743471    -1.426064151229     1.007825032230
         H            2.019627639341    -1.425457743471    -0.222884151229     1.007825032230
         C            1.556307639341     0.457443256529     0.415596848771    12.000000000000
         H            1.286117639341     0.142747256529     1.421249848771     1.007825032230
         H            2.563717639341     0.879219256529     0.452568848771     1.007825032230
         H            0.863767639341     1.243218256529     0.122939848771     1.007825032230

  Charge       = 0
  Multiplicity = 1
  Basis Set: AUG-CC-PVQZ
    Blend: AUG-CC-PVQZ
  Basis Set: (AUG-CC-PVQZ AUX)
    Blend: AUG-CC-PVQZ-JKFIT

    Orbital Energies [Eh]
    ---------------------

    Doubly Occupied:

       1A    -15.548655     2A    -15.502745     3A    -11.239753
       4A    -11.222186     5A     -1.186655     6A     -1.143503
       7A     -0.902439     8A     -0.876889     9A     -0.679245
      10A     -0.654452    11A     -0.600643    12A     -0.585149
      13A     -0.559760    14A     -0.530541    15A     -0.521993
      16A     -0.501742    17A     -0.406139    18A     -0.364906

  @DF-RHF Final Energy:  -190.51408984036433

   => Energetics <=

    Nuclear Repulsion Energy =            137.7273063723986297
    One-Electron Energy =                -530.4279991114302675
    Two-Electron Energy =                 202.1866028986673030
    Total Energy =                       -190.5140898403643348

  Dipole Moment: [D]
     X:     1.7281      Y:    -1.0871      Z:     0.1194     Total:     2.0450

  Basis Set: (AUG-CC-PVQZ AUX)
    Blend: AUG-CC-PVQZ-RI
	 Reference Energy          =    -190.5140898403643348 [Eh]
	 Singles Energy            =      -0.0000000000000000 [Eh]
	 Same-Spin Energy          =      -0.2079987545808713 [Eh]
	 Opposite-Spin Energy      =      -0.7913197242216032 [Eh]
	 Correlation Energy        =      -0.9993184788024745 [Eh]
	 Total Energy              =    -191.5134083191668140 [Eh]

	 ================> DF-SCS-MP2 Energies <==================
	-----------------------------------------------------------
	 SCS Same-Spin Scale       =       0.3333333333333333 [-]
	 SCS Opposite-Spin Scale   =       1.2000000000000000 [-]
	 SCS Same-Spin Energy      =      -0.0693329181936238 [Eh]
	 SCS Opposite-Spin Energy  =      -0.9495836690659238 [Eh]
	 SCS Correlation Energy    =      -1.0189165872595476 [Eh]
	 SCS Total Energy          =    -191.5330064276238886 [Eh]
	-----------------------------------------------------------

*** Psi4 exiting successfully. Buy a developer a beer!
