                               Psi4 1.4a2.dev224

  ==> Input File <==

--------------------------------------------------------------------------
#Generated by lconvert.py for cbs job

memory 40 GB

molecule  {
0 1
  N       -0.6386410     0.4709160     0.0445680
  H        0.1899540    -0.1139370    -0.0057740
  H       -1.3004690     0.0812570    -0.6136680
  C       -1.1986590     0.3913990     1.3919470
  H       -2.0927380     1.0092450     1.4531670
  H       -1.4627460    -0.6158440     1.7294520
  H       -0.4802760     0.7986750     2.1010870
--
0 1
  N        1.7584130    -0.3564790     0.1382380
  H        2.0546820    -0.0819410    -0.7897480
  H        2.3819630    -1.1041690     0.4134320
  C        1.9186430     0.7787310     1.0519130
  H        1.6484530     0.4640360     2.0575660
  H        2.9260540     1.2005080     1.0888850
  H        1.2261030     1.5645070     0.7592560
units angstrom
no_reorient
symmetry c1
}

set {
scf_type DF
mp2_type DF
e_convergence 7
reference rhf
}

energy('mp2/aug-cc-pv[tq]z', bsse_type='cp')
--------------------------------------------------------------------------

    Molecular point group: c1
  Charge       = 0
  Multiplicity = 1
  Basis Set: AUG-CC-PVTZ
    Blend: AUG-CC-PVTZ
  Basis Set: (AUG-CC-PVTZ AUX)
    Blend: AUG-CC-PVTZ-JKFIT
  @DF-RHF Final Energy:   -95.25540799752081
    Total Energy =                        -95.2554079975208055
  Basis Set: (AUG-CC-PVTZ AUX)
    Blend: AUG-CC-PVTZ-RI
	 Reference Energy          =     -95.2554079975208055 [Eh]
	 Singles Energy            =      -0.0000000000000000 [Eh]
	 Same-Spin Energy          =      -0.0953981930399454 [Eh]
	 Opposite-Spin Energy      =      -0.3516919646130184 [Eh]
	 Correlation Energy        =      -0.4470901576529638 [Eh]
	 Total Energy              =     -95.7024981551737710 [Eh]
	 SCS Total Energy          =     -95.7092377527364135 [Eh]
    Molecular point group: c1
  Basis Set: AUG-CC-PVQZ
    Blend: AUG-CC-PVQZ
  Basis Set: (AUG-CC-PVQZ AUX)
    Blend: AUG-CC-PVQZ-JKFIT
  @DF-RHF Final Energy:   -95.26138971400989
    Total Energy =                        -95.2613897140098942
  Basis Set: (AUG-CC-PVQZ AUX)
  @DF-RHF Final Energy:   -95.25552012110464
    Total Energy =                        -95.2555201211046381
  @DF-RHF Final Energy:   -95.26142648985839
    Total Energy =                        -95.2614264898583940
  @DF-RHF Final Energy:   -95.25541049989421
    Total Energy =                        -95.2554104998942108
  @DF-RHF Final Energy:   -95.26133097990618
    Total Energy =                        -95.2613309799061767
  @DF-RHF Final Energy:   -95.25531910235948
    Total Energy =                        -95.2553191023594792
  @DF-RHF Final Energy:   -95.26130143451059
    Total Energy =                        -95.2613014345105853
  Multiplicity = 1
  @DF-RHF Final Energy:  -190.48505212958159
    Total Energy =                       -190.4850521295815895
	 Singles Energy            =      -0.0000000000000000 [Eh]
	 Same-Spin Energy          =      -0.1992198774281823 [Eh]
	 Opposite-Spin Energy      =      -0.7139632196990408 [Eh]
	 Correlation Energy        =      -0.9131830971272230 [Eh]
	 Total Energy              =    -191.3982352267088061 [Eh]
	 SCS Total Energy          =    -191.4082146190298204 [Eh]
    Molecular point group: c1

    Geometry (in Angstrom), charge = 0, multiplicity = 1:

       Center              X                  Y                   Z               Mass
    ------------   -----------------  -----------------  -----------------  -----------------
         N           -1.113009376892     0.166951949814    -0.602034651229    14.003074004430
         H           -0.284414376892    -0.417901050186    -0.652376651229     1.007825032230
         H           -1.774837376892    -0.222707050186    -1.260270651229     1.007825032230
         C           -1.673027376892     0.087434949814     0.745344348771    12.000000000000
         H           -2.567106376892     0.705280949814     0.806564348771     1.007825032230
         H           -1.937114376892    -0.919808050186     1.082849348771     1.007825032230
         H           -0.954644376892     0.494710949814     1.454484348771     1.007825032230
         N            1.284044623108    -0.660443050186    -0.508364651229    14.003074004430
         H            1.580313623108    -0.385905050186    -1.436350651229     1.007825032230
         H            1.907594623108    -1.408133050186    -0.233170651229     1.007825032230
         C            1.444274623108     0.474766949814     0.405310348771    12.000000000000
         H            1.174084623108     0.160071949814     1.410963348771     1.007825032230
         H            2.451685623108     0.896543949814     0.442282348771     1.007825032230
         H            0.751734623108     1.260542949814     0.112653348771     1.007825032230

  Charge       = 0
  Multiplicity = 1
  Basis Set: AUG-CC-PVQZ
    Blend: AUG-CC-PVQZ
  Basis Set: (AUG-CC-PVQZ AUX)
    Blend: AUG-CC-PVQZ-JKFIT

    Orbital Energies [Eh]
    ---------------------

    Doubly Occupied:

       1A    -15.551458     2A    -15.488964     3A    -11.239306
       4A    -11.217985     5A     -1.197075     6A     -1.135318
       7A     -0.905693     8A     -0.873244     9A     -0.690191
      10A     -0.661638    11A     -0.596103    12A     -0.582448
      13A     -0.558109    14A     -0.524099    15A     -0.523221
      16A     -0.502398    17A     -0.403732    18A     -0.354569

  @DF-RHF Final Energy:  -190.49692339425752

   => Energetics <=

    Nuclear Repulsion Energy =            141.6081930851616164
    One-Electron Energy =                -538.1991301716055887
    Two-Electron Energy =                 206.0940136921864791
    Total Energy =                       -190.4969233942575215

  Dipole Moment: [D]
     X:     1.9503      Y:    -1.1481      Z:     0.0756     Total:     2.2644

  Basis Set: (AUG-CC-PVQZ AUX)
    Blend: AUG-CC-PVQZ-RI
	 Reference Energy          =    -190.4969233942575215 [Eh]
	 Singles Energy            =      -0.0000000000000000 [Eh]
	 Same-Spin Energy          =      -0.2106680202560995 [Eh]
	 Opposite-Spin Energy      =      -0.7941912581790842 [Eh]
	 Correlation Energy        =      -1.0048592784351837 [Eh]
	 Total Energy              =    -191.5017826726927126 [Eh]

	 ================> DF-SCS-MP2 Energies <==================
	-----------------------------------------------------------
	 SCS Same-Spin Scale       =       0.3333333333333333 [-]
	 SCS Opposite-Spin Scale   =       1.2000000000000000 [-]
	 SCS Same-Spin Energy      =      -0.0702226734186998 [Eh]
	 SCS Opposite-Spin Energy  =      -0.9530295098149010 [Eh]
	 SCS Correlation Energy    =      -1.0232521832336008 [Eh]
	 SCS Total Energy          =    -191.5201755774911305 [Eh]
	-----------------------------------------------------------

*** Psi4 exiting successfully. Buy a developer a beer!
