                               Psi4 1.4a2.dev224

  ==> Input File <==

--------------------------------------------------------------------------
#Generated by lconvert.py for cbs job

memory 20 GB

molecule  {
0 1
  N      -0.638640    0.470920    0.044570
  H       0.189950   -0.113940   -0.005770
  H      -1.300470    0.081260   -0.613670
  C      -1.198660    0.391400    1.391950
  H      -2.092740    1.009240    1.453170
  H      -1.462750   -0.615840    1.729450
  H      -0.480280    0.798680    2.101090
--
0 1
  N       3.102910   -0.564390    0.261690
  H       3.399180   -0.289850   -0.666300
  H       3.726460   -1.312080    0.536880
  C       3.263140    0.570820    1.175360
  H       2.992950    0.256130    2.181010
  H       4.270550    0.992600    1.212330
  H       2.570600    1.356600    0.882700
units angstrom
no_reorient
symmetry c1
}

set {
scf_type DF
mp2_type DF
e_convergence 7
reference rhf
}

energy('mp2/aug-cc-pv[tq]z', bsse_type='cp')
--------------------------------------------------------------------------

    Molecular point group: c1
  Charge       = 0
  Multiplicity = 1
  Basis Set: AUG-CC-PVTZ
    Blend: AUG-CC-PVTZ
  Basis Set: (AUG-CC-PVTZ AUX)
    Blend: AUG-CC-PVTZ-JKFIT
  @DF-RHF Final Energy:   -95.25540796091920
    Total Energy =                        -95.2554079609192001
  Basis Set: (AUG-CC-PVTZ AUX)
    Blend: AUG-CC-PVTZ-RI
	 Reference Energy          =     -95.2554079609192001 [Eh]
	 Singles Energy            =      -0.0000000000000000 [Eh]
	 Same-Spin Energy          =      -0.0953982179961163 [Eh]
	 Opposite-Spin Energy      =      -0.3516919861189117 [Eh]
	 Correlation Energy        =      -0.4470902041150279 [Eh]
	 Total Energy              =     -95.7024981650342284 [Eh]
	 SCS Total Energy          =     -95.7092377502605984 [Eh]
    Molecular point group: c1
  Basis Set: AUG-CC-PVQZ
    Blend: AUG-CC-PVQZ
  Basis Set: (AUG-CC-PVQZ AUX)
    Blend: AUG-CC-PVQZ-JKFIT
  @DF-RHF Final Energy:   -95.26138967759893
    Total Energy =                        -95.2613896775989275
  Basis Set: (AUG-CC-PVQZ AUX)
  @DF-RHF Final Energy:   -95.25543608311159
    Total Energy =                        -95.2554360831115901
  @DF-RHF Final Energy:   -95.26140116970146
    Total Energy =                        -95.2614011697014575
  @DF-RHF Final Energy:   -95.25534208360888
    Total Energy =                        -95.2553420836088804
  @DF-RHF Final Energy:   -95.26130993944157
    Total Energy =                        -95.2613099394415741
  @DF-RHF Final Energy:   -95.25531902442063
    Total Energy =                        -95.2553190244206291
  @DF-RHF Final Energy:   -95.26130135385553
    Total Energy =                        -95.2613013538555293
  Multiplicity = 1
  @DF-RHF Final Energy:  -190.51306795565949
    Total Energy =                       -190.5130679556594941
	 Singles Energy            =      -0.0000000000000000 [Eh]
	 Same-Spin Energy          =      -0.1917843891760170 [Eh]
	 Opposite-Spin Energy      =      -0.7049414326416119 [Eh]
	 Correlation Energy        =      -0.8967258218176289 [Eh]
	 Total Energy              =    -191.4097937774771196 [Eh]
	 SCS Total Energy          =    -191.4229258045547795 [Eh]
    Molecular point group: c1

    Geometry (in Angstrom), charge = 0, multiplicity = 1:

       Center              X                  Y                   Z               Mass
    ------------   -----------------  -----------------  -----------------  -----------------
         N           -1.785256665659     0.270910062136    -0.663758309928    14.003074004430
         H           -0.956666665659    -0.313949937864    -0.714098309928     1.007825032230
         H           -2.447086665659    -0.118749937864    -1.321998309928     1.007825032230
         C           -2.345276665659     0.191390062136     0.683621690072    12.000000000000
         H           -3.239356665659     0.809230062136     0.744841690072     1.007825032230
         H           -2.609366665659    -0.815849937864     1.021121690072     1.007825032230
         H           -1.626896665659     0.598670062136     1.392761690072     1.007825032230
         N            1.956293334341    -0.764399937864    -0.446638309928    14.003074004430
         H            2.252563334341    -0.489859937864    -1.374628309928     1.007825032230
         H            2.579843334341    -1.512089937864    -0.171448309928     1.007825032230
         C            2.116523334341     0.370810062136     0.467031690072    12.000000000000
         H            1.846333334341     0.056120062136     1.472681690072     1.007825032230
         H            3.123933334341     0.792590062136     0.504001690072     1.007825032230
         H            1.423983334341     1.156590062136     0.174371690072     1.007825032230

  Charge       = 0
  Multiplicity = 1
  Basis Set: AUG-CC-PVQZ
    Blend: AUG-CC-PVQZ
  Basis Set: (AUG-CC-PVQZ AUX)
    Blend: AUG-CC-PVQZ-JKFIT

    Orbital Energies [Eh]
    ---------------------

    Doubly Occupied:

       1A    -15.542416     2A    -15.527016     3A    -11.240337
       4A    -11.231218     5A     -1.173760     6A     -1.160270
       7A     -0.898088     8A     -0.886586     9A     -0.665228
      10A     -0.652121    11A     -0.606846    12A     -0.594936
      13A     -0.557406    14A     -0.546079    15A     -0.518870
      16A     -0.507450    17A     -0.398927    18A     -0.383548

  @DF-RHF Final Energy:  -190.52500108629175

   => Energetics <=

    Nuclear Repulsion Energy =            124.0704305336519013
    One-Electron Energy =                -503.0086548151705301
    Two-Electron Energy =                 188.4132231952268626
    Total Energy =                       -190.5250010862917520

  Dipole Moment: [D]
     X:     1.2935      Y:    -0.9804      Z:     0.2265     Total:     1.6388

  Basis Set: (AUG-CC-PVQZ AUX)
    Blend: AUG-CC-PVQZ-RI
	 Reference Energy          =    -190.5250010862917520 [Eh]
	 Singles Energy            =      -0.0000000000000000 [Eh]
	 Same-Spin Energy          =      -0.2031964756573209 [Eh]
	 Opposite-Spin Energy      =      -0.7861369922713997 [Eh]
	 Correlation Energy        =      -0.9893334679287206 [Eh]
	 Total Energy              =    -191.5143345542204827 [Eh]

	 ================> DF-SCS-MP2 Energies <==================
	-----------------------------------------------------------
	 SCS Same-Spin Scale       =       0.3333333333333333 [-]
	 SCS Opposite-Spin Scale   =       1.2000000000000000 [-]
	 SCS Same-Spin Energy      =      -0.0677321585524403 [Eh]
	 SCS Opposite-Spin Energy  =      -0.9433643907256796 [Eh]
	 SCS Correlation Energy    =      -1.0110965492781199 [Eh]
	 SCS Total Energy          =    -191.5360976355698597 [Eh]
	-----------------------------------------------------------

*** Psi4 exiting successfully. Buy a developer a beer!
