                               Psi4 1.4a2.dev224

  ==> Input File <==

--------------------------------------------------------------------------
#Generated by lconvert.py for cbs job

memory 40 GB

molecule  {
0 1
  N       -0.6386410     0.4709160     0.0445680
  H        0.1899540    -0.1139370    -0.0057740
  H       -1.3004690     0.0812570    -0.6136680
  C       -1.1986590     0.3913990     1.3919470
  H       -2.0927380     1.0092450     1.4531670
  H       -1.4627460    -0.6158440     1.7294520
  H       -0.4802760     0.7986750     2.1010870
--
0 1
  N        2.3186760    -0.4431170     0.1896790
  H        2.6149440    -0.1685790    -0.7383060
  H        2.9422250    -1.1908070     0.4648740
  C        2.4789060     0.6920940     1.1033540
  H        2.2087150     0.3773980     2.1090080
  H        3.4863160     1.1138710     1.1403260
  H        1.7863650     1.4778700     0.8106970
units angstrom
no_reorient
symmetry c1
}

set {
scf_type DF
mp2_type DF
e_convergence 7
reference rhf
}

energy('mp2/aug-cc-pv[tq]z', bsse_type='cp')
--------------------------------------------------------------------------

    Molecular point group: c1
  Charge       = 0
  Multiplicity = 1
  Basis Set: AUG-CC-PVTZ
    Blend: AUG-CC-PVTZ
  Basis Set: (AUG-CC-PVTZ AUX)
    Blend: AUG-CC-PVTZ-JKFIT
  @DF-RHF Final Energy:   -95.25540801535796
    Total Energy =                        -95.2554080153579577
  Basis Set: (AUG-CC-PVTZ AUX)
    Blend: AUG-CC-PVTZ-RI
	 Reference Energy          =     -95.2554080153579577 [Eh]
	 Singles Energy            =      -0.0000000000000000 [Eh]
	 Same-Spin Energy          =      -0.0953981840008743 [Eh]
	 Opposite-Spin Energy      =      -0.3516919535770864 [Eh]
	 Correlation Energy        =      -0.4470901375779607 [Eh]
	 Total Energy              =     -95.7024981529359167 [Eh]
	 SCS Total Energy          =     -95.7092377543174138 [Eh]
    Molecular point group: c1
  Basis Set: AUG-CC-PVQZ
    Blend: AUG-CC-PVQZ
  Basis Set: (AUG-CC-PVQZ AUX)
    Blend: AUG-CC-PVQZ-JKFIT
  @DF-RHF Final Energy:   -95.26138973185758
    Total Energy =                        -95.2613897318575766
  Basis Set: (AUG-CC-PVQZ AUX)
  @DF-RHF Final Energy:   -95.25546531975114
    Total Energy =                        -95.2554653197511385
  @DF-RHF Final Energy:   -95.26141332851348
    Total Energy =                        -95.2614133285134841
  @DF-RHF Final Energy:   -95.25537000946485
    Total Energy =                        -95.2553700094648548
  @DF-RHF Final Energy:   -95.26131888822985
    Total Energy =                        -95.2613188882298516
  @DF-RHF Final Energy:   -95.25531910235270
    Total Energy =                        -95.2553191023527006
  @DF-RHF Final Energy:   -95.26130143451566
    Total Energy =                        -95.2613014345156586
  Multiplicity = 1
  @DF-RHF Final Energy:  -190.51143701588987
    Total Energy =                       -190.5114370158898680
	 Singles Energy            =      -0.0000000000000000 [Eh]
	 Same-Spin Energy          =      -0.1941161836752238 [Eh]
	 Opposite-Spin Energy      =      -0.7079725758208629 [Eh]
	 Correlation Energy        =      -0.9020887594960867 [Eh]
	 Total Energy              =    -191.4135257753859491 [Eh]
	 SCS Total Energy          =    -191.4257095014333174 [Eh]
    Molecular point group: c1

    Geometry (in Angstrom), charge = 0, multiplicity = 1:

       Center              X                  Y                   Z               Mass
    ------------   -----------------  -----------------  -----------------  -----------------
         N           -1.393140795726     0.210270724063    -0.627755199929    14.003074004430
         H           -0.564545795726    -0.374582275937    -0.678097199929     1.007825032230
         H           -2.054968795726    -0.179388275937    -1.285991199929     1.007825032230
         C           -1.953158795726     0.130753724063     0.719623800071    12.000000000000
         H           -2.847237795726     0.748599724063     0.780843800071     1.007825032230
         H           -2.217245795726    -0.876489275937     1.057128800071     1.007825032230
         H           -1.234775795726     0.538029724063     1.428763800071     1.007825032230
         N            1.564176204274    -0.703762275937    -0.482644199929    14.003074004430
         H            1.860444204274    -0.429224275937    -1.410629199929     1.007825032230
         H            2.187725204274    -1.451452275937    -0.207449199929     1.007825032230
         C            1.724406204274     0.431448724063     0.431030800071    12.000000000000
         H            1.454215204274     0.116752724063     1.436684800071     1.007825032230
         H            2.731816204274     0.853225724063     0.468002800071     1.007825032230
         H            1.031865204274     1.217224724063     0.138373800071     1.007825032230

  Charge       = 0
  Multiplicity = 1
  Basis Set: AUG-CC-PVQZ
    Blend: AUG-CC-PVQZ
  Basis Set: (AUG-CC-PVQZ AUX)
    Blend: AUG-CC-PVQZ-JKFIT

    Orbital Energies [Eh]
    ---------------------

    Doubly Occupied:

       1A    -15.546033     2A    -15.515133     3A    -11.240196
       4A    -11.226355     5A     -1.179209     6A     -1.151496
       7A     -0.900048     8A     -0.881079     9A     -0.671147
      10A     -0.649667    11A     -0.605804    12A     -0.589096
      13A     -0.559369    14A     -0.538025    15A     -0.520295
      16A     -0.503049    17A     -0.404388    18A     -0.374252

  @DF-RHF Final Energy:  -190.52335582284559

   => Energetics <=

    Nuclear Repulsion Energy =            132.7713658857845473
    One-Electron Energy =                -520.4801563644874705
    Two-Electron Energy =                 197.1854346558573070
    Total Energy =                       -190.5233558228455877

  Dipole Moment: [D]
     X:     1.5174      Y:    -1.0305      Z:     0.1679     Total:     1.8419

  Basis Set: (AUG-CC-PVQZ AUX)
    Blend: AUG-CC-PVQZ-RI
	 Reference Energy          =    -190.5233558228455877 [Eh]
	 Singles Energy            =      -0.0000000000000000 [Eh]
	 Same-Spin Energy          =      -0.2055051762471156 [Eh]
	 Opposite-Spin Energy      =      -0.7886431700958996 [Eh]
	 Correlation Energy        =      -0.9941483463430152 [Eh]
	 Total Energy              =    -191.5175041691886122 [Eh]

	 ================> DF-SCS-MP2 Energies <==================
	-----------------------------------------------------------
	 SCS Same-Spin Scale       =       0.3333333333333333 [-]
	 SCS Opposite-Spin Scale   =       1.2000000000000000 [-]
	 SCS Same-Spin Energy      =      -0.0685017254157052 [Eh]
	 SCS Opposite-Spin Energy  =      -0.9463718041150795 [Eh]
	 SCS Correlation Energy    =      -1.0148735295307847 [Eh]
	 SCS Total Energy          =    -191.5382293523763622 [Eh]
	-----------------------------------------------------------

*** Psi4 exiting successfully. Buy a developer a beer!
