                               Psi4 1.4a2.dev224

  ==> Input File <==

--------------------------------------------------------------------------
#Generated by lconvert.py for cbs job

memory 40 GB

molecule  {
0 1
  N       -0.6386410     0.4709160     0.0445680
  H        0.1899540    -0.1139370    -0.0057740
  H       -1.3004690     0.0812570    -0.6136680
  C       -1.1986590     0.3913990     1.3919470
  H       -2.0927380     1.0092450     1.4531670
  H       -1.4627460    -0.6158440     1.7294520
  H       -0.4802760     0.7986750     2.1010870
--
0 1
  N        1.7584130    -0.3564790     0.1382380
  H        2.0546820    -0.0819410    -0.7897480
  H        2.3819630    -1.1041690     0.4134320
  C        1.9186430     0.7787310     1.0519130
  H        1.6484530     0.4640360     2.0575660
  H        2.9260540     1.2005080     1.0888850
  H        1.2261030     1.5645070     0.7592560
units angstrom
no_reorient
symmetry c1
}

set {
scf_type DF
mp2_type DF
e_convergence 7
reference rhf
}

energy('mp2/aug-cc-pv[tq]z', bsse_type='cp')
--------------------------------------------------------------------------

    Molecular point group: c1
  Charge       = 0
  Multiplicity = 1
  Basis Set: AUG-CC-PVTZ
    Blend: AUG-CC-PVTZ
  Basis Set: (AUG-CC-PVTZ AUX)
    Blend: AUG-CC-PVTZ-JKFIT
  @DF-RHF Final Energy:   -95.25540799752081
    Total Energy =                        -95.2554079975208055
  Basis Set: (AUG-CC-PVTZ AUX)
    Blend: AUG-CC-PVTZ-RI
	 Reference Energy          =     -95.2554079975208055 [Eh]
	 Singles Energy            =      -0.0000000000000000 [Eh]
	 Same-Spin Energy          =      -0.0953981930399454 [Eh]
	 Opposite-Spin Energy      =      -0.3516919646130184 [Eh]
	 Correlation Energy        =      -0.4470901576529638 [Eh]
	 Total Energy              =     -95.7024981551737710 [Eh]
	 SCS Total Energy          =     -95.7092377527364135 [Eh]
    Molecular point group: c1
  Basis Set: AUG-CC-PVQZ
    Blend: AUG-CC-PVQZ
  Basis Set: (AUG-CC-PVQZ AUX)
    Blend: AUG-CC-PVQZ-JKFIT
  @DF-RHF Final Energy:   -95.26138971400989
    Total Energy =                        -95.2613897140098942
  Basis Set: (AUG-CC-PVQZ AUX)
  @DF-RHF Final Energy:   -95.25552012110464
    Total Energy =                        -95.2555201211046381
  @DF-RHF Final Energy:   -95.26142648985839
    Total Energy =                        -95.2614264898583940
  @DF-RHF Final Energy:   -95.25541049989421
    Total Energy =                        -95.2554104998942108
  @DF-RHF Final Energy:   -95.26133097990618
    Total Energy =                        -95.2613309799061767
  @DF-RHF Final Energy:   -95.25531910235948
    Total Energy =                        -95.2553191023594792
  @DF-RHF Final Energy:   -95.26130143451059
    Total Energy =                        -95.2613014345105853
  @DF-RHF Final Energy:  -190.48505212958159
    Total Energy =                       -190.4850521295815895
  @DF-RHF Final Energy:  -190.49692339425752
    Total Energy =                       -190.4969233942575215
*** Psi4 exiting successfully. Buy a developer a beer!
                               Psi4 1.4a2.dev224
  @DF-RHF Final Energy:   -95.25540799806096
    Total Energy =                        -95.2554079980609600
  @DF-RHF Final Energy:   -95.26138971449352
    Total Energy =                        -95.2613897144935180
  @DF-RHF Final Energy:   -95.25549681810244
    Total Energy =                        -95.2554968181024435
  @DF-RHF Final Energy:   -95.26142142696672
    Total Energy =                        -95.2614214269667201
  @DF-RHF Final Energy:   -95.25539120898813
    Total Energy =                        -95.2553912089881294
  @DF-RHF Final Energy:   -95.26132532699921
    Total Energy =                        -95.2613253269992128
  @DF-RHF Final Energy:   -95.25531910234437
    Total Energy =                        -95.2553191023443731
  @DF-RHF Final Energy:   -95.26130143457578
    Total Energy =                        -95.2613014345757847
  @DF-RHF Final Energy:  -190.50220968417347
    Total Energy =                       -190.5022096841734651
  @DF-RHF Final Energy:  -190.51408984036433
    Total Energy =                       -190.5140898403643348
*** Psi4 exiting successfully. Buy a developer a beer!
                               Psi4 1.4a2.dev224
                               Psi4 1.4a2.dev224
                               Psi4 1.4a2.dev224
                               Psi4 1.4a2.dev224
                               Psi4 1.4a2.dev224
                               Psi4 1.4a2.dev224
                               Psi4 1.4a2.dev224
  @DF-RHF Final Energy:   -95.25540797219323
    Total Energy =                        -95.2554079721932254
  @DF-RHF Final Energy:   -95.26138968431043
    Total Energy =                        -95.2613896843104300
  @DF-RHF Final Energy:   -95.25542170159775
    Total Energy =                        -95.2554217015977542
  @DF-RHF Final Energy:   -95.26139679048168
    Total Energy =                        -95.2613967904816832
  @DF-RHF Final Energy:   -95.25533131470047
    Total Energy =                        -95.2553313147004701
  @DF-RHF Final Energy:   -95.26130660658424
    Total Energy =                        -95.2613066065842418
  @DF-RHF Final Energy:   -95.25531902436015
    Total Energy =                        -95.2553190243601478
  @DF-RHF Final Energy:   -95.26130135395752
    Total Energy =                        -95.2613013539575206
  @DF-RHF Final Energy:  -190.51206984551436
    Total Energy =                       -190.5120698455143611
  @DF-RHF Final Energy:  -190.52401758110750
    Total Energy =                       -190.5240175811075005
*** Psi4 exiting successfully. Buy a developer a beer!
                               Psi4 1.4a2.dev224
  @DF-RHF Final Energy:   -95.25540807116673
    Total Energy =                        -95.2554080711667268
  @DF-RHF Final Energy:   -95.26138979238712
    Total Energy =                        -95.2613897923871207
  @DF-RHF Final Energy:   -95.25541601278729
    Total Energy =                        -95.2554160127872933
  @DF-RHF Final Energy:   -95.26139392899988
    Total Energy =                        -95.2613939289998797
  @DF-RHF Final Energy:   -95.25532639777062
    Total Energy =                        -95.2553263977706166
  @DF-RHF Final Energy:   -95.26130478420255
    Total Energy =                        -95.2613047842025509
  @DF-RHF Final Energy:   -95.25531902445748
    Total Energy =                        -95.2553190244574779
  @DF-RHF Final Energy:   -95.26130135399848
    Total Energy =                        -95.2613013539984763
  Multiplicity = 1
  @DF-RHF Final Energy:  -190.51148624859815
    Total Energy =                       -190.5114862485981462
	 Singles Energy            =      -0.0000000000000000 [Eh]
	 Same-Spin Energy          =      -0.1909925095005494 [Eh]
	 Opposite-Spin Energy      =      -0.7037337897570806 [Eh]
	 Correlation Energy        =      -0.8947262992576299 [Eh]
	 Total Energy              =    -191.4062125478557732 [Eh]
	 SCS Total Energy          =    -191.4196309661401472 [Eh]
    Molecular point group: c1

    Geometry (in Angstrom), charge = 0, multiplicity = 1:

       Center              X                  Y                   Z               Mass
    ------------   -----------------  -----------------  -----------------  -----------------
         N           -2.457451665659     0.374855549131    -0.725476054438    14.003074004430
         H           -1.628861665659    -0.210004450869    -0.775816054438     1.007825032230
         H           -3.119281665659    -0.014804450869    -1.383716054438     1.007825032230
         C           -3.017471665659     0.295335549131     0.621903945562    12.000000000000
         H           -3.911551665659     0.913175549131     0.683123945562     1.007825032230
         H           -3.281561665659    -0.711904450869     0.959403945562     1.007825032230
         H           -2.299091665659     0.702615549131     1.331043945562     1.007825032230
         N            2.628488334341    -0.868344450869    -0.384926054438    14.003074004430
         H            2.924758334341    -0.593804450869    -1.312906054438     1.007825032230
         H            3.252038334341    -1.616034450869    -0.109726054438     1.007825032230
         C            2.788718334341     0.266865549131     0.528753945562    12.000000000000
         H            2.518528334341    -0.047834450869     1.534403945562     1.007825032230
         H            3.796128334341     0.688635549131     0.565723945562     1.007825032230
         H            2.096178334341     1.052635549131     0.236093945562     1.007825032230

  Charge       = 0
  Multiplicity = 1
  Basis Set: AUG-CC-PVQZ
    Blend: AUG-CC-PVQZ
  Basis Set: (AUG-CC-PVQZ AUX)
    Blend: AUG-CC-PVQZ-JKFIT

    Orbital Energies [Eh]
    ---------------------

    Doubly Occupied:

       1A    -15.539761     2A    -15.533086     3A    -11.239916
       4A    -11.234621     5A     -1.171412     6A     -1.165598
       7A     -0.896983     8A     -0.890536     9A     -0.662954
      10A     -0.657207    11A     -0.605347    12A     -0.599145
      13A     -0.555939    14A     -0.550599    15A     -0.518001
      16A     -0.511393    17A     -0.395725    18A     -0.388590

  @DF-RHF Final Energy:  -190.52344165267070

   => Energetics <=

    Nuclear Repulsion Energy =            114.6082566419825355
    One-Electron Energy =                -484.0297652151750754
    Two-Electron Energy =                 178.8980669205218703
    Total Energy =                       -190.5234416526706980

  Dipole Moment: [D]
     X:     1.1699      Y:    -0.9654      Z:     0.2568     Total:     1.5383

  Basis Set: (AUG-CC-PVQZ AUX)
    Blend: AUG-CC-PVQZ-RI
	 Reference Energy          =    -190.5234416526706980 [Eh]
	 Singles Energy            =      -0.0000000000000000 [Eh]
	 Same-Spin Energy          =      -0.2024402475864028 [Eh]
	 Opposite-Spin Energy      =      -0.7852676939243640 [Eh]
	 Correlation Energy        =      -0.9877079415107668 [Eh]
	 Total Energy              =    -191.5111495941814610 [Eh]

	 ================> DF-SCS-MP2 Energies <==================
	-----------------------------------------------------------
	 SCS Same-Spin Scale       =       0.3333333333333333 [-]
	 SCS Opposite-Spin Scale   =       1.2000000000000000 [-]
	 SCS Same-Spin Energy      =      -0.0674800825288009 [Eh]
	 SCS Opposite-Spin Energy  =      -0.9423212327092367 [Eh]
	 SCS Correlation Energy    =      -1.0098013152380376 [Eh]
	 SCS Total Energy          =    -191.5332429679087340 [Eh]
	-----------------------------------------------------------

*** Psi4 exiting successfully. Buy a developer a beer!
