                               Psi4 1.4a2.dev224

  ==> Input File <==

--------------------------------------------------------------------------
#Generated by lconvert.py for cbs job

memory 40 GB

molecule  {
0 1
  N       -0.6386410     0.4709160     0.0445680
  H        0.1899540    -0.1139370    -0.0057740
  H       -1.3004690     0.0812570    -0.6136680
  C       -1.1986590     0.3913990     1.3919470
  H       -2.0927380     1.0092450     1.4531670
  H       -1.4627460    -0.6158440     1.7294520
  H       -0.4802760     0.7986750     2.1010870
--
0 1
  N        2.2066430    -0.4257920     0.1793930
  H        2.5029120    -0.1512540    -0.7485930
  H        2.8301930    -1.1734820     0.4545880
  C        2.3668730     0.7094190     1.0930680
  H        2.0966830     0.3947230     2.0987210
  H        3.3742830     1.1311950     1.1300400
  H        1.6743330     1.4951940     0.8004110
units angstrom
no_reorient
symmetry c1
}

set {
scf_type DF
mp2_type DF
e_convergence 7
reference rhf
}

energy('mp2/aug-cc-pv[tq]z', bsse_type='cp')
--------------------------------------------------------------------------

    Molecular point group: c1
  Charge       = 0
  Multiplicity = 1
  Basis Set: AUG-CC-PVTZ
    Blend: AUG-CC-PVTZ
  Basis Set: (AUG-CC-PVTZ AUX)
    Blend: AUG-CC-PVTZ-JKFIT
  @DF-RHF Final Energy:   -95.25540799223178
    Total Energy =                        -95.2554079922317811
  Basis Set: (AUG-CC-PVTZ AUX)
    Blend: AUG-CC-PVTZ-RI
	 Reference Energy          =     -95.2554079922317811 [Eh]
	 Singles Energy            =      -0.0000000000000000 [Eh]
	 Same-Spin Energy          =      -0.0953981924948023 [Eh]
	 Opposite-Spin Energy      =      -0.3516919683695339 [Eh]
	 Correlation Energy        =      -0.4470901608643362 [Eh]
	 Total Energy              =     -95.7024981530961156 [Eh]
	 SCS Total Energy          =     -95.7092377517734860 [Eh]
    Molecular point group: c1
  Basis Set: AUG-CC-PVQZ
    Blend: AUG-CC-PVQZ
  Basis Set: (AUG-CC-PVQZ AUX)
    Blend: AUG-CC-PVQZ-JKFIT
  @DF-RHF Final Energy:   -95.26138970837448
    Total Energy =                        -95.2613897083744803
  Basis Set: (AUG-CC-PVQZ AUX)
  @DF-RHF Final Energy:   -95.25547552720387
    Total Energy =                        -95.2554755272038705
  @DF-RHF Final Energy:   -95.26141589251118
    Total Energy =                        -95.2614158925111809
  @DF-RHF Final Energy:   -95.25537634778664
    Total Energy =                        -95.2553763477866369
  @DF-RHF Final Energy:   -95.26132078030172
    Total Energy =                        -95.2613207803017161
  @DF-RHF Final Energy:   -95.25531910240001
    Total Energy =                        -95.2553191024000085
  @DF-RHF Final Energy:   -95.26130143449653
    Total Energy =                        -95.2613014344965308
  Multiplicity = 1
  @DF-RHF Final Energy:  -190.50963291438799
    Total Energy =                       -190.5096329143879927
	 Singles Energy            =      -0.0000000000000000 [Eh]
	 Same-Spin Energy          =      -0.1947857934069068 [Eh]
	 Opposite-Spin Energy      =      -0.7087994816065316 [Eh]
	 Correlation Energy        =      -0.9035852750134383 [Eh]
	 Total Energy              =    -191.4132181894014195 [Eh]
	 SCS Total Energy          =    -191.4251208901181371 [Eh]
    Molecular point group: c1

    Geometry (in Angstrom), charge = 0, multiplicity = 1:

       Center              X                  Y                   Z               Mass
    ------------   -----------------  -----------------  -----------------  -----------------
         N           -1.337124360659     0.201608256529    -0.622612167463    14.003074004430
         H           -0.508529360659    -0.383244743471    -0.672954167463     1.007825032230
         H           -1.998952360659    -0.188050743471    -1.280848167463     1.007825032230
         C           -1.897142360659     0.122091256529     0.724766832537    12.000000000000
         H           -2.791221360659     0.739937256529     0.785986832537     1.007825032230
         H           -2.161229360659    -0.885151743471     1.062271832537     1.007825032230
         H           -1.178759360659     0.529367256529     1.433906832537     1.007825032230
         N            1.508159639341    -0.695099743471    -0.487787167463    14.003074004430
         H            1.804428639341    -0.420561743471    -1.415773167463     1.007825032230
         H            2.131709639341    -1.442789743471    -0.212592167463     1.007825032230
         C            1.668389639341     0.440111256529     0.425887832537    12.000000000000
         H            1.398199639341     0.125415256529     1.431540832537     1.007825032230
         H            2.675799639341     0.861887256529     0.462859832537     1.007825032230
         H            0.975849639341     1.225886256529     0.133230832537     1.007825032230

  Charge       = 0
  Multiplicity = 1
  Basis Set: AUG-CC-PVQZ
    Blend: AUG-CC-PVQZ
  Basis Set: (AUG-CC-PVQZ AUX)
    Blend: AUG-CC-PVQZ-JKFIT

    Orbital Energies [Eh]
    ---------------------

    Doubly Occupied:

       1A    -15.546780     2A    -15.511819     3A    -11.240081
       4A    -11.225186     5A     -1.181016     6A     -1.149280
       7A     -0.900639     8A     -0.879850     9A     -0.673123
      10A     -0.650542    11A     -0.604570    12A     -0.587871
      13A     -0.559632    14A     -0.535941    15A     -0.520724
      16A     -0.502438    17A     -0.405262    18A     -0.371732

  @DF-RHF Final Energy:  -190.52154126414797

   => Energetics <=

    Nuclear Repulsion Energy =            134.3213917474896846
    One-Electron Energy =                -523.5928891940891390
    Two-Electron Energy =                 198.7499561824515126
    Total Energy =                       -190.5215412641479702

  Dipole Moment: [D]
     X:     1.5752      Y:    -1.0457      Z:     0.1538     Total:     1.8969

  Basis Set: (AUG-CC-PVQZ AUX)
    Blend: AUG-CC-PVQZ-RI
	 Reference Energy          =    -190.5215412641479702 [Eh]
	 Singles Energy            =      -0.0000000000000000 [Eh]
	 Same-Spin Energy          =      -0.2061785778416962 [Eh]
	 Opposite-Spin Energy      =      -0.7893654145556940 [Eh]
	 Correlation Energy        =      -0.9955439923973901 [Eh]
	 Total Energy              =    -191.5170852565453572 [Eh]

	 ================> DF-SCS-MP2 Energies <==================
	-----------------------------------------------------------
	 SCS Same-Spin Scale       =       0.3333333333333333 [-]
	 SCS Opposite-Spin Scale   =       1.2000000000000000 [-]
	 SCS Same-Spin Energy      =      -0.0687261926138987 [Eh]
	 SCS Opposite-Spin Energy  =      -0.9472384974668328 [Eh]
	 SCS Correlation Energy    =      -1.0159646900807315 [Eh]
	 SCS Total Energy          =    -191.5375059542286920 [Eh]
	-----------------------------------------------------------

*** Psi4 exiting successfully. Buy a developer a beer!
