                               Psi4 1.4a2.dev224

  ==> Input File <==

--------------------------------------------------------------------------
#Generated by lconvert.py for cbs job

memory 40 GB

molecule  {
0 1
  N       -0.6386410     0.4709160     0.0445680
  H        0.1899540    -0.1139370    -0.0057740
  H       -1.3004690     0.0812570    -0.6136680
  C       -1.1986590     0.3913990     1.3919470
  H       -2.0927380     1.0092450     1.4531670
  H       -1.4627460    -0.6158440     1.7294520
  H       -0.4802760     0.7986750     2.1010870
--
0 1
  N        2.4306100    -0.4604260     0.1999570
  H        2.7268790    -0.1858880    -0.7280290
  H        3.0541600    -1.2081160     0.4751520
  C        2.5908400     0.6747850     1.1136320
  H        2.3206500     0.3600890     2.1192850
  H        3.5982500     1.0965610     1.1506040
  H        1.8983000     1.4605600     0.8209750
units angstrom
no_reorient
symmetry c1
}

set {
scf_type DF
mp2_type DF
e_convergence 7
reference rhf
}

energy('mp2/aug-cc-pv[tq]z', bsse_type='cp')
--------------------------------------------------------------------------

    Molecular point group: c1
  Charge       = 0
  Multiplicity = 1
  Basis Set: AUG-CC-PVTZ
    Blend: AUG-CC-PVTZ
  Basis Set: (AUG-CC-PVTZ AUX)
    Blend: AUG-CC-PVTZ-JKFIT
  @DF-RHF Final Energy:   -95.25540799224919
    Total Energy =                        -95.2554079922491894
  Basis Set: (AUG-CC-PVTZ AUX)
    Blend: AUG-CC-PVTZ-RI
	 Reference Energy          =     -95.2554079922491894 [Eh]
	 Singles Energy            =      -0.0000000000000000 [Eh]
	 Same-Spin Energy          =      -0.0953981924947475 [Eh]
	 Opposite-Spin Energy      =      -0.3516919683690845 [Eh]
	 Correlation Energy        =      -0.4470901608638320 [Eh]
	 Total Energy              =     -95.7024981531130265 [Eh]
	 SCS Total Energy          =     -95.7092377517903401 [Eh]
    Molecular point group: c1
  Basis Set: AUG-CC-PVQZ
    Blend: AUG-CC-PVQZ
  Basis Set: (AUG-CC-PVQZ AUX)
    Blend: AUG-CC-PVQZ-JKFIT
  @DF-RHF Final Energy:   -95.26138970861433
    Total Energy =                        -95.2613897086143311
  Basis Set: (AUG-CC-PVQZ AUX)
  @DF-RHF Final Energy:   -95.25545714071119
    Total Energy =                        -95.2554571407111865
  @DF-RHF Final Energy:   -95.26141117715628
    Total Energy =                        -95.2614111771562762
  @DF-RHF Final Energy:   -95.25536437767013
    Total Energy =                        -95.2553643776701335
  @DF-RHF Final Energy:   -95.26131713637700
    Total Energy =                        -95.2613171363770022
  @DF-RHF Final Energy:   -95.25531910231433
    Total Energy =                        -95.2553191023143313
  @DF-RHF Final Energy:   -95.26130143460095
    Total Energy =                        -95.2613014346009521
  Multiplicity = 1
  @DF-RHF Final Energy:  -190.51250528619477
    Total Energy =                       -190.5125052861947665
	 Singles Energy            =      -0.0000000000000000 [Eh]
	 Same-Spin Energy          =      -0.1935647697423131 [Eh]
	 Opposite-Spin Energy      =      -0.7072757727283894 [Eh]
	 Correlation Energy        =      -0.9008405424707024 [Eh]
	 Total Energy              =    -191.4133458286654559 [Eh]
	 SCS Total Energy          =    -191.4257578033829361 [Eh]
    Molecular point group: c1

    Geometry (in Angstrom), charge = 0, multiplicity = 1:

       Center              X                  Y                   Z               Mass
    ------------   -----------------  -----------------  -----------------  -----------------
         N           -1.449107860659     0.218925256529    -0.632894167463    14.003074004430
         H           -0.620512860659    -0.365927743471    -0.683236167463     1.007825032230
         H           -2.110935860659    -0.170733743471    -1.291130167463     1.007825032230
         C           -2.009125860659     0.139408256529     0.714484832537    12.000000000000
         H           -2.903204860659     0.757254256529     0.775704832537     1.007825032230
         H           -2.273212860659    -0.867834743471     1.051989832537     1.007825032230
         H           -1.290742860659     0.546684256529     1.423624832537     1.007825032230
         N            1.620143139341    -0.712416743471    -0.477505167463    14.003074004430
         H            1.916412139341    -0.437878743471    -1.405491167463     1.007825032230
         H            2.243693139341    -1.460106743471    -0.202310167463     1.007825032230
         C            1.780373139341     0.422794256529     0.436169832537    12.000000000000
         H            1.510183139341     0.108098256529     1.441822832537     1.007825032230
         H            2.787783139341     0.844570256529     0.473141832537     1.007825032230
         H            1.087833139341     1.208569256529     0.143512832537     1.007825032230

  Charge       = 0
  Multiplicity = 1
  Basis Set: AUG-CC-PVQZ
    Blend: AUG-CC-PVQZ
  Basis Set: (AUG-CC-PVQZ AUX)
    Blend: AUG-CC-PVQZ-JKFIT

    Orbital Energies [Eh]
    ---------------------

    Doubly Occupied:

       1A    -15.545369     2A    -15.517848     3A    -11.240279
       4A    -11.227356     5A     -1.177830     6A     -1.153369
       7A     -0.899587     8A     -0.882164     9A     -0.669633
      10A     -0.649344    11A     -0.606589    12A     -0.590212
      13A     -0.559066    14A     -0.539782    15A     -0.519960
      16A     -0.503724    17A     -0.403444    18A     -0.376335

  @DF-RHF Final Energy:  -190.52443023905587

   => Energetics <=

    Nuclear Repulsion Energy =            131.3124419764320123
    One-Electron Energy =                -517.5499590166629105
    Two-Electron Energy =                 195.7130868011750238
    Total Energy =                       -190.5244302390558744

  Dipole Moment: [D]
     X:     1.4689      Y:    -1.0181      Z:     0.1802     Total:     1.7963

  Basis Set: (AUG-CC-PVQZ AUX)
    Blend: AUG-CC-PVQZ-RI
	 Reference Energy          =    -190.5244302390558744 [Eh]
	 Singles Energy            =      -0.0000000000000000 [Eh]
	 Same-Spin Energy          =      -0.2049539510573850 [Eh]
	 Opposite-Spin Energy      =      -0.7880536011624866 [Eh]
	 Correlation Energy        =      -0.9930075522198716 [Eh]
	 Total Energy              =    -191.5174377912757393 [Eh]

	 ================> DF-SCS-MP2 Energies <==================
	-----------------------------------------------------------
	 SCS Same-Spin Scale       =       0.3333333333333333 [-]
	 SCS Opposite-Spin Scale   =       1.2000000000000000 [-]
	 SCS Same-Spin Energy      =      -0.0683179836857950 [Eh]
	 SCS Opposite-Spin Energy  =      -0.9456643213949838 [Eh]
	 SCS Correlation Energy    =      -1.0139823050807788 [Eh]
	 SCS Total Energy          =    -191.5384125441366621 [Eh]
	-----------------------------------------------------------

*** Psi4 exiting successfully. Buy a developer a beer!
