                               Psi4 1.4a2.dev224

  ==> Input File <==

--------------------------------------------------------------------------
#Generated by lconvert.py for cbs job

memory 20 GB

molecule  {
0 1
  N      -0.638640    0.470920    0.044570
  H       0.189950   -0.113940   -0.005770
  H      -1.300470    0.081260   -0.613670
  C      -1.198660    0.391400    1.391950
  H      -2.092740    1.009240    1.453170
  H      -1.462750   -0.615840    1.729450
  H      -0.480280    0.798680    2.101090
--
0 1
  N       3.775100   -0.668340    0.323400
  H       4.071370   -0.393800   -0.604580
  H       4.398650   -1.416030    0.598600
  C       3.935330    0.466880    1.237080
  H       3.665140    0.152180    2.242730
  H       4.942740    0.888650    1.274050
  H       3.242790    1.252650    0.944420
units angstrom
no_reorient
symmetry c1
}

set {
scf_type DF
mp2_type DF
e_convergence 7
reference rhf
}

energy('mp2/aug-cc-pv[tq]z', bsse_type='cp')
--------------------------------------------------------------------------

    Molecular point group: c1
  Charge       = 0
  Multiplicity = 1
  Basis Set: AUG-CC-PVTZ
    Blend: AUG-CC-PVTZ
  Basis Set: (AUG-CC-PVTZ AUX)
    Blend: AUG-CC-PVTZ-JKFIT
  @DF-RHF Final Energy:   -95.25540797219323
    Total Energy =                        -95.2554079721932254
  Basis Set: (AUG-CC-PVTZ AUX)
    Blend: AUG-CC-PVTZ-RI
	 Reference Energy          =     -95.2554079721932254 [Eh]
	 Singles Energy            =      -0.0000000000000000 [Eh]
	 Same-Spin Energy          =      -0.0953981481474085 [Eh]
	 Opposite-Spin Energy      =      -0.3516919867835844 [Eh]
	 Correlation Energy        =      -0.4470901349309929 [Eh]
	 Total Energy              =     -95.7024981071242138 [Eh]
	 SCS Total Energy          =     -95.7092377390493283 [Eh]
    Molecular point group: c1
  Basis Set: AUG-CC-PVQZ
    Blend: AUG-CC-PVQZ
  Basis Set: (AUG-CC-PVQZ AUX)
    Blend: AUG-CC-PVQZ-JKFIT
  @DF-RHF Final Energy:   -95.26138968431043
    Total Energy =                        -95.2613896843104300
  Basis Set: (AUG-CC-PVQZ AUX)
  @DF-RHF Final Energy:   -95.25542170159775
    Total Energy =                        -95.2554217015977542
  @DF-RHF Final Energy:   -95.26139679048168
    Total Energy =                        -95.2613967904816832
  @DF-RHF Final Energy:   -95.25533131470047
    Total Energy =                        -95.2553313147004701
  @DF-RHF Final Energy:   -95.26130660658424
    Total Energy =                        -95.2613066065842418
  @DF-RHF Final Energy:   -95.25531902436015
    Total Energy =                        -95.2553190243601478
  @DF-RHF Final Energy:   -95.26130135395752
    Total Energy =                        -95.2613013539575206
  Multiplicity = 1
  @DF-RHF Final Energy:  -190.51206984551436
    Total Energy =                       -190.5120698455143611
	 Singles Energy            =      -0.0000000000000000 [Eh]
	 Same-Spin Energy          =      -0.1912029113900106 [Eh]
	 Opposite-Spin Energy      =      -0.7040852273783050 [Eh]
	 Correlation Energy        =      -0.8952881387683156 [Eh]
	 Total Energy              =    -191.4073579842826689 [Eh]
	 SCS Total Energy          =    -191.4207064221650114 [Eh]
    Molecular point group: c1

    Geometry (in Angstrom), charge = 0, multiplicity = 1:

       Center              X                  Y                   Z               Mass
    ------------   -----------------  -----------------  -----------------  -----------------
         N           -2.121351665659     0.322883129284    -0.694616054438    14.003074004430
         H           -1.292761665659    -0.261976870716    -0.744956054438     1.007825032230
         H           -2.783181665659    -0.066776870716    -1.352856054438     1.007825032230
         C           -2.681371665659     0.243363129284     0.652763945562    12.000000000000
         H           -3.575451665659     0.861203129284     0.713983945562     1.007825032230
         H           -2.945461665659    -0.763876870716     0.990263945562     1.007825032230
         H           -1.962991665659     0.650643129284     1.361903945562     1.007825032230
         N            2.292388334341    -0.816376870716    -0.415786054438    14.003074004430
         H            2.588658334341    -0.541836870716    -1.343766054438     1.007825032230
         H            2.915938334341    -1.564066870716    -0.140586054438     1.007825032230
         C            2.452618334341     0.318843129284     0.497893945562    12.000000000000
         H            2.182428334341     0.004143129284     1.503543945562     1.007825032230
         H            3.460028334341     0.740613129284     0.534863945562     1.007825032230
         H            1.760078334341     1.104613129284     0.205233945562     1.007825032230

  Charge       = 0
  Multiplicity = 1
  Basis Set: AUG-CC-PVQZ
    Blend: AUG-CC-PVQZ
  Basis Set: (AUG-CC-PVQZ AUX)
    Blend: AUG-CC-PVQZ-JKFIT

    Orbital Energies [Eh]
    ---------------------

    Doubly Occupied:

       1A    -15.540703     2A    -15.530935     3A    -11.240118
       4A    -11.233294     5A     -1.172196     6A     -1.163635
       7A     -0.897385     8A     -0.889018     9A     -0.663685
      10A     -0.655227    11A     -0.605912    12A     -0.597541
      13A     -0.556446    14A     -0.548954    15A     -0.518332
      16A     -0.509860    17A     -0.396758    18A     -0.386763

  @DF-RHF Final Energy:  -190.52401758110750

   => Energetics <=

    Nuclear Repulsion Energy =            118.7169779946839299
    One-Electron Energy =                -492.2684624924490890
    Two-Electron Energy =                 183.0274669166576587
    Total Energy =                       -190.5240175811075005

  Dipole Moment: [D]
     X:     1.2127      Y:    -0.9692      Z:     0.2468     Total:     1.5719

  Basis Set: (AUG-CC-PVQZ AUX)
    Blend: AUG-CC-PVQZ-RI
	 Reference Energy          =    -190.5240175811075005 [Eh]
	 Singles Energy            =      -0.0000000000000000 [Eh]
	 Same-Spin Energy          =      -0.2026362271367388 [Eh]
	 Opposite-Spin Energy      =      -0.7854966256999625 [Eh]
	 Correlation Energy        =      -0.9881328528367013 [Eh]
	 Total Energy              =    -191.5121504339442140 [Eh]

	 ================> DF-SCS-MP2 Energies <==================
	-----------------------------------------------------------
	 SCS Same-Spin Scale       =       0.3333333333333333 [-]
	 SCS Opposite-Spin Scale   =       1.2000000000000000 [-]
	 SCS Same-Spin Energy      =      -0.0675454090455796 [Eh]
	 SCS Opposite-Spin Energy  =      -0.9425959508399550 [Eh]
	 SCS Correlation Energy    =      -1.0101413598855347 [Eh]
	 SCS Total Energy          =    -191.5341589409930236 [Eh]
	-----------------------------------------------------------

*** Psi4 exiting successfully. Buy a developer a beer!
