                               Psi4 1.4a2.dev224

  ==> Input File <==

--------------------------------------------------------------------------
#Generated by lconvert.py for cbs job

memory 40 GB

molecule  {
0 1
  N       -0.6386410     0.4709160     0.0445680
  H        0.1899540    -0.1139370    -0.0057740
  H       -1.3004690     0.0812570    -0.6136680
  C       -1.1986590     0.3913990     1.3919470
  H       -2.0927380     1.0092450     1.4531670
  H       -1.4627460    -0.6158440     1.7294520
  H       -0.4802760     0.7986750     2.1010870
--
0 1
  N        2.5427410    -0.4777650     0.2102520
  H        2.8390100    -0.2032280    -0.7177330
  H        3.1662910    -1.2254560     0.4854470
  C        2.7029710     0.6574450     1.1239270
  H        2.4327810     0.3427490     2.1295810
  H        3.7103820     1.0792220     1.1608990
  H        2.0104310     1.4432210     0.8312700
units angstrom
no_reorient
symmetry c1
}

set {
scf_type DF
mp2_type DF
e_convergence 7
reference rhf
}

energy('mp2/aug-cc-pv[tq]z', bsse_type='cp')
--------------------------------------------------------------------------

    Molecular point group: c1
  Charge       = 0
  Multiplicity = 1
  Basis Set: AUG-CC-PVTZ
    Blend: AUG-CC-PVTZ
  Basis Set: (AUG-CC-PVTZ AUX)
    Blend: AUG-CC-PVTZ-JKFIT
  @DF-RHF Final Energy:   -95.25540799532868
    Total Energy =                        -95.2554079953286816
  Basis Set: (AUG-CC-PVTZ AUX)
    Blend: AUG-CC-PVTZ-RI
	 Reference Energy          =     -95.2554079953286816 [Eh]
	 Singles Energy            =      -0.0000000000000000 [Eh]
	 Same-Spin Energy          =      -0.0953981911757987 [Eh]
	 Opposite-Spin Energy      =      -0.3516919673532460 [Eh]
	 Correlation Energy        =      -0.4470901585290448 [Eh]
	 Total Energy              =     -95.7024981538577322 [Eh]
	 SCS Total Energy          =     -95.7092377532111698 [Eh]
    Molecular point group: c1
  Basis Set: AUG-CC-PVQZ
    Blend: AUG-CC-PVQZ
  Basis Set: (AUG-CC-PVQZ AUX)
    Blend: AUG-CC-PVQZ-JKFIT
  @DF-RHF Final Energy:   -95.26138971117797
    Total Energy =                        -95.2613897111779693
  Basis Set: (AUG-CC-PVQZ AUX)
  @DF-RHF Final Energy:   -95.25545128674838
    Total Energy =                        -95.2554512867483822
  @DF-RHF Final Energy:   -95.26140942105613
    Total Energy =                        -95.2614094210561291
  @DF-RHF Final Energy:   -95.25535947927771
    Total Energy =                        -95.2553594792777147
  @DF-RHF Final Energy:   -95.26131552923016
    Total Energy =                        -95.2613155292301599
  @DF-RHF Final Energy:   -95.25531910235821
    Total Energy =                        -95.2553191023582144
  @DF-RHF Final Energy:   -95.26130143448023
    Total Energy =                        -95.2613014344802309
  Multiplicity = 1
  @DF-RHF Final Energy:  -190.51308868499535
    Total Energy =                       -190.5130886849953527
	 Singles Energy            =      -0.0000000000000000 [Eh]
	 Same-Spin Energy          =      -0.1931092539474852 [Eh]
	 Opposite-Spin Energy      =      -0.7066902575371216 [Eh]
	 Correlation Energy        =      -0.8997995114846068 [Eh]
	 Total Energy              =    -191.4128881964799689 [Eh]
	 SCS Total Energy          =    -191.4254867453557267 [Eh]
    Molecular point group: c1

    Geometry (in Angstrom), charge = 0, multiplicity = 1:

       Center              X                  Y                   Z               Mass
    ------------   -----------------  -----------------  -----------------  -----------------
         N           -1.505173376892     0.227594998514    -0.638041699929    14.003074004430
         H           -0.676578376892    -0.357258001486    -0.688383699929     1.007825032230
         H           -2.167001376892    -0.162064001486    -1.296277699929     1.007825032230
         C           -2.065191376892     0.148077998514     0.709337300071    12.000000000000
         H           -2.959270376892     0.765923998514     0.770557300071     1.007825032230
         H           -2.329278376892    -0.859165001486     1.046842300071     1.007825032230
         H           -1.346808376892     0.555353998514     1.418477300071     1.007825032230
         N            1.676208623108    -0.721086001486    -0.472357699929    14.003074004430
         H            1.972477623108    -0.446549001486    -1.400342699929     1.007825032230
         H            2.299758623108    -1.468777001486    -0.197162699929     1.007825032230
         C            1.836438623108     0.414123998514     0.441317300071    12.000000000000
         H            1.566248623108     0.099427998514     1.446971300071     1.007825032230
         H            2.843849623108     0.835900998514     0.478289300071     1.007825032230
         H            1.143898623108     1.199899998514     0.148660300071     1.007825032230

  Charge       = 0
  Multiplicity = 1
  Basis Set: AUG-CC-PVQZ
    Blend: AUG-CC-PVQZ
  Basis Set: (AUG-CC-PVQZ AUX)
    Blend: AUG-CC-PVQZ-JKFIT

    Orbital Energies [Eh]
    ---------------------

    Doubly Occupied:

       1A    -15.544764     2A    -15.520097     3A    -11.240335
       4A    -11.228222     5A     -1.176755     6A     -1.154967
       7A     -0.899217     8A     -0.883126     9A     -0.668453
      10A     -0.649423    11A     -0.607023    12A     -0.591222
      13A     -0.558752    14A     -0.541274    15A     -0.519691
      16A     -0.504417    17A     -0.402510    18A     -0.378074

  @DF-RHF Final Energy:  -190.52501651927889

   => Energetics <=

    Nuclear Repulsion Energy =            129.9334177216932744
    One-Electron Energy =                -514.7802182239073545
    Two-Electron Energy =                 194.3217839829351874
    Total Energy =                       -190.5250165192788927

  Dipole Moment: [D]
     X:     1.4278      Y:    -1.0081      Z:     0.1909     Total:     1.7582

  Basis Set: (AUG-CC-PVQZ AUX)
    Blend: AUG-CC-PVQZ-RI
	 Reference Energy          =    -190.5250165192788927 [Eh]
	 Singles Energy            =      -0.0000000000000000 [Eh]
	 Same-Spin Energy          =      -0.2045013918912058 [Eh]
	 Opposite-Spin Energy      =      -0.7875697053555455 [Eh]
	 Correlation Energy        =      -0.9920710972467514 [Eh]
	 Total Energy              =    -191.5170876165256573 [Eh]

	 ================> DF-SCS-MP2 Energies <==================
	-----------------------------------------------------------
	 SCS Same-Spin Scale       =       0.3333333333333333 [-]
	 SCS Opposite-Spin Scale   =       1.2000000000000000 [-]
	 SCS Same-Spin Energy      =      -0.0681671306304019 [Eh]
	 SCS Opposite-Spin Energy  =      -0.9450836464266545 [Eh]
	 SCS Correlation Energy    =      -1.0132507770570565 [Eh]
	 SCS Total Energy          =    -191.5382672963359596 [Eh]
	-----------------------------------------------------------

*** Psi4 exiting successfully. Buy a developer a beer!
