                               Psi4 1.4a2.dev224

  ==> Input File <==

--------------------------------------------------------------------------
#Generated by lconvert.py for cbs job

memory 40 GB

molecule  {
0 1
  N       -0.6386410     0.4709160     0.0445680
  H        0.1899540    -0.1139370    -0.0057740
  H       -1.3004690     0.0812570    -0.6136680
  C       -1.1986590     0.3913990     1.3919470
  H       -2.0927380     1.0092450     1.4531670
  H       -1.4627460    -0.6158440     1.7294520
  H       -0.4802760     0.7986750     2.1010870
--
0 1
  N        2.6547740    -0.4950900     0.2205390
  H        2.9510430    -0.2205520    -0.7074470
  H        3.2783240    -1.2427800     0.4957340
  C        2.8150040     0.6401210     1.1342140
  H        2.5448140     0.3254250     2.1398670
  H        3.8224140     1.0618970     1.1711860
  H        2.1224640     1.4258960     0.8415570
units angstrom
no_reorient
symmetry c1
}

set {
scf_type DF
mp2_type DF
e_convergence 7
reference rhf
}

energy('mp2/aug-cc-pv[tq]z', bsse_type='cp')
--------------------------------------------------------------------------

    Molecular point group: c1
  Charge       = 0
  Multiplicity = 1
  Basis Set: AUG-CC-PVTZ
    Blend: AUG-CC-PVTZ
  Basis Set: (AUG-CC-PVTZ AUX)
    Blend: AUG-CC-PVTZ-JKFIT
  @DF-RHF Final Energy:   -95.25540799218605
    Total Energy =                        -95.2554079921860506
  Basis Set: (AUG-CC-PVTZ AUX)
    Blend: AUG-CC-PVTZ-RI
	 Reference Energy          =     -95.2554079921860506 [Eh]
	 Singles Energy            =      -0.0000000000000000 [Eh]
	 Same-Spin Energy          =      -0.0953981924946636 [Eh]
	 Opposite-Spin Energy      =      -0.3516919683686391 [Eh]
	 Correlation Energy        =      -0.4470901608633028 [Eh]
	 Total Energy              =     -95.7024981530493477 [Eh]
	 SCS Total Energy          =     -95.7092377517266328 [Eh]
    Molecular point group: c1
  Basis Set: AUG-CC-PVQZ
    Blend: AUG-CC-PVQZ
  Basis Set: (AUG-CC-PVQZ AUX)
    Blend: AUG-CC-PVQZ-JKFIT
  @DF-RHF Final Energy:   -95.26138970839736
    Total Energy =                        -95.2613897083973598
  Basis Set: (AUG-CC-PVQZ AUX)
  @DF-RHF Final Energy:   -95.25544702640447
    Total Energy =                        -95.2554470264044681
  @DF-RHF Final Energy:   -95.26140787443146
    Total Energy =                        -95.2614078744314554
  @DF-RHF Final Energy:   -95.25535526140632
    Total Energy =                        -95.2553552614063221
  @DF-RHF Final Energy:   -95.26131411523897
    Total Energy =                        -95.2613141152389744
  @DF-RHF Final Energy:   -95.25531910234861
    Total Energy =                        -95.2553191023486079
  @DF-RHF Final Energy:   -95.26130143448972
    Total Energy =                        -95.2613014344897238
  Multiplicity = 1
  @DF-RHF Final Energy:  -190.51335491988431
    Total Energy =                       -190.5133549198843070
	 Singles Energy            =      -0.0000000000000000 [Eh]
	 Same-Spin Energy          =      -0.1927339381913979 [Eh]
	 Opposite-Spin Energy      =      -0.7062025034561457 [Eh]
	 Correlation Energy        =      -0.8989364416475436 [Eh]
	 Total Energy              =    -191.4122913615318566 [Eh]
	 SCS Total Energy          =    -191.4250425700954850 [Eh]
    Molecular point group: c1

    Geometry (in Angstrom), charge = 0, multiplicity = 1:

       Center              X                  Y                   Z               Mass
    ------------   -----------------  -----------------  -----------------  -----------------
         N           -1.561189860659     0.236257256529    -0.643185167463    14.003074004430
         H           -0.732594860659    -0.348595743471    -0.693527167463     1.007825032230
         H           -2.223017860659    -0.153401743471    -1.301421167463     1.007825032230
         C           -2.121207860659     0.156740256529     0.704193832537    12.000000000000
         H           -3.015286860659     0.774586256529     0.765413832537     1.007825032230
         H           -2.385294860659    -0.850502743471     1.041698832537     1.007825032230
         H           -1.402824860659     0.564016256529     1.413333832537     1.007825032230
         N            1.732225139341    -0.729748743471    -0.467214167463    14.003074004430
         H            2.028494139341    -0.455210743471    -1.395200167463     1.007825032230
         H            2.355775139341    -1.477438743471    -0.192019167463     1.007825032230
         C            1.892455139341     0.405462256529     0.446460832537    12.000000000000
         H            1.622265139341     0.090766256529     1.452113832537     1.007825032230
         H            2.899865139341     0.827238256529     0.483432832537     1.007825032230
         H            1.199915139341     1.191237256529     0.153803832537     1.007825032230

  Charge       = 0
  Multiplicity = 1
  Basis Set: AUG-CC-PVQZ
    Blend: AUG-CC-PVQZ
  Basis Set: (AUG-CC-PVQZ AUX)
    Blend: AUG-CC-PVQZ-JKFIT

    Orbital Energies [Eh]
    ---------------------

    Doubly Occupied:

       1A    -15.544211     2A    -15.521969     3A    -11.240367
       4A    -11.228976     5A     -1.175903     6A     -1.156338
       7A     -0.898915     8A     -0.883979     9A     -0.667520
      10A     -0.649770    11A     -0.607206    12A     -0.592130
      13A     -0.558445    14A     -0.542541    15A     -0.519472
      16A     -0.505096    17A     -0.401634    18A     -0.379536

  @DF-RHF Final Energy:  -190.52528412758915

   => Energetics <=

    Nuclear Repulsion Energy =            128.6313830222864567
    One-Electron Energy =                -512.1653120881701398
    Two-Electron Energy =                 193.0086449382945375
    Total Energy =                       -190.5252841275891456

  Dipole Moment: [D]
     X:     1.3927      Y:    -1.0000      Z:     0.2002     Total:     1.7262

  Basis Set: (AUG-CC-PVQZ AUX)
    Blend: AUG-CC-PVQZ-RI
	 Reference Energy          =    -190.5252841275891456 [Eh]
	 Singles Energy            =      -0.0000000000000000 [Eh]
	 Same-Spin Energy          =      -0.2041303266173623 [Eh]
	 Opposite-Spin Energy      =      -0.7871707100778385 [Eh]
	 Correlation Energy        =      -0.9913010366952008 [Eh]
	 Total Energy              =    -191.5165851642843506 [Eh]

	 ================> DF-SCS-MP2 Energies <==================
	-----------------------------------------------------------
	 SCS Same-Spin Scale       =       0.3333333333333333 [-]
	 SCS Opposite-Spin Scale   =       1.2000000000000000 [-]
	 SCS Same-Spin Energy      =      -0.0680434422057874 [Eh]
	 SCS Opposite-Spin Energy  =      -0.9446048520934061 [Eh]
	 SCS Correlation Energy    =      -1.0126482942991935 [Eh]
	 SCS Total Energy          =    -191.5379324218883426 [Eh]
	-----------------------------------------------------------

*** Psi4 exiting successfully. Buy a developer a beer!
