                               Psi4 1.4a2.dev224

  ==> Input File <==

--------------------------------------------------------------------------
#Generated by lconvert.py for cbs job

memory 40 GB

molecule  {
0 1
  N       -0.5697080     0.8143720     0.1010980
  H        0.1308780     0.5614110    -0.5876150
  H       -1.4612520     0.5269150    -0.2804300
  C       -0.3055140     0.0657100     1.3287920
  H       -1.0571490     0.3142700     2.0759590
  H       -0.2880240    -1.0222920     1.2148460
  H        0.6604580     0.3685090     1.7302420
--
0 1
  C        1.6293750     2.7347130    -0.0632990
  H        1.7539930     3.1458890    -1.0623430
  H        2.1359460     3.3757050     0.6544860
  H        0.5629630     2.7081830     0.1551230
  C        2.1413670     1.3169150    -0.0610050
  O        1.6813870     0.4511790    -0.8001790
  N        3.1278500     1.0438830     0.8313260
  H        3.5276110     1.7988150     1.3566790
  C        3.7162950    -0.2757080     0.9088260
  H        2.9281180    -1.0170380     0.8158050
  H        4.4375550    -0.4477030     0.1102810
  H        4.2109480    -0.3915760     1.8687650
units angstrom
no_reorient
symmetry c1
}

set {
scf_type DF
mp2_type DF
e_convergence 7
reference rhf
}

energy('mp2/aug-cc-pv[tq]z', bsse_type='cp')
--------------------------------------------------------------------------

    Molecular point group: c1
  Charge       = 0
  Multiplicity = 1
  Basis Set: AUG-CC-PVTZ
    Blend: AUG-CC-PVTZ
  Basis Set: (AUG-CC-PVTZ AUX)
    Blend: AUG-CC-PVTZ-JKFIT
  @DF-RHF Final Energy:  -247.10300559793518
    Total Energy =                       -247.1030055979351800
  Basis Set: (AUG-CC-PVTZ AUX)
    Blend: AUG-CC-PVTZ-RI
	 Reference Energy          =    -247.1030055979351800 [Eh]
	 Singles Energy            =      -0.0000000000000000 [Eh]
	 Same-Spin Energy          =      -0.2463257768167755 [Eh]
	 Opposite-Spin Energy      =      -0.8098609602205872 [Eh]
	 Correlation Energy        =      -1.0561867370373625 [Eh]
	 Total Energy              =    -248.1591923349725448 [Eh]
	 SCS Total Energy          =    -248.1569473424721366 [Eh]
    Molecular point group: c1
  Basis Set: AUG-CC-PVQZ
    Blend: AUG-CC-PVQZ
  Basis Set: (AUG-CC-PVQZ AUX)
    Blend: AUG-CC-PVQZ-JKFIT
  @DF-RHF Final Energy:  -247.11844433272313
    Total Energy =                       -247.1184443327231293
  Basis Set: (AUG-CC-PVQZ AUX)
  @DF-RHF Final Energy:  -247.10322717669510
    Total Energy =                       -247.1032271766950998
  @DF-RHF Final Energy:  -247.11850841591510
    Total Energy =                       -247.1185084159151302
  @DF-RHF Final Energy:   -95.25539808612174
    Total Energy =                        -95.2553980861217440
  @DF-RHF Final Energy:   -95.26131817826206
    Total Energy =                        -95.2613181782620586
  @DF-RHF Final Energy:   -95.25530137680930
    Total Energy =                        -95.2553013768092995
  @DF-RHF Final Energy:   -95.26128382436815
    Total Energy =                        -95.2612838243681495
  Multiplicity = 1
  @DF-RHF Final Energy:  -342.33314071576513
    Total Energy =                       -342.3331407157651256
	 Singles Energy            =      -0.0000000000000000 [Eh]
	 Same-Spin Energy          =      -0.3511258285451008 [Eh]
	 Opposite-Spin Energy      =      -1.1734847688224743 [Eh]
	 Correlation Energy        =      -1.5246105973675750 [Eh]
	 Total Energy              =    -343.8577513131327237 [Eh]
	 SCS Total Energy          =    -343.8583643812004880 [Eh]
    Molecular point group: c1

    Geometry (in Angstrom), charge = 0, multiplicity = 1:

       Center              X                  Y                   Z               Mass
    ------------   -----------------  -----------------  -----------------  -----------------
         N           -2.169911088506    -0.043845632371    -0.222957824527    14.003074004430
         H           -1.469325088506    -0.296806632371    -0.911670824527     1.007825032230
         H           -3.061455088506    -0.331302632371    -0.604485824527     1.007825032230
         C           -1.905717088506    -0.792507632371     1.004736175473    12.000000000000
         H           -2.657352088506    -0.543947632371     1.751903175473     1.007825032230
         H           -1.888227088506    -1.880509632371     0.890790175473     1.007825032230
         H           -0.939745088506    -0.489708632371     1.406186175473     1.007825032230
         C            0.029171911494     1.876495367629    -0.387354824527    12.000000000000
         H            0.153789911494     2.287671367629    -1.386398824527     1.007825032230
         H            0.535742911494     2.517487367629     0.330430175473     1.007825032230
         H           -1.037240088506     1.849965367629    -0.168932824527     1.007825032230
         C            0.541163911494     0.458697367629    -0.385060824527    12.000000000000
         O            0.081183911494    -0.407038632371    -1.124234824527    15.994914619570
         N            1.527646911494     0.185665367629     0.507270175473    14.003074004430
         H            1.927407911494     0.940597367629     1.032623175473     1.007825032230
         C            2.116091911494    -1.133925632371     0.584770175473    12.000000000000
         H            1.327914911494    -1.875255632371     0.491749175473     1.007825032230
         H            2.837351911494    -1.305920632371    -0.213774824527     1.007825032230
         H            2.610744911494    -1.249793632371     1.544709175473     1.007825032230

  Charge       = 0
  Multiplicity = 1
  Basis Set: AUG-CC-PVQZ
    Blend: AUG-CC-PVQZ
  Basis Set: (AUG-CC-PVQZ AUX)
    Blend: AUG-CC-PVQZ-JKFIT

    Orbital Energies [Eh]
    ---------------------

    Doubly Occupied:

       1A    -20.514146     2A    -15.589967     3A    -15.491726
       4A    -11.352032     5A    -11.260876     6A    -11.220544
       7A    -11.220328     8A     -1.389659     9A     -1.237761
      10A     -1.141653    11A     -1.016496    12A     -0.933835
      13A     -0.876245    14A     -0.798597    15A     -0.692113
      16A     -0.678659    17A     -0.660253    18A     -0.621882
      19A     -0.594673    20A     -0.575299    21A     -0.571323
      22A     -0.558972    23A     -0.546665    24A     -0.527582
      25A     -0.507927    26A     -0.494109    27A     -0.427075
      28A     -0.394763    29A     -0.361227

  @DF-RHF Final Energy:  -342.35442405077345

   => Energetics <=

    Nuclear Repulsion Energy =            336.9310994050761678
    One-Electron Energy =               -1134.0582721902119374
    Two-Electron Energy =                 454.7727487343623807
    Total Energy =                       -342.3544240507734457

  Dipole Moment: [D]
     X:     2.5713      Y:     0.9966      Z:     2.0376     Total:     3.4288

  Basis Set: (AUG-CC-PVQZ AUX)
    Blend: AUG-CC-PVQZ-RI
	 Reference Energy          =    -342.3544240507734457 [Eh]
	 Singles Energy            =      -0.0000000000000000 [Eh]
	 Same-Spin Energy          =      -0.3716893634506507 [Eh]
	 Opposite-Spin Energy      =      -1.3123435525053555 [Eh]
	 Correlation Energy        =      -1.6840329159560063 [Eh]
	 Total Energy              =    -344.0384569667294272 [Eh]

	 ================> DF-SCS-MP2 Energies <==================
	-----------------------------------------------------------
	 SCS Same-Spin Scale       =       0.3333333333333333 [-]
	 SCS Opposite-Spin Scale   =       1.2000000000000000 [-]
	 SCS Same-Spin Energy      =      -0.1238964544835502 [Eh]
	 SCS Opposite-Spin Energy  =      -1.5748122630064265 [Eh]
	 SCS Correlation Energy    =      -1.6987087174899766 [Eh]
	 SCS Total Energy          =    -344.0531327682634242 [Eh]
	-----------------------------------------------------------

*** Psi4 exiting successfully. Buy a developer a beer!
