                               Psi4 1.4a2.dev224

  ==> Input File <==

--------------------------------------------------------------------------
#Generated by lconvert.py for cbs job

memory 40 GB

molecule  {
0 1
  N       -0.5697080     0.8143720     0.1010980
  H        0.1308780     0.5614110    -0.5876150
  H       -1.4612520     0.5269150    -0.2804300
  C       -0.3055140     0.0657100     1.3287920
  H       -1.0571490     0.3142700     2.0759590
  H       -0.2880240    -1.0222920     1.2148460
  H        0.6604580     0.3685090     1.7302420
--
0 1
  C        1.8508760     2.7189650    -0.0936650
  H        1.9754950     3.1301420    -1.0927100
  H        2.3574480     3.3599580     0.6241190
  H        0.7844640     2.6924360     0.1247560
  C        2.3628680     1.3011680    -0.0913710
  O        1.9028880     0.4354310    -0.8305460
  N        3.3493510     1.0281350     0.8009600
  H        3.7491120     1.7830680     1.3263120
  C        3.9377960    -0.2914550     0.8784590
  H        3.1496200    -1.0327860     0.7854390
  H        4.6590560    -0.4634510     0.0799150
  H        4.4324500    -0.4073240     1.8383990
units angstrom
no_reorient
symmetry c1
}

set {
scf_type DF
mp2_type DF
e_convergence 7
reference rhf
}

energy('mp2/aug-cc-pv[tq]z', bsse_type='cp')
--------------------------------------------------------------------------

    Molecular point group: c1
  Charge       = 0
  Multiplicity = 1
  Basis Set: AUG-CC-PVTZ
    Blend: AUG-CC-PVTZ
  Basis Set: (AUG-CC-PVTZ AUX)
    Blend: AUG-CC-PVTZ-JKFIT
  @DF-RHF Final Energy:  -247.10300545706187
    Total Energy =                       -247.1030054570618404
  Basis Set: (AUG-CC-PVTZ AUX)
    Blend: AUG-CC-PVTZ-RI
	 Reference Energy          =    -247.1030054570618688 [Eh]
	 Singles Energy            =      -0.0000000000000000 [Eh]
	 Same-Spin Energy          =      -0.2463258148198662 [Eh]
	 Opposite-Spin Energy      =      -0.8098610416989694 [Eh]
	 Correlation Energy        =      -1.0561868565188357 [Eh]
	 Total Energy              =    -248.1591923135807178 [Eh]
	 SCS Total Energy          =    -248.1569473120405860 [Eh]
    Molecular point group: c1
  Basis Set: AUG-CC-PVQZ
    Blend: AUG-CC-PVQZ
  Basis Set: (AUG-CC-PVQZ AUX)
    Blend: AUG-CC-PVQZ-JKFIT
  @DF-RHF Final Energy:  -247.11844418331606
    Total Energy =                       -247.1184441833160577
  Basis Set: (AUG-CC-PVQZ AUX)
  @DF-RHF Final Energy:  -247.10317786920419
    Total Energy =                       -247.1031778692042167
  @DF-RHF Final Energy:  -247.11849711895604
    Total Energy =                       -247.1184971189560429
  @DF-RHF Final Energy:   -95.25538135359072
    Total Energy =                        -95.2553813535907210
  @DF-RHF Final Energy:   -95.26131348429858
    Total Energy =                        -95.2613134842985829
  @DF-RHF Final Energy:   -95.25530137680002
    Total Energy =                        -95.2553013768000199
  @DF-RHF Final Energy:   -95.26128382448570
    Total Energy =                        -95.2612838244857016
  Multiplicity = 1
  @DF-RHF Final Energy:  -342.35043277578552
    Total Energy =                       -342.3504327757855208
	 Singles Energy            =      -0.0000000000000000 [Eh]
	 Same-Spin Energy          =      -0.3484436468907948 [Eh]
	 Opposite-Spin Energy      =      -1.1703084511465025 [Eh]
	 Correlation Energy        =      -1.5187520980372973 [Eh]
	 Total Energy              =    -343.8691848738228032 [Eh]
	 SCS Total Energy          =    -343.8709507994582282 [Eh]
    Molecular point group: c1

    Geometry (in Angstrom), charge = 0, multiplicity = 1:

       Center              X                  Y                   Z               Mass
    ------------   -----------------  -----------------  -----------------  -----------------
         N           -2.325358228387    -0.032794118825    -0.201646973464    14.003074004430
         H           -1.624772228387    -0.285755118825    -0.890359973464     1.007825032230
         H           -3.216902228387    -0.320251118825    -0.583174973464     1.007825032230
         C           -2.061164228387    -0.781456118825     1.026047026536    12.000000000000
         H           -2.812799228387    -0.532896118825     1.773214026536     1.007825032230
         H           -2.043674228387    -1.869458118825     0.912101026536     1.007825032230
         H           -1.095192228387    -0.478657118825     1.427497026536     1.007825032230
         C            0.095225771613     1.871798881175    -0.396409973464    12.000000000000
         H            0.219844771613     2.282975881175    -1.395454973464     1.007825032230
         H            0.601797771613     2.512791881175     0.321374026536     1.007825032230
         H           -0.971186228387     1.845269881175    -0.177988973464     1.007825032230
         C            0.607217771613     0.454001881175    -0.394115973464    12.000000000000
         O            0.147237771613    -0.411735118825    -1.133290973464    15.994914619570
         N            1.593700771613     0.180968881175     0.498215026536    14.003074004430
         H            1.993461771613     0.935901881175     1.023567026536     1.007825032230
         C            2.182145771613    -1.138621118825     0.575714026536    12.000000000000
         H            1.393969771613    -1.879952118825     0.482694026536     1.007825032230
         H            2.903405771613    -1.310617118825    -0.222829973464     1.007825032230
         H            2.676799771613    -1.254490118825     1.535654026536     1.007825032230

  Charge       = 0
  Multiplicity = 1
  Basis Set: AUG-CC-PVQZ
    Blend: AUG-CC-PVQZ
  Basis Set: (AUG-CC-PVQZ AUX)
    Blend: AUG-CC-PVQZ-JKFIT

    Orbital Energies [Eh]
    ---------------------

    Doubly Occupied:

       1A    -20.512781     2A    -15.588174     3A    -15.505192
       4A    -11.349510     5A    -11.259660     6A    -11.223982
       7A    -11.222523     8A     -1.382422     9A     -1.234511
      10A     -1.147817    11A     -1.015986    12A     -0.933006
      13A     -0.878860    14A     -0.795408    15A     -0.690420
      16A     -0.667228    17A     -0.656965    18A     -0.623778
      19A     -0.592884    20A     -0.577940    21A     -0.575932
      22A     -0.557654    23A     -0.546733    24A     -0.532836
      25A     -0.505415    26A     -0.498888    27A     -0.425912
      28A     -0.396749    29A     -0.369997

  @DF-RHF Final Energy:  -342.37175279749761

   => Energetics <=

    Nuclear Repulsion Energy =            330.5991434698737521
    One-Electron Energy =               -1121.4034567786029584
    Two-Electron Energy =                 448.4325605112315998
    Total Energy =                       -342.3717527974976065

  Dipole Moment: [D]
     X:     2.3978      Y:     0.9709      Z:     2.1220     Total:     3.3459

  Basis Set: (AUG-CC-PVQZ AUX)
    Blend: AUG-CC-PVQZ-RI
	 Reference Energy          =    -342.3717527974976065 [Eh]
	 Singles Energy            =      -0.0000000000000000 [Eh]
	 Same-Spin Energy          =      -0.3689803605815482 [Eh]
	 Opposite-Spin Energy      =      -1.3095715966796881 [Eh]
	 Correlation Energy        =      -1.6785519572612362 [Eh]
	 Total Energy              =    -344.0503047547588267 [Eh]

	 ================> DF-SCS-MP2 Energies <==================
	-----------------------------------------------------------
	 SCS Same-Spin Scale       =       0.3333333333333333 [-]
	 SCS Opposite-Spin Scale   =       1.2000000000000000 [-]
	 SCS Same-Spin Energy      =      -0.1229934535271827 [Eh]
	 SCS Opposite-Spin Energy  =      -1.5714859160156258 [Eh]
	 SCS Correlation Energy    =      -1.6944793695428086 [Eh]
	 SCS Total Energy          =    -344.0662321670404253 [Eh]
	-----------------------------------------------------------

*** Psi4 exiting successfully. Buy a developer a beer!
