                               Psi4 1.4a2.dev224

  ==> Input File <==

--------------------------------------------------------------------------
#Generated by lconvert.py for cbs job

memory 40 GB

molecule  {
0 1
  N       -0.5697080     0.8143720     0.1010980
  H        0.1308780     0.5614110    -0.5876150
  H       -1.4612520     0.5269150    -0.2804300
  C       -0.3055140     0.0657100     1.3287920
  H       -1.0571490     0.3142700     2.0759590
  H       -0.2880240    -1.0222920     1.2148460
  H        0.6604580     0.3685090     1.7302420
--
0 1
  C        2.1832270     2.6953370    -0.1392280
  H        2.3078450     3.1065140    -1.1382730
  H        2.6897980     3.3363300     0.5785560
  H        1.1168150     2.6688070     0.0791930
  C        2.6952190     1.2775390    -0.1369340
  O        2.2352390     0.4118030    -0.8761090
  N        3.6817020     1.0045070     0.7553960
  H        4.0814630     1.7594400     1.2807490
  C        4.2701470    -0.3150840     0.8328960
  H        3.4819700    -1.0564140     0.7398750
  H        4.9914070    -0.4870790     0.0343520
  H        4.7648000    -0.4309520     1.7928350
units angstrom
no_reorient
symmetry c1
}

set {
scf_type DF
mp2_type DF
e_convergence 7
reference rhf
}

energy('mp2/aug-cc-pv[tq]z', bsse_type='cp')
--------------------------------------------------------------------------

    Molecular point group: c1
  Charge       = 0
  Multiplicity = 1
  Basis Set: AUG-CC-PVTZ
    Blend: AUG-CC-PVTZ
  Basis Set: (AUG-CC-PVTZ AUX)
    Blend: AUG-CC-PVTZ-JKFIT
  @DF-RHF Final Energy:  -247.10300553914686
    Total Energy =                       -247.1030055391468636
  Basis Set: (AUG-CC-PVTZ AUX)
    Blend: AUG-CC-PVTZ-RI
	 Reference Energy          =    -247.1030055391468636 [Eh]
	 Singles Energy            =      -0.0000000000000000 [Eh]
	 Same-Spin Energy          =      -0.2463257934826394 [Eh]
	 Opposite-Spin Energy      =      -0.8098609938215503 [Eh]
	 Correlation Energy        =      -1.0561867873041897 [Eh]
	 Total Energy              =    -248.1591923264510626 [Eh]
	 SCS Total Energy          =    -248.1569473295602677 [Eh]
    Molecular point group: c1
  Basis Set: AUG-CC-PVQZ
    Blend: AUG-CC-PVQZ
  Basis Set: (AUG-CC-PVQZ AUX)
    Blend: AUG-CC-PVQZ-JKFIT
  @DF-RHF Final Energy:  -247.11844427025002
    Total Energy =                       -247.1184442702500519
  Basis Set: (AUG-CC-PVQZ AUX)
  @DF-RHF Final Energy:  -247.10312704798957
    Total Energy =                       -247.1031270479895738
  @DF-RHF Final Energy:  -247.11848607006465
    Total Energy =                       -247.1184860700646482
  @DF-RHF Final Energy:   -95.25536468018498
    Total Energy =                        -95.2553646801849823
  @DF-RHF Final Energy:   -95.26130808601948
    Total Energy =                        -95.2613080860194827
  @DF-RHF Final Energy:   -95.25530137678157
    Total Energy =                        -95.2553013767815742
  @DF-RHF Final Energy:   -95.26128382434149
    Total Energy =                        -95.2612838243414899
  Multiplicity = 1
  @DF-RHF Final Energy:  -342.35998873431254
    Total Energy =                       -342.3599887343125374
	 Singles Energy            =      -0.0000000000000000 [Eh]
	 Same-Spin Energy          =      -0.3458281377640481 [Eh]
	 Opposite-Spin Energy      =      -1.1671399585201805 [Eh]
	 Correlation Energy        =      -1.5129680962842285 [Eh]
	 Total Energy              =    -343.8729568305967632 [Eh]
	 SCS Total Energy          =    -343.8758327304581144 [Eh]
    Molecular point group: c1

    Geometry (in Angstrom), charge = 0, multiplicity = 1:

       Center              X                  Y                   Z               Mass
    ------------   -----------------  -----------------  -----------------  -----------------
         N           -2.558598669457    -0.016211993599    -0.169671179423    14.003074004430
         H           -1.858012669457    -0.269172993599    -0.858384179423     1.007825032230
         H           -3.450142669457    -0.303668993599    -0.551199179423     1.007825032230
         C           -2.294404669457    -0.764873993599     1.058022820577    12.000000000000
         H           -3.046039669457    -0.516313993599     1.805189820577     1.007825032230
         H           -2.276914669457    -1.852875993599     0.944076820577     1.007825032230
         H           -1.328432669457    -0.462074993599     1.459472820577     1.007825032230
         C            0.194336330543     1.864753006401    -0.409997179423    12.000000000000
         H            0.318954330543     2.275930006401    -1.409042179423     1.007825032230
         H            0.700907330543     2.505746006401     0.307786820577     1.007825032230
         H           -0.872075669457     1.838223006401    -0.191576179423     1.007825032230
         C            0.706328330543     0.446955006401    -0.407703179423    12.000000000000
         O            0.246348330543    -0.418780993599    -1.146878179423    15.994914619570
         N            1.692811330543     0.173923006401     0.484626820577    14.003074004430
         H            2.092572330543     0.928856006401     1.009979820577     1.007825032230
         C            2.281256330543    -1.145667993599     0.562126820577    12.000000000000
         H            1.493079330543    -1.886997993599     0.469105820577     1.007825032230
         H            3.002516330543    -1.317662993599    -0.236417179423     1.007825032230
         H            2.775909330543    -1.261535993599     1.522065820577     1.007825032230

  Charge       = 0
  Multiplicity = 1
  Basis Set: AUG-CC-PVQZ
    Blend: AUG-CC-PVQZ
  Basis Set: (AUG-CC-PVQZ AUX)
    Blend: AUG-CC-PVQZ-JKFIT

    Orbital Energies [Eh]
    ---------------------

    Doubly Occupied:

       1A    -20.511643     2A    -15.586783     3A    -15.516866
       4A    -11.347590     5A    -11.258647     6A    -11.227411
       7A    -11.225662     8A     -1.377463     9A     -1.232188
      10A     -1.153852    11A     -1.016309    12A     -0.932644
      13A     -0.882120    14A     -0.793051    15A     -0.689621
      16A     -0.657907    17A     -0.654651    18A     -0.628415
      19A     -0.592312    20A     -0.580319    21A     -0.579852
      22A     -0.556839    23A     -0.547169    24A     -0.538626
      25A     -0.503826    26A     -0.502271    27A     -0.424646
      28A     -0.396351    29A     -0.377675

  @DF-RHF Final Energy:  -342.38133127623229

   => Energetics <=

    Nuclear Repulsion Energy =            322.2115386810289692
    One-Electron Energy =               -1104.6003115086678008
    Two-Electron Energy =                 440.0074415514065436
    Total Energy =                       -342.3813312762322880

  Dipole Moment: [D]
     X:     2.2694      Y:     0.9552      Z:     2.2039     Total:     3.3045

  Basis Set: (AUG-CC-PVQZ AUX)
    Blend: AUG-CC-PVQZ-RI
	 Reference Energy          =    -342.3813312762322880 [Eh]
	 Singles Energy            =      -0.0000000000000000 [Eh]
	 Same-Spin Energy          =      -0.3663529506842136 [Eh]
	 Opposite-Spin Energy      =      -1.3068950566990454 [Eh]
	 Correlation Energy        =      -1.6732480073832590 [Eh]
	 Total Energy              =    -344.0545792836155670 [Eh]

	 ================> DF-SCS-MP2 Energies <==================
	-----------------------------------------------------------
	 SCS Same-Spin Scale       =       0.3333333333333333 [-]
	 SCS Opposite-Spin Scale   =       1.2000000000000000 [-]
	 SCS Same-Spin Energy      =      -0.1221176502280712 [Eh]
	 SCS Opposite-Spin Energy  =      -1.5682740680388545 [Eh]
	 SCS Correlation Energy    =      -1.6903917182669257 [Eh]
	 SCS Total Energy          =    -344.0717229944992255 [Eh]
	-----------------------------------------------------------

*** Psi4 exiting successfully. Buy a developer a beer!
