                               Psi4 1.4a2.dev224

  ==> Input File <==

--------------------------------------------------------------------------
#Generated by lconvert.py for cbs job

memory 20 GB

molecule  {
0 1
  N      -0.569710    0.814370    0.101100
  H       0.130880    0.561410   -0.587610
  H      -1.461250    0.526920   -0.280430
  C      -0.305510    0.065710    1.328790
  H      -1.057150    0.314270    2.075960
  H      -0.288020   -1.022290    1.214850
  H       0.660460    0.368510    1.730240
--
0 1
  C       4.287490    2.545730   -0.427710
  H       4.412110    2.956910   -1.426750
  H       4.794060    3.186720    0.290080
  H       3.221070    2.519200   -0.209280
  C       4.799480    1.127930   -0.425410
  O       4.339500    0.262200   -1.164590
  N       5.785960    0.854900    0.466920
  H       6.185720    1.609830    0.992270
  C       6.374410   -0.464690    0.544420
  H       5.586230   -1.206020    0.451400
  H       7.095670   -0.636680   -0.254130
  H       6.869060   -0.580560    1.504360
units angstrom
no_reorient
symmetry c1
}

set {
scf_type DF
mp2_type DF
e_convergence 7
reference rhf
}

energy('mp2/aug-cc-pv[tq]z', bsse_type='cp')
--------------------------------------------------------------------------

    Molecular point group: c1
  Charge       = 0
  Multiplicity = 1
  Basis Set: AUG-CC-PVTZ
    Blend: AUG-CC-PVTZ
  Basis Set: (AUG-CC-PVTZ AUX)
    Blend: AUG-CC-PVTZ-JKFIT
  @DF-RHF Final Energy:  -247.10300575544738
    Total Energy =                       -247.1030057554473842
  Basis Set: (AUG-CC-PVTZ AUX)
    Blend: AUG-CC-PVTZ-RI
	 Reference Energy          =    -247.1030057554473842 [Eh]
	 Singles Energy            =      -0.0000000000000000 [Eh]
	 Same-Spin Energy          =      -0.2463256982826991 [Eh]
	 Opposite-Spin Energy      =      -0.8098608981725135 [Eh]
	 Correlation Energy        =      -1.0561865964552126 [Eh]
	 Total Energy              =    -248.1591923519025897 [Eh]
	 SCS Total Energy          =    -248.1569473993486383 [Eh]
    Molecular point group: c1
  Basis Set: AUG-CC-PVQZ
    Blend: AUG-CC-PVQZ
  Basis Set: (AUG-CC-PVQZ AUX)
    Blend: AUG-CC-PVQZ-JKFIT
  @DF-RHF Final Energy:  -247.11844449055570
    Total Energy =                       -247.1184444905557029
  Basis Set: (AUG-CC-PVQZ AUX)
  @DF-RHF Final Energy:  -247.10302044079879
    Total Energy =                       -247.1030204407987867
  @DF-RHF Final Energy:  -247.11845119483644
    Total Energy =                       -247.1184511948364388
  @DF-RHF Final Energy:   -95.25531248332349
    Total Energy =                        -95.2553124833234932
  @DF-RHF Final Energy:   -95.26128931431539
    Total Energy =                        -95.2612893143153912
  @DF-RHF Final Energy:   -95.25530147425485
    Total Energy =                        -95.2553014742548498
  @DF-RHF Final Energy:   -95.26128392980701
    Total Energy =                        -95.2612839298070071
  Multiplicity = 1
  @DF-RHF Final Energy:  -342.35953095325834
    Total Energy =                       -342.3595309532583428
	 Singles Energy            =      -0.0000000000000000 [Eh]
	 Same-Spin Energy          =      -0.3420007538375146 [Eh]
	 Opposite-Spin Energy      =      -1.1620888626544517 [Eh]
	 Correlation Energy        =      -1.5040896164919664 [Eh]
	 Total Energy              =    -343.8636205697503101 [Eh]
	 SCS Total Energy          =    -343.8680378397228310 [Eh]
    Molecular point group: c1

    Geometry (in Angstrom), charge = 0, multiplicity = 1:

       Center              X                  Y                   Z               Mass
    ------------   -----------------  -----------------  -----------------  -----------------
         N           -4.035349471457     0.088778317968     0.032781673517    14.003074004430
         H           -3.334759471457    -0.164181682032    -0.655928326483     1.007825032230
         H           -4.926889471457    -0.198671682032    -0.348748326483     1.007825032230
         C           -3.771149471457    -0.659881682032     1.260471673517    12.000000000000
         H           -4.522789471457    -0.411321682032     2.007641673517     1.007825032230
         H           -3.753659471457    -1.747881682032     1.146531673517     1.007825032230
         H           -2.805179471457    -0.357081682032     1.661921673517     1.007825032230
         C            0.821850528543     1.820138317968    -0.496028326483    12.000000000000
         H            0.946470528543     2.231318317968    -1.495068326483     1.007825032230
         H            1.328420528543     2.461128317968     0.221761673517     1.007825032230
         H           -0.244569471457     1.793608317968    -0.277598326483     1.007825032230
         C            1.333840528543     0.402338317968    -0.493728326483    12.000000000000
         O            0.873860528543    -0.463391682032    -1.232908326483    15.994914619570
         N            2.320320528543     0.129308317968     0.398601673517    14.003074004430
         H            2.720080528543     0.884238317968     0.923951673517     1.007825032230
         C            2.908770528543    -1.190281682032     0.476101673517    12.000000000000
         H            2.120590528543    -1.931611682032     0.383081673517     1.007825032230
         H            3.630030528543    -1.362271682032    -0.322448326483     1.007825032230
         H            3.403420528543    -1.306151682032     1.436041673517     1.007825032230

  Charge       = 0
  Multiplicity = 1
  Basis Set: AUG-CC-PVQZ
    Blend: AUG-CC-PVQZ
  Basis Set: (AUG-CC-PVQZ AUX)
    Blend: AUG-CC-PVQZ-JKFIT

    Orbital Energies [Eh]
    ---------------------

    Doubly Occupied:

       1A    -20.508542     2A    -15.585106     3A    -15.532835
       4A    -11.345362     5A    -11.257154     6A    -11.234414
       7A    -11.233779     8A     -1.372321     9A     -1.229772
      10A     -1.165535    11A     -1.019025    12A     -0.933079
      13A     -0.890150    14A     -0.790795    15A     -0.690120
      16A     -0.657483    17A     -0.652446    18A     -0.634546
      19A     -0.598647    20A     -0.585766    21A     -0.579969
      22A     -0.557389    23A     -0.549913    24A     -0.547869
      25A     -0.511568    26A     -0.500498    27A     -0.421575
      28A     -0.393094    29A     -0.388767

  @DF-RHF Final Energy:  -342.38093737881962

   => Energetics <=

    Nuclear Repulsion Energy =            288.3596710878127851
    One-Electron Energy =               -1036.7461784669853841
    Two-Electron Energy =                 406.0055700003529751
    Total Energy =                       -342.3809373788196240

  Dipole Moment: [D]
     X:     2.1588      Y:     0.9454      Z:     2.3553     Total:     3.3319

  Basis Set: (AUG-CC-PVQZ AUX)
    Blend: AUG-CC-PVQZ-RI
	 Reference Energy          =    -342.3809373788196240 [Eh]
	 Singles Energy            =      -0.0000000000000000 [Eh]
	 Same-Spin Energy          =      -0.3625986024202340 [Eh]
	 Opposite-Spin Energy      =      -1.3029256280829613 [Eh]
	 Correlation Energy        =      -1.6655242305031952 [Eh]
	 Total Energy              =    -344.0464616093228187 [Eh]

	 ================> DF-SCS-MP2 Energies <==================
	-----------------------------------------------------------
	 SCS Same-Spin Scale       =       0.3333333333333333 [-]
	 SCS Opposite-Spin Scale   =       1.2000000000000000 [-]
	 SCS Same-Spin Energy      =      -0.1208662008067447 [Eh]
	 SCS Opposite-Spin Energy  =      -1.5635107536995536 [Eh]
	 SCS Correlation Energy    =      -1.6843769545062983 [Eh]
	 SCS Total Energy          =    -344.0653143333259436 [Eh]
	-----------------------------------------------------------

*** Psi4 exiting successfully. Buy a developer a beer!
