                               Psi4 1.4a2.dev224

  ==> Input File <==

--------------------------------------------------------------------------
#Generated by lconvert.py for cbs job

memory 40 GB

molecule  {
0 1
  N       -0.5697080     0.8143720     0.1010980
  H        0.1308780     0.5614110    -0.5876150
  H       -1.4612520     0.5269150    -0.2804300
  C       -0.3055140     0.0657100     1.3287920
  H       -1.0571490     0.3142700     2.0759590
  H       -0.2880240    -1.0222920     1.2148460
  H        0.6604580     0.3685090     1.7302420
--
0 1
  C        2.0724760     2.7032110    -0.1240450
  H        2.1970950     3.1143870    -1.1230890
  H        2.5790480     3.3442030     0.5937390
  H        1.0060640     2.6766810     0.0943760
  C        2.5844680     1.2854130    -0.1217510
  O        2.1244880     0.4196770    -0.8609260
  N        3.5709510     1.0123810     0.7705800
  H        3.9707120     1.7673130     1.2959320
  C        4.1593960    -0.3072100     0.8480790
  H        3.3712200    -1.0485400     0.7550590
  H        4.8806560    -0.4792050     0.0495350
  H        4.6540500    -0.4230780     1.8080190
units angstrom
no_reorient
symmetry c1
}

set {
scf_type DF
mp2_type DF
e_convergence 7
reference rhf
}

energy('mp2/aug-cc-pv[tq]z', bsse_type='cp')
--------------------------------------------------------------------------

    Molecular point group: c1
  Charge       = 0
  Multiplicity = 1
  Basis Set: AUG-CC-PVTZ
    Blend: AUG-CC-PVTZ
  Basis Set: (AUG-CC-PVTZ AUX)
    Blend: AUG-CC-PVTZ-JKFIT
  @DF-RHF Final Energy:  -247.10300556329813
    Total Energy =                       -247.1030055632980975
  Basis Set: (AUG-CC-PVTZ AUX)
    Blend: AUG-CC-PVTZ-RI
	 Reference Energy          =    -247.1030055632981259 [Eh]
	 Singles Energy            =      -0.0000000000000000 [Eh]
	 Same-Spin Energy          =      -0.2463257841403633 [Eh]
	 Opposite-Spin Energy      =      -0.8098609791636130 [Eh]
	 Correlation Energy        =      -1.0561867633039763 [Eh]
	 Total Energy              =    -248.1591923266020956 [Eh]
	 SCS Total Energy          =    -248.1569473330079063 [Eh]
    Molecular point group: c1
  Basis Set: AUG-CC-PVQZ
    Blend: AUG-CC-PVQZ
  Basis Set: (AUG-CC-PVQZ AUX)
    Blend: AUG-CC-PVQZ-JKFIT
  @DF-RHF Final Energy:  -247.11844429614160
    Total Energy =                       -247.1184442961416039
  Basis Set: (AUG-CC-PVQZ AUX)
  @DF-RHF Final Energy:  -247.10313898864123
    Total Energy =                       -247.1031389886412057
  @DF-RHF Final Energy:  -247.11848886063743
    Total Energy =                       -247.1184888606374557
  @DF-RHF Final Energy:   -95.25537020767607
    Total Energy =                        -95.2553702076760658
  @DF-RHF Final Energy:   -95.26130969411550
    Total Energy =                        -95.2613096941154964
  @DF-RHF Final Energy:   -95.25530137676623
    Total Energy =                        -95.2553013767662264
  @DF-RHF Final Energy:   -95.26128382439134
    Total Energy =                        -95.2612838243913416
  Multiplicity = 1
  @DF-RHF Final Energy:  -342.35808622101109
    Total Energy =                       -342.3580862210110922
	 Singles Energy            =      -0.0000000000000000 [Eh]
	 Same-Spin Energy          =      -0.3465533718499347 [Eh]
	 Opposite-Spin Energy      =      -1.1680171699872179 [Eh]
	 Correlation Energy        =      -1.5145705418371527 [Eh]
	 Total Energy              =    -343.8726567628482371 [Eh]
	 SCS Total Energy          =    -343.8752246156124102 [Eh]
    Molecular point group: c1

    Geometry (in Angstrom), charge = 0, multiplicity = 1:

       Center              X                  Y                   Z               Mass
    ------------   -----------------  -----------------  -----------------  -----------------
         N           -2.480874806713    -0.021737855970    -0.180326614691    14.003074004430
         H           -1.780288806713    -0.274698855970    -0.869039614691     1.007825032230
         H           -3.372418806713    -0.309194855970    -0.561854614691     1.007825032230
         C           -2.216680806713    -0.770399855970     1.047367385309    12.000000000000
         H           -2.968315806713    -0.521839855970     1.794534385309     1.007825032230
         H           -2.199190806713    -1.858401855970     0.933421385309     1.007825032230
         H           -1.250708806713    -0.467600855970     1.448817385309     1.007825032230
         C            0.161309193287     1.867101144030    -0.405469614691    12.000000000000
         H            0.285928193287     2.278277144030    -1.404513614691     1.007825032230
         H            0.667881193287     2.508093144030     0.312314385309     1.007825032230
         H           -0.905102806713     1.840571144030    -0.187048614691     1.007825032230
         C            0.673301193287     0.449303144030    -0.403175614691    12.000000000000
         O            0.213321193287    -0.416432855970    -1.142350614691    15.994914619570
         N            1.659784193287     0.176271144030     0.489155385309    14.003074004430
         H            2.059545193287     0.931203144030     1.014507385309     1.007825032230
         C            2.248229193287    -1.143319855970     0.566654385309    12.000000000000
         H            1.460053193287    -1.884649855970     0.473634385309     1.007825032230
         H            2.969489193287    -1.315314855970    -0.231889614691     1.007825032230
         H            2.742883193287    -1.259187855970     1.526594385309     1.007825032230

  Charge       = 0
  Multiplicity = 1
  Basis Set: AUG-CC-PVQZ
    Blend: AUG-CC-PVQZ
  Basis Set: (AUG-CC-PVQZ AUX)
    Blend: AUG-CC-PVQZ-JKFIT

    Orbital Energies [Eh]
    ---------------------

    Doubly Occupied:

       1A    -20.511966     2A    -15.587133     3A    -15.513790
       4A    -11.348068     5A    -11.258910     6A    -11.226465
       7A    -11.224643     8A     -1.378656     9A     -1.232750
      10A     -1.152162    11A     -1.016122    12A     -0.932692
      13A     -0.881149    14A     -0.793624    15A     -0.689752
      16A     -0.660215    17A     -0.655195    18A     -0.626884
      19A     -0.592248    20A     -0.579632    21A     -0.578964
      22A     -0.557001    23A     -0.547010    24A     -0.536972
      25A     -0.503732    26A     -0.501868    27A     -0.425034
      28A     -0.396635    29A     -0.375646

  @DF-RHF Final Energy:  -342.37942761821262

   => Energetics <=

    Nuclear Repulsion Energy =            324.8724762118348508
    One-Electron Energy =               -1109.9339628828931836
    Two-Electron Energy =                 442.6820590528457160
    Total Energy =                       -342.3794276182126168

  Dipole Moment: [D]
     X:     2.3001      Y:     0.9585      Z:     2.1810     Total:     3.3115

  Basis Set: (AUG-CC-PVQZ AUX)
    Blend: AUG-CC-PVQZ-RI
	 Reference Energy          =    -342.3794276182126168 [Eh]
	 Singles Energy            =      -0.0000000000000000 [Eh]
	 Same-Spin Energy          =      -0.3670787951047493 [Eh]
	 Opposite-Spin Energy      =      -1.3076370172685909 [Eh]
	 Correlation Energy        =      -1.6747158123733401 [Eh]
	 Total Energy              =    -344.0541434305859525 [Eh]

	 ================> DF-SCS-MP2 Energies <==================
	-----------------------------------------------------------
	 SCS Same-Spin Scale       =       0.3333333333333333 [-]
	 SCS Opposite-Spin Scale   =       1.2000000000000000 [-]
	 SCS Same-Spin Energy      =      -0.1223595983682498 [Eh]
	 SCS Opposite-Spin Energy  =      -1.5691644207223090 [Eh]
	 SCS Correlation Energy    =      -1.6915240190905587 [Eh]
	 SCS Total Energy          =    -344.0709516373031533 [Eh]
	-----------------------------------------------------------

*** Psi4 exiting successfully. Buy a developer a beer!
