                               Psi4 1.4a2.dev224

  ==> Input File <==

--------------------------------------------------------------------------
#Generated by lconvert.py for cbs job

memory 40 GB

molecule  {
0 1
  N       -0.5697080     0.8143720     0.1010980
  H        0.1308780     0.5614110    -0.5876150
  H       -1.4612520     0.5269150    -0.2804300
  C       -0.3055140     0.0657100     1.3287920
  H       -1.0571490     0.3142700     2.0759590
  H       -0.2880240    -1.0222920     1.2148460
  H        0.6604580     0.3685090     1.7302420
--
0 1
  C        2.4047280     2.6795900    -0.1695950
  H        2.5293470     3.0907660    -1.1686390
  H        2.9113000     3.3205820     0.5481900
  H        1.3383160     2.6530600     0.0488270
  C        2.9167200     1.2617920    -0.1673010
  O        2.4567400     0.3960550    -0.9064750
  N        3.9032030     0.9887600     0.7250300
  H        4.3029640     1.7436920     1.2503830
  C        4.4916480    -0.3308310     0.8025300
  H        3.7034720    -1.0721610     0.7095090
  H        5.2129080    -0.5028260     0.0039850
  H        4.9863020    -0.4466990     1.7624690
units angstrom
no_reorient
symmetry c1
}

set {
scf_type DF
mp2_type DF
e_convergence 7
reference rhf
}

energy('mp2/aug-cc-pv[tq]z', bsse_type='cp')
--------------------------------------------------------------------------

    Molecular point group: c1
  Charge       = 0
  Multiplicity = 1
  Basis Set: AUG-CC-PVTZ
    Blend: AUG-CC-PVTZ
  Basis Set: (AUG-CC-PVTZ AUX)
    Blend: AUG-CC-PVTZ-JKFIT
  @DF-RHF Final Energy:  -247.10300552768197
    Total Energy =                       -247.1030055276819439
  Basis Set: (AUG-CC-PVTZ AUX)
    Blend: AUG-CC-PVTZ-RI
	 Reference Energy          =    -247.1030055276819724 [Eh]
	 Singles Energy            =      -0.0000000000000000 [Eh]
	 Same-Spin Energy          =      -0.2463257920395490 [Eh]
	 Opposite-Spin Energy      =      -0.8098610010475511 [Eh]
	 Correlation Energy        =      -1.0561867930871001 [Eh]
	 Total Energy              =    -248.1591923207690797 [Eh]
	 SCS Total Energy          =    -248.1569473262855468 [Eh]
    Molecular point group: c1
  Basis Set: AUG-CC-PVQZ
    Blend: AUG-CC-PVQZ
  Basis Set: (AUG-CC-PVQZ AUX)
    Blend: AUG-CC-PVQZ-JKFIT
  @DF-RHF Final Energy:  -247.11844425727224
    Total Energy =                       -247.1184442572722446
  Basis Set: (AUG-CC-PVQZ AUX)
  @DF-RHF Final Energy:  -247.10311078285156
    Total Energy =                       -247.1031107828515587
  @DF-RHF Final Energy:  -247.11848086968791
    Total Energy =                       -247.1184808696879145
  @DF-RHF Final Energy:   -95.25535366656878
    Total Energy =                        -95.2553536665687801
  @DF-RHF Final Energy:   -95.26130505211042
    Total Energy =                        -95.2613050521104157
  @DF-RHF Final Energy:   -95.25530137684304
    Total Energy =                        -95.2553013768430361
  @DF-RHF Final Energy:   -95.26128382420647
    Total Energy =                        -95.2612838242064726
  Multiplicity = 1
  @DF-RHF Final Energy:  -342.36175696657534
    Total Energy =                       -342.3617569665753422
	 Singles Energy            =      -0.0000000000000000 [Eh]
	 Same-Spin Energy          =      -0.3447018717703235 [Eh]
	 Opposite-Spin Energy      =      -1.1657836284870555 [Eh]
	 Correlation Energy        =      -1.5104855002573792 [Eh]
	 Total Energy              =    -343.8722424668327449 [Eh]
	 SCS Total Energy          =    -343.8755979446832498 [Eh]
    Molecular point group: c1

    Geometry (in Angstrom), charge = 0, multiplicity = 1:

       Center              X                  Y                   Z               Mass
    ------------   -----------------  -----------------  -----------------  -----------------
         N           -2.714045809339    -0.005160729855    -0.148360395783    14.003074004430
         H           -2.013459809339    -0.258121729855    -0.837073395783     1.007825032230
         H           -3.605589809339    -0.292617729855    -0.529888395783     1.007825032230
         C           -2.449851809339    -0.753822729855     1.079333604217    12.000000000000
         H           -3.201486809339    -0.505262729855     1.826500604217     1.007825032230
         H           -2.432361809339    -1.841824729855     0.965387604217     1.007825032230
         H           -1.483879809339    -0.451023729855     1.480783604217     1.007825032230
         C            0.260390190661     1.860057270145    -0.419053395783    12.000000000000
         H            0.385009190661     2.271233270145    -1.418097395783     1.007825032230
         H            0.766962190661     2.501049270145     0.298731604217     1.007825032230
         H           -0.806021809339     1.833527270145    -0.200631395783     1.007825032230
         C            0.772382190661     0.442259270145    -0.416759395783    12.000000000000
         O            0.312402190661    -0.423477729855    -1.155933395783    15.994914619570
         N            1.758865190661     0.169227270145     0.475571604217    14.003074004430
         H            2.158626190661     0.924159270145     1.000924604217     1.007825032230
         C            2.347310190661    -1.150363729855     0.553071604217    12.000000000000
         H            1.559134190661    -1.891693729855     0.460050604217     1.007825032230
         H            3.068570190661    -1.322358729855    -0.245473395783     1.007825032230
         H            2.841964190661    -1.266231729855     1.513010604217     1.007825032230

  Charge       = 0
  Multiplicity = 1
  Basis Set: AUG-CC-PVQZ
    Blend: AUG-CC-PVQZ
  Basis Set: (AUG-CC-PVQZ AUX)
    Blend: AUG-CC-PVQZ-JKFIT

    Orbital Energies [Eh]
    ---------------------

    Doubly Occupied:

       1A    -20.511075     2A    -15.586289     3A    -15.521395
       4A    -11.346925     5A    -11.258264     6A    -11.228905
       7A    -11.227517     8A     -1.375842     9A     -1.231428
      10A     -1.156551    11A     -1.016778    12A     -0.932660
      13A     -0.883756    14A     -0.792286    15A     -0.689563
      16A     -0.655034    17A     -0.653952    18A     -0.630966
      19A     -0.592898    20A     -0.581925    21A     -0.580349
      22A     -0.556718    23A     -0.547466    24A     -0.541278
      25A     -0.505303    26A     -0.501682    27A     -0.423969
      28A     -0.395703    29A     -0.380670

  @DF-RHF Final Energy:  -342.38309794916535

   => Energetics <=

    Nuclear Repulsion Energy =            317.2482043537311824
    One-Electron Energy =               -1094.6483146069949726
    Two-Electron Energy =                 435.0170123040985004
    Total Energy =                       -342.3830979491653466

  Dipole Moment: [D]
     X:     2.2298      Y:     0.9517      Z:     2.2401     Total:     3.3008

  Basis Set: (AUG-CC-PVQZ AUX)
    Blend: AUG-CC-PVQZ-RI
	 Reference Energy          =    -342.3830979491653466 [Eh]
	 Singles Energy            =      -0.0000000000000000 [Eh]
	 Same-Spin Energy          =      -0.3652321599057965 [Eh]
	 Opposite-Spin Energy      =      -1.3057344251970735 [Eh]
	 Correlation Energy        =      -1.6709665851028701 [Eh]
	 Total Energy              =    -344.0540645342682069 [Eh]

	 ================> DF-SCS-MP2 Energies <==================
	-----------------------------------------------------------
	 SCS Same-Spin Scale       =       0.3333333333333333 [-]
	 SCS Opposite-Spin Scale   =       1.2000000000000000 [-]
	 SCS Same-Spin Energy      =      -0.1217440533019322 [Eh]
	 SCS Opposite-Spin Energy  =      -1.5668813102364882 [Eh]
	 SCS Correlation Energy    =      -1.6886253635384203 [Eh]
	 SCS Total Energy          =    -344.0717233127037389 [Eh]
	-----------------------------------------------------------

*** Psi4 exiting successfully. Buy a developer a beer!
