                               Psi4 1.4a2.dev224

  ==> Input File <==

--------------------------------------------------------------------------
#Generated by lconvert.py for cbs job

memory 20 GB

molecule  {
0 1
  N      -0.569710    0.814370    0.101100
  H       0.130880    0.561410   -0.587610
  H      -1.461250    0.526920   -0.280430
  C      -0.305510    0.065710    1.328790
  H      -1.057150    0.314270    2.075960
  H      -0.288020   -1.022290    1.214850
  H       0.660460    0.368510    1.730240
--
0 1
  C       3.622980    2.592980   -0.336610
  H       3.747600    3.004150   -1.335650
  H       4.129550    3.233970    0.381180
  H       2.556570    2.566450   -0.118190
  C       4.134970    1.175180   -0.334310
  O       3.675000    0.309440   -1.073490
  N       5.121460    0.902150    0.558020
  H       5.521220    1.657080    1.083370
  C       5.709900   -0.417450    0.635520
  H       4.921730   -1.158780    0.542500
  H       6.431160   -0.589440   -0.163030
  H       6.204560   -0.533310    1.595460
units angstrom
no_reorient
symmetry c1
}

set {
scf_type DF
mp2_type DF
e_convergence 7
reference rhf
}

energy('mp2/aug-cc-pv[tq]z', bsse_type='cp')
--------------------------------------------------------------------------

    Molecular point group: c1
  Charge       = 0
  Multiplicity = 1
  Basis Set: AUG-CC-PVTZ
    Blend: AUG-CC-PVTZ
  Basis Set: (AUG-CC-PVTZ AUX)
    Blend: AUG-CC-PVTZ-JKFIT
  @DF-RHF Final Energy:  -247.10300538435780
    Total Energy =                       -247.1030053843578003
  Basis Set: (AUG-CC-PVTZ AUX)
    Blend: AUG-CC-PVTZ-RI
	 Reference Energy          =    -247.1030053843578003 [Eh]
	 Singles Energy            =      -0.0000000000000000 [Eh]
	 Same-Spin Energy          =      -0.2463257696233723 [Eh]
	 Opposite-Spin Energy      =      -0.8098611087074671 [Eh]
	 Correlation Energy        =      -1.0561868783308395 [Eh]
	 Total Energy              =    -248.1591922626886344 [Eh]
	 SCS Total Energy          =    -248.1569473046812107 [Eh]
    Molecular point group: c1
  Basis Set: AUG-CC-PVQZ
    Blend: AUG-CC-PVQZ
  Basis Set: (AUG-CC-PVQZ AUX)
    Blend: AUG-CC-PVQZ-JKFIT
  @DF-RHF Final Energy:  -247.11844409889710
    Total Energy =                       -247.1184440988971005
  Basis Set: (AUG-CC-PVQZ AUX)
  @DF-RHF Final Energy:  -247.10303658380190
    Total Energy =                       -247.1030365838018952
  @DF-RHF Final Energy:  -247.11845652577043
    Total Energy =                       -247.1184565257703980
  @DF-RHF Final Energy:   -95.25531946026634
    Total Energy =                        -95.2553194602663353
  @DF-RHF Final Energy:   -95.26129230339681
    Total Energy =                        -95.2612923033968144
  @DF-RHF Final Energy:   -95.25530147432337
    Total Energy =                        -95.2553014743233746
  @DF-RHF Final Energy:   -95.26128392992349
    Total Energy =                        -95.2612839299234935
  Multiplicity = 1
  @DF-RHF Final Energy:  -342.36034688915208
    Total Energy =                       -342.3603468891520833
	 Singles Energy            =      -0.0000000000000000 [Eh]
	 Same-Spin Energy          =      -0.3423132757747989 [Eh]
	 Opposite-Spin Energy      =      -1.1625867280149607 [Eh]
	 Correlation Energy        =      -1.5049000037897595 [Eh]
	 Total Energy              =    -343.8652468929418546 [Eh]
	 SCS Total Energy          =    -343.8695553880282887 [Eh]
    Molecular point group: c1

    Geometry (in Angstrom), charge = 0, multiplicity = 1:

       Center              X                  Y                   Z               Mass
    ------------   -----------------  -----------------  -----------------  -----------------
         N           -3.569006524530     0.055621738552    -0.031151263444    14.003074004430
         H           -2.868416524530    -0.197338261448    -0.719861263444     1.007825032230
         H           -4.460546524530    -0.231828261448    -0.412681263444     1.007825032230
         C           -3.304806524530    -0.693038261448     1.196538736556    12.000000000000
         H           -4.056446524530    -0.444478261448     1.943708736556     1.007825032230
         H           -3.287316524530    -1.781038261448     1.082598736556     1.007825032230
         H           -2.338836524530    -0.390238261448     1.597988736556     1.007825032230
         C            0.623683475470     1.834231738552    -0.468861263444    12.000000000000
         H            0.748303475470     2.245401738552    -1.467901263444     1.007825032230
         H            1.130253475470     2.475221738552     0.248928736556     1.007825032230
         H           -0.442726524530     1.807701738552    -0.250441263444     1.007825032230
         C            1.135673475470     0.416431738552    -0.466561263444    12.000000000000
         O            0.675703475470    -0.449308261448    -1.205741263444    15.994914619570
         N            2.122163475470     0.143401738552     0.425768736556    14.003074004430
         H            2.521923475470     0.898331738552     0.951118736556     1.007825032230
         C            2.710603475470    -1.176198261448     0.503268736556    12.000000000000
         H            1.922433475470    -1.917528261448     0.410248736556     1.007825032230
         H            3.431863475470    -1.348188261448    -0.295281263444     1.007825032230
         H            3.205263475470    -1.292058261448     1.463208736556     1.007825032230

  Charge       = 0
  Multiplicity = 1
  Basis Set: AUG-CC-PVQZ
    Blend: AUG-CC-PVQZ
  Basis Set: (AUG-CC-PVQZ AUX)
    Blend: AUG-CC-PVQZ-JKFIT

    Orbital Energies [Eh]
    ---------------------

    Doubly Occupied:

       1A    -20.509056     2A    -15.585315     3A    -15.530910
       4A    -11.345623     5A    -11.257383     6A    -11.233171
       7A    -11.232863     8A     -1.372839     9A     -1.230035
      10A     -1.163748    11A     -1.018671    12A     -0.933044
      13A     -0.888734    14A     -0.791015    15A     -0.690027
      16A     -0.655796    17A     -0.652652    18A     -0.634551
      19A     -0.597166    20A     -0.585342    21A     -0.580129
      22A     -0.557224    23A     -0.548622    24A     -0.547579
      25A     -0.510158    26A     -0.500637    27A     -0.422004
      28A     -0.393549    29A     -0.387235

  @DF-RHF Final Energy:  -342.38173732419079

   => Energetics <=

    Nuclear Repulsion Energy =            296.4455529273037655
    One-Electron Energy =               -1052.9444293379553983
    Two-Electron Energy =                 414.1171390864608384
    Total Energy =                       -342.3817373241907944

  Dipole Moment: [D]
     X:     2.1715      Y:     0.9471      Z:     2.3336     Total:     3.3254

  Basis Set: (AUG-CC-PVQZ AUX)
    Blend: AUG-CC-PVQZ-RI
	 Reference Energy          =    -342.3817373241907944 [Eh]
	 Singles Energy            =      -0.0000000000000000 [Eh]
	 Same-Spin Energy          =      -0.3628958559180949 [Eh]
	 Opposite-Spin Energy      =      -1.3032561853654847 [Eh]
	 Correlation Energy        =      -1.6661520412835795 [Eh]
	 Total Energy              =    -344.0478893654743615 [Eh]

	 ================> DF-SCS-MP2 Energies <==================
	-----------------------------------------------------------
	 SCS Same-Spin Scale       =       0.3333333333333333 [-]
	 SCS Opposite-Spin Scale   =       1.2000000000000000 [-]
	 SCS Same-Spin Energy      =      -0.1209652853060316 [Eh]
	 SCS Opposite-Spin Energy  =      -1.5639074224385816 [Eh]
	 SCS Correlation Energy    =      -1.6848727077446133 [Eh]
	 SCS Total Energy          =    -344.0666100319353973 [Eh]
	-----------------------------------------------------------

*** Psi4 exiting successfully. Buy a developer a beer!
