                               Psi4 1.4a2.dev224

  ==> Input File <==

--------------------------------------------------------------------------
#Generated by lconvert.py for cbs job

memory 40 GB

molecule  {
0 1
  N       -0.5697080     0.8143720     0.1010980
  H        0.1308780     0.5614110    -0.5876150
  H       -1.4612520     0.5269150    -0.2804300
  C       -0.3055140     0.0657100     1.3287920
  H       -1.0571490     0.3142700     2.0759590
  H       -0.2880240    -1.0222920     1.2148460
  H        0.6604580     0.3685090     1.7302420
--
0 1
  C        2.5154790     2.6717160    -0.1847780
  H        2.6400970     3.0828930    -1.1838220
  H        3.0220500     3.3127080     0.5330070
  H        1.4490670     2.6451860     0.0336430
  C        3.0274700     1.2539180    -0.1824840
  O        2.5674910     0.3881820    -0.9216590
  N        4.0139530     0.9808860     0.7098470
  H        4.4137140     1.7358190     1.2352000
  C        4.6023990    -0.3387050     0.7873460
  H        3.8142220    -1.0800350     0.6943260
  H        5.3236590    -0.5107000    -0.0111980
  H        5.0970520    -0.4545730     1.7472860
units angstrom
no_reorient
symmetry c1
}

set {
scf_type DF
mp2_type DF
e_convergence 7
reference rhf
}

energy('mp2/aug-cc-pv[tq]z', bsse_type='cp')
--------------------------------------------------------------------------

    Molecular point group: c1
  Charge       = 0
  Multiplicity = 1
  Basis Set: AUG-CC-PVTZ
    Blend: AUG-CC-PVTZ
  Basis Set: (AUG-CC-PVTZ AUX)
    Blend: AUG-CC-PVTZ-JKFIT
  @DF-RHF Final Energy:  -247.10300555183522
    Total Energy =                       -247.1030055518352242
  Basis Set: (AUG-CC-PVTZ AUX)
    Blend: AUG-CC-PVTZ-RI
	 Reference Energy          =    -247.1030055518352242 [Eh]
	 Singles Energy            =      -0.0000000000000000 [Eh]
	 Same-Spin Energy          =      -0.2463257877493381 [Eh]
	 Opposite-Spin Energy      =      -0.8098609892961970 [Eh]
	 Correlation Energy        =      -1.0561867770455351 [Eh]
	 Total Energy              =    -248.1591923288807493 [Eh]
	 SCS Total Energy          =    -248.1569473349071018 [Eh]
    Molecular point group: c1
  Basis Set: AUG-CC-PVQZ
    Blend: AUG-CC-PVQZ
  Basis Set: (AUG-CC-PVQZ AUX)
    Blend: AUG-CC-PVQZ-JKFIT
  @DF-RHF Final Energy:  -247.11844428563654
    Total Energy =                       -247.1184442856365422
  Basis Set: (AUG-CC-PVQZ AUX)
  @DF-RHF Final Energy:  -247.10310334584523
    Total Energy =                       -247.1031033458452271
  @DF-RHF Final Energy:  -247.11847812900103
    Total Energy =                       -247.1184781290010051
  @DF-RHF Final Energy:   -95.25534880681244
    Total Energy =                        -95.2553488068124352
  @DF-RHF Final Energy:   -95.26130341235682
    Total Energy =                        -95.2613034123568241
  @DF-RHF Final Energy:   -95.25530137675383
    Total Energy =                        -95.2553013767538346
  @DF-RHF Final Energy:   -95.26128382427584
    Total Energy =                        -95.2612838242758357
  Multiplicity = 1
  @DF-RHF Final Energy:  -342.36204100855292
    Total Energy =                       -342.3620410085529215
	 Singles Energy            =      -0.0000000000000000 [Eh]
	 Same-Spin Energy          =      -0.3442667373022140 [Eh]
	 Opposite-Spin Energy      =      -1.1652557958138243 [Eh]
	 Correlation Energy        =      -1.5095225331160382 [Eh]
	 Total Energy              =    -343.8715635416689338 [Eh]
	 SCS Total Energy          =    -343.8751035426302565 [Eh]
    Molecular point group: c1

    Geometry (in Angstrom), charge = 0, multiplicity = 1:

       Center              X                  Y                   Z               Mass
    ------------   -----------------  -----------------  -----------------  -----------------
         N           -2.791769412600     0.000364988540    -0.137704845465    14.003074004430
         H           -2.091183412600    -0.252596011460    -0.826417845465     1.007825032230
         H           -3.683313412600    -0.287092011460    -0.519232845465     1.007825032230
         C           -2.527575412600    -0.748297011460     1.089989154535    12.000000000000
         H           -3.279210412600    -0.499737011460     1.837156154535     1.007825032230
         H           -2.510085412600    -1.836299011460     0.976043154535     1.007825032230
         H           -1.561603412600    -0.445498011460     1.491439154535     1.007825032230
         C            0.293417587400     1.857708988540    -0.423580845465    12.000000000000
         H            0.418035587400     2.268885988540    -1.422624845465     1.007825032230
         H            0.799988587400     2.498700988540     0.294204154535     1.007825032230
         H           -0.772994412600     1.831178988540    -0.205159845465     1.007825032230
         C            0.805408587400     0.439910988540    -0.421286845465    12.000000000000
         O            0.345429587400    -0.425825011460    -1.160461845465    15.994914619570
         N            1.791891587400     0.166878988540     0.471044154535    14.003074004430
         H            2.191652587400     0.921811988540     0.996397154535     1.007825032230
         C            2.380337587400    -1.152712011460     0.548543154535    12.000000000000
         H            1.592160587400    -1.894042011460     0.455523154535     1.007825032230
         H            3.101597587400    -1.324707011460    -0.250000845465     1.007825032230
         H            2.874990587400    -1.268580011460     1.508483154535     1.007825032230

  Charge       = 0
  Multiplicity = 1
  Basis Set: AUG-CC-PVQZ
    Blend: AUG-CC-PVQZ
  Basis Set: (AUG-CC-PVQZ AUX)
    Blend: AUG-CC-PVQZ-JKFIT

    Orbital Energies [Eh]
    ---------------------

    Doubly Occupied:

       1A    -20.510817     2A    -15.586115     3A    -15.523073
       4A    -11.346688     5A    -11.258121     6A    -11.229511
       7A    -11.228331     8A     -1.375278     9A     -1.231166
      10A     -1.157639    11A     -1.017024    12A     -0.932697
      13A     -0.884446    14A     -0.792028    15A     -0.689589
      16A     -0.654293    17A     -0.653699    18A     -0.631926
      19A     -0.593308    20A     -0.582563    21A     -0.580411
      22A     -0.556721    23A     -0.547594    24A     -0.542342
      25A     -0.505978    26A     -0.501427    27A     -0.423677
      28A     -0.395393    29A     -0.381783

  @DF-RHF Final Energy:  -342.38338299514101

   => Energetics <=

    Nuclear Repulsion Energy =            314.9308928068538762
    One-Electron Energy =               -1090.0012808124456569
    Two-Electron Energy =                 432.6870050104507754
    Total Energy =                       -342.3833829951410053

  Dipole Moment: [D]
     X:     2.2172      Y:     0.9507      Z:     2.2546     Total:     3.3020

  Basis Set: (AUG-CC-PVQZ AUX)
    Blend: AUG-CC-PVQZ-RI
	 Reference Energy          =    -342.3833829951410053 [Eh]
	 Singles Energy            =      -0.0000000000000000 [Eh]
	 Same-Spin Energy          =      -0.3648017267641248 [Eh]
	 Opposite-Spin Energy      =      -1.3052821431279051 [Eh]
	 Correlation Energy        =      -1.6700838698920299 [Eh]
	 Total Energy              =    -344.0534668650330445 [Eh]

	 ================> DF-SCS-MP2 Energies <==================
	-----------------------------------------------------------
	 SCS Same-Spin Scale       =       0.3333333333333333 [-]
	 SCS Opposite-Spin Scale   =       1.2000000000000000 [-]
	 SCS Same-Spin Energy      =      -0.1216005755880416 [Eh]
	 SCS Opposite-Spin Energy  =      -1.5663385717534861 [Eh]
	 SCS Correlation Energy    =      -1.6879391473415277 [Eh]
	 SCS Total Energy          =    -344.0713221424825292 [Eh]
	-----------------------------------------------------------

*** Psi4 exiting successfully. Buy a developer a beer!
