                               Psi4 1.4a2.dev224

  ==> Input File <==

--------------------------------------------------------------------------
#Generated by lconvert.py for cbs job

memory 20 GB

molecule  {
0 1
  N      -0.569710    0.814370    0.101100
  H       0.130880    0.561410   -0.587610
  H      -1.461250    0.526920   -0.280430
  C      -0.305510    0.065710    1.328790
  H      -1.057150    0.314270    2.075960
  H      -0.288020   -1.022290    1.214850
  H       0.660460    0.368510    1.730240
--
0 1
  C       2.958480    2.640220   -0.245510
  H       3.083100    3.051400   -1.244550
  H       3.465050    3.281210    0.472280
  H       1.892070    2.613690   -0.027090
  C       3.470470    1.222420   -0.243220
  O       3.010490    0.356690   -0.982390
  N       4.456950    0.949390    0.649110
  H       4.856720    1.704320    1.174470
  C       5.045400   -0.370200    0.726610
  H       4.257220   -1.111530    0.633590
  H       5.766660   -0.542200   -0.071930
  H       5.540050   -0.486070    1.686550
units angstrom
no_reorient
symmetry c1
}

set {
scf_type DF
mp2_type DF
e_convergence 7
reference rhf
}

energy('mp2/aug-cc-pv[tq]z', bsse_type='cp')
--------------------------------------------------------------------------

    Molecular point group: c1
  Charge       = 0
  Multiplicity = 1
  Basis Set: AUG-CC-PVTZ
    Blend: AUG-CC-PVTZ
  Basis Set: (AUG-CC-PVTZ AUX)
    Blend: AUG-CC-PVTZ-JKFIT
  @DF-RHF Final Energy:  -247.10300615769245
    Total Energy =                       -247.1030061576924481
  Basis Set: (AUG-CC-PVTZ AUX)
    Blend: AUG-CC-PVTZ-RI
	 Reference Energy          =    -247.1030061576924481 [Eh]
	 Singles Energy            =      -0.0000000000000000 [Eh]
	 Same-Spin Energy          =      -0.2463256560975089 [Eh]
	 Opposite-Spin Energy      =      -0.8098606374573978 [Eh]
	 Correlation Energy        =      -1.0561862935549067 [Eh]
	 Total Energy              =    -248.1591924512473497 [Eh]
	 SCS Total Energy          =    -248.1569474746738422 [Eh]
    Molecular point group: c1
  Basis Set: AUG-CC-PVQZ
    Blend: AUG-CC-PVQZ
  Basis Set: (AUG-CC-PVQZ AUX)
    Blend: AUG-CC-PVQZ-JKFIT
  @DF-RHF Final Energy:  -247.11844492619986
    Total Energy =                       -247.1184449261998566
  Basis Set: (AUG-CC-PVQZ AUX)
  @DF-RHF Final Energy:  -247.10307278412415
    Total Energy =                       -247.1030727841241514
  @DF-RHF Final Energy:  -247.11846791269826
    Total Energy =                       -247.1184679126982928
  @DF-RHF Final Energy:   -95.25533357514082
    Total Energy =                        -95.2553335751408241
  @DF-RHF Final Energy:   -95.26129710207181
    Total Energy =                        -95.2612971020718078
  @DF-RHF Final Energy:   -95.25530147428911
    Total Energy =                        -95.2553014742891122
  @DF-RHF Final Energy:   -95.26128392982328
    Total Energy =                        -95.2612839298232785
  Multiplicity = 1
  @DF-RHF Final Energy:  -342.36165208885490
    Total Energy =                       -342.3616520888548962
	 Singles Energy            =      -0.0000000000000000 [Eh]
	 Same-Spin Energy          =      -0.3431031153248701 [Eh]
	 Opposite-Spin Energy      =      -1.1637592169323701 [Eh]
	 Correlation Energy        =      -1.5068623322572401 [Eh]
	 Total Energy              =    -343.8685144211121383 [Eh]
	 SCS Total Energy          =    -343.8725308542820471 [Eh]
    Molecular point group: c1

    Geometry (in Angstrom), charge = 0, multiplicity = 1:

       Center              X                  Y                   Z               Mass
    ------------   -----------------  -----------------  -----------------  -----------------
         N           -3.102664251010     0.022466314217    -0.095080452780    14.003074004430
         H           -2.402074251010    -0.230493685783    -0.783790452780     1.007825032230
         H           -3.994204251010    -0.264983685783    -0.476610452780     1.007825032230
         C           -2.838464251010    -0.726193685783     1.132609547220    12.000000000000
         H           -3.590104251010    -0.477633685783     1.879779547220     1.007825032230
         H           -2.820974251010    -1.814193685783     1.018669547220     1.007825032230
         H           -1.872494251010    -0.423393685783     1.534059547220     1.007825032230
         C            0.425525748990     1.848316314217    -0.441690452780    12.000000000000
         H            0.550145748990     2.259496314217    -1.440730452780     1.007825032230
         H            0.932095748990     2.489306314217     0.276099547220     1.007825032230
         H           -0.640884251010     1.821786314217    -0.223270452780     1.007825032230
         C            0.937515748990     0.430516314217    -0.439400452780    12.000000000000
         O            0.477535748990    -0.435213685783    -1.178570452780    15.994914619570
         N            1.923995748990     0.157486314217     0.452929547220    14.003074004430
         H            2.323765748990     0.912416314217     0.978289547220     1.007825032230
         C            2.512445748990    -1.162103685783     0.530429547220    12.000000000000
         H            1.724265748990    -1.903433685783     0.437409547220     1.007825032230
         H            3.233705748990    -1.334103685783    -0.268110452780     1.007825032230
         H            3.007095748990    -1.277973685783     1.490369547220     1.007825032230

  Charge       = 0
  Multiplicity = 1
  Basis Set: AUG-CC-PVQZ
    Blend: AUG-CC-PVQZ
  Basis Set: (AUG-CC-PVQZ AUX)
    Blend: AUG-CC-PVQZ-JKFIT

    Orbital Energies [Eh]
    ---------------------

    Doubly Occupied:

       1A    -20.509941     2A    -15.585666     3A    -15.527507
       4A    -11.346083     5A    -11.257728     6A    -11.231352
       7A    -11.230835     8A     -1.373864     9A     -1.230515
      10A     -1.160853    11A     -1.017888    12A     -0.932880
      13A     -0.886604    14A     -0.791422    15A     -0.689793
      16A     -0.654022    17A     -0.652974    18A     -0.633970
      19A     -0.595050    20A     -0.584241    21A     -0.580347
      22A     -0.556907    23A     -0.547971    24A     -0.545398
      25A     -0.508063    26A     -0.500896    27A     -0.422783
      28A     -0.394404    29A     -0.384773

  @DF-RHF Final Energy:  -342.38301070046168

   => Energetics <=

    Nuclear Repulsion Energy =            306.6116552672217495
    One-Electron Energy =               -1073.3198815499647480
    Two-Electron Energy =                 424.3252155822813165
    Total Energy =                       -342.3830107004616821

  Dipole Moment: [D]
     X:     2.1898      Y:     0.9489      Z:     2.2968     Total:     3.3123

  Basis Set: (AUG-CC-PVQZ AUX)
    Blend: AUG-CC-PVQZ-RI
	 Reference Energy          =    -342.3830107004616821 [Eh]
	 Singles Energy            =      -0.0000000000000000 [Eh]
	 Same-Spin Energy          =      -0.3636593611213293 [Eh]
	 Opposite-Spin Energy      =      -1.3040719262397751 [Eh]
	 Correlation Energy        =      -1.6677312873611045 [Eh]
	 Total Energy              =    -344.0507419878227893 [Eh]

	 ================> DF-SCS-MP2 Energies <==================
	-----------------------------------------------------------
	 SCS Same-Spin Scale       =       0.3333333333333333 [-]
	 SCS Opposite-Spin Scale   =       1.2000000000000000 [-]
	 SCS Same-Spin Energy      =      -0.1212197870404431 [Eh]
	 SCS Opposite-Spin Energy  =      -1.5648863114877301 [Eh]
	 SCS Correlation Energy    =      -1.6861060985281733 [Eh]
	 SCS Total Energy          =    -344.0691167989898531 [Eh]
	-----------------------------------------------------------

*** Psi4 exiting successfully. Buy a developer a beer!
