                               Psi4 1.4a2.dev224

  ==> Input File <==

--------------------------------------------------------------------------
#Generated by lconvert.py for cbs job

memory 40 GB

molecule  {
0 1
  N       -0.5697080     0.8143720     0.1010980
  H        0.1308780     0.5614110    -0.5876150
  H       -1.4612520     0.5269150    -0.2804300
  C       -0.3055140     0.0657100     1.3287920
  H       -1.0571490     0.3142700     2.0759590
  H       -0.2880240    -1.0222920     1.2148460
  H        0.6604580     0.3685090     1.7302420
--
0 1
  C        2.2938790     2.6874700    -0.1543980
  H        2.4184970     3.0986470    -1.1534420
  H        2.8004500     3.3284630     0.5633870
  H        1.2274670     2.6609410     0.0640230
  C        2.8058700     1.2696730    -0.1521040
  O        2.3458900     0.4039360    -0.8912790
  N        3.7923530     0.9966400     0.7402270
  H        4.1921140     1.7515730     1.2655790
  C        4.3807990    -0.3229500     0.8177260
  H        3.5926220    -1.0642800     0.7247060
  H        5.1020580    -0.4949460     0.0191820
  H        4.8754520    -0.4388180     1.7776660
units angstrom
no_reorient
symmetry c1
}

set {
scf_type DF
mp2_type DF
e_convergence 7
reference rhf
}

energy('mp2/aug-cc-pv[tq]z', bsse_type='cp')
--------------------------------------------------------------------------

    Molecular point group: c1
  Charge       = 0
  Multiplicity = 1
  Basis Set: AUG-CC-PVTZ
    Blend: AUG-CC-PVTZ
  Basis Set: (AUG-CC-PVTZ AUX)
    Blend: AUG-CC-PVTZ-JKFIT
  @DF-RHF Final Energy:  -247.10300546808381
    Total Energy =                       -247.1030054680837793
  Basis Set: (AUG-CC-PVTZ AUX)
    Blend: AUG-CC-PVTZ-RI
	 Reference Energy          =    -247.1030054680838077 [Eh]
	 Singles Energy            =      -0.0000000000000000 [Eh]
	 Same-Spin Energy          =      -0.2463258172072734 [Eh]
	 Opposite-Spin Energy      =      -0.8098610353770257 [Eh]
	 Correlation Energy        =      -1.0561868525842990 [Eh]
	 Total Energy              =    -248.1591923206680974 [Eh]
	 SCS Total Energy          =    -248.1569473162720101 [Eh]
    Molecular point group: c1
  Basis Set: AUG-CC-PVQZ
    Blend: AUG-CC-PVQZ
  Basis Set: (AUG-CC-PVQZ AUX)
    Blend: AUG-CC-PVQZ-JKFIT
  @DF-RHF Final Energy:  -247.11844419559054
    Total Energy =                       -247.1184441955905413
  Basis Set: (AUG-CC-PVQZ AUX)
  @DF-RHF Final Energy:  -247.10311832673833
    Total Energy =                       -247.1031183267382971
  @DF-RHF Final Energy:  -247.11848341159785
    Total Energy =                       -247.1184834115978219
  @DF-RHF Final Energy:   -95.25535904698530
    Total Energy =                        -95.2553590469853049
  @DF-RHF Final Energy:   -95.26130658122958
    Total Energy =                        -95.2613065812295758
  @DF-RHF Final Energy:   -95.25530137684389
    Total Energy =                        -95.2553013768438888
  @DF-RHF Final Energy:   -95.26128382438939
    Total Energy =                        -95.2612838243893947
  Multiplicity = 1
  @DF-RHF Final Energy:  -342.36112951474377
    Total Energy =                       -342.3611295147437659
	 Singles Energy            =      -0.0000000000000000 [Eh]
	 Same-Spin Energy          =      -0.3452177470337204 [Eh]
	 Opposite-Spin Energy      =      -1.1664048613324591 [Eh]
	 Correlation Energy        =      -1.5116226083661797 [Eh]
	 Total Energy              =    -343.8727521231099331 [Eh]
	 SCS Total Energy          =    -343.8758879306872700 [Eh]
    Molecular point group: c1

    Geometry (in Angstrom), charge = 0, multiplicity = 1:

       Center              X                  Y                   Z               Mass
    ------------   -----------------  -----------------  -----------------  -----------------
         N           -2.636252670936    -0.010691274315    -0.159025204237    14.003074004430
         H           -1.935666670936    -0.263652274315    -0.847738204237     1.007825032230
         H           -3.527796670936    -0.298148274315    -0.540553204237     1.007825032230
         C           -2.372058670936    -0.759353274315     1.068668795763    12.000000000000
         H           -3.123693670936    -0.510793274315     1.815835795763     1.007825032230
         H           -2.354568670936    -1.847355274315     0.954722795763     1.007825032230
         H           -1.406086670936    -0.456554274315     1.470118795763     1.007825032230
         C            0.227334329064     1.862406725685    -0.414521204237    12.000000000000
         H            0.351952329064     2.273583725685    -1.413565204237     1.007825032230
         H            0.733905329064     2.503399725685     0.303263795763     1.007825032230
         H           -0.839077670936     1.835877725685    -0.196100204237     1.007825032230
         C            0.739325329064     0.444609725685    -0.412227204237    12.000000000000
         O            0.279345329064    -0.421127274315    -1.151402204237    15.994914619570
         N            1.725808329064     0.171576725685     0.480103795763    14.003074004430
         H            2.125569329064     0.926509725685     1.005455795763     1.007825032230
         C            2.314254329064    -1.148013274315     0.557602795763    12.000000000000
         H            1.526077329064    -1.889343274315     0.464582795763     1.007825032230
         H            3.035513329064    -1.320009274315    -0.240941204237     1.007825032230
         H            2.808907329064    -1.263881274315     1.517542795763     1.007825032230

  Charge       = 0
  Multiplicity = 1
  Basis Set: AUG-CC-PVQZ
    Blend: AUG-CC-PVQZ
  Basis Set: (AUG-CC-PVQZ AUX)
    Blend: AUG-CC-PVQZ-JKFIT

    Orbital Energies [Eh]
    ---------------------

    Doubly Occupied:

       1A    -20.511349     2A    -15.586509     3A    -15.519355
       4A    -11.347219     5A    -11.258436     6A    -11.228214
       7A    -11.226622     8A     -1.376552     9A     -1.231760
      10A     -1.155299    11A     -1.016535    12A     -0.932638
      13A     -0.882984    14A     -0.792618    15A     -0.689567
      16A     -0.656215    17A     -0.654253    18A     -0.629790
      19A     -0.592549    20A     -0.581166    21A     -0.580197
      22A     -0.556752    23A     -0.547323    24A     -0.540048
      25A     -0.504553    26A     -0.501999    27A     -0.424292
      28A     -0.396029    29A     -0.379321

  @DF-RHF Final Energy:  -342.38247093053945

   => Energetics <=

    Nuclear Repulsion Energy =            319.6749430822393379
    One-Electron Energy =               -1099.5145276318000924
    Two-Electron Energy =                 437.4571136190212997
    Total Energy =                       -342.3824709305394549

  Dipole Moment: [D]
     X:     2.2466      Y:     0.9531      Z:     2.2233     Total:     3.3013

  Basis Set: (AUG-CC-PVQZ AUX)
    Blend: AUG-CC-PVQZ-RI
	 Reference Energy          =    -342.3824709305394549 [Eh]
	 Singles Energy            =      -0.0000000000000000 [Eh]
	 Same-Spin Energy          =      -0.3657444021203266 [Eh]
	 Opposite-Spin Energy      =      -1.3062676730883913 [Eh]
	 Correlation Energy        =      -1.6720120752087180 [Eh]
	 Total Energy              =    -344.0544830057481818 [Eh]

	 ================> DF-SCS-MP2 Energies <==================
	-----------------------------------------------------------
	 SCS Same-Spin Scale       =       0.3333333333333333 [-]
	 SCS Opposite-Spin Scale   =       1.2000000000000000 [-]
	 SCS Same-Spin Energy      =      -0.1219148007067755 [Eh]
	 SCS Opposite-Spin Energy  =      -1.5675212077060696 [Eh]
	 SCS Correlation Energy    =      -1.6894360084128452 [Eh]
	 SCS Total Energy          =    -344.0719069389522815 [Eh]
	-----------------------------------------------------------

*** Psi4 exiting successfully. Buy a developer a beer!
