                               Psi4 1.4a2.dev224

  ==> Input File <==

--------------------------------------------------------------------------
#Generated by lconvert.py for cbs job

memory 40 GB

molecule  {
0 1
  N       -0.5334640    -0.2795940     0.1069960
  H       -0.6291510    -1.2484250     0.3828490
  H       -1.1226040    -0.1661590    -0.7077640
  C       -1.0169090     0.5884860     1.1873730
  H       -0.9127600     1.6255520     0.8795210
  H       -2.0547370     0.4150820     1.4785040
  H       -0.3850230     0.4488010     2.0606140
--
0 1
  O        2.2212740     0.9668820     0.2072820
  H        1.4037560     0.4706100     0.0341300
  H        2.8031750     0.7083850    -0.5084640
units angstrom
no_reorient
symmetry c1
}

set {
scf_type DF
mp2_type DF
e_convergence 7
reference rhf
}

energy('mp2/aug-cc-pv[tq]z', bsse_type='cp')
--------------------------------------------------------------------------

    Molecular point group: c1
  Charge       = 0
  Multiplicity = 1
  Basis Set: AUG-CC-PVTZ
    Blend: AUG-CC-PVTZ
  Basis Set: (AUG-CC-PVTZ AUX)
    Blend: AUG-CC-PVTZ-JKFIT
  @DF-RHF Final Energy:   -76.05985466628276
    Total Energy =                        -76.0598546662827601
  Basis Set: (AUG-CC-PVTZ AUX)
    Blend: AUG-CC-PVTZ-RI
	 Reference Energy          =     -76.0598546662827601 [Eh]
	 Singles Energy            =      -0.0000000000000000 [Eh]
	 Same-Spin Energy          =      -0.0684807377991048 [Eh]
	 Opposite-Spin Energy      =      -0.2155935356975685 [Eh]
	 Correlation Energy        =      -0.2840742734966733 [Eh]
	 Total Energy              =     -76.3439289397794312 [Eh]
	 SCS Total Energy          =     -76.3413938217195494 [Eh]
    Molecular point group: c1
  Basis Set: AUG-CC-PVQZ
    Blend: AUG-CC-PVQZ
  Basis Set: (AUG-CC-PVQZ AUX)
    Blend: AUG-CC-PVQZ-JKFIT
  @DF-RHF Final Energy:   -76.06521018799273
    Total Energy =                        -76.0652101879927187
  Basis Set: (AUG-CC-PVQZ AUX)
  @DF-RHF Final Energy:   -76.05991832249073
    Total Energy =                        -76.0599183224907165
  @DF-RHF Final Energy:   -76.06523547661943
    Total Energy =                        -76.0652354766194350
  @DF-RHF Final Energy:   -95.25549688449222
    Total Energy =                        -95.2554968844922172
  @DF-RHF Final Energy:   -95.26144680822247
    Total Energy =                        -95.2614468082224732
  @DF-RHF Final Energy:   -95.25544773199633
    Total Energy =                        -95.2554477319963269
  @DF-RHF Final Energy:   -95.26142897777470
    Total Energy =                        -95.2614289777746990
  Multiplicity = 1
  @DF-RHF Final Energy:  -171.32311162086793
    Total Energy =                       -171.3231116208679339
	 Singles Energy            =      -0.0000000000000000 [Eh]
	 Same-Spin Energy          =      -0.1660307879134578 [Eh]
	 Opposite-Spin Energy      =      -0.5701632065441783 [Eh]
	 Correlation Energy        =      -0.7361939944576361 [Eh]
	 Total Energy              =    -172.0593056153255702 [Eh]
	 SCS Total Energy          =    -172.0626510646920906 [Eh]
    Molecular point group: c1

    Geometry (in Angstrom), charge = 0, multiplicity = 1:

       Center              X                  Y                   Z               Mass
    ------------   -----------------  -----------------  -----------------  -----------------
         N           -0.838272071694    -0.705326055499    -0.355973196015    14.003074004430
         H           -0.933959071694    -1.674157055499    -0.080120196015     1.007825032230
         H           -1.427412071694    -0.591891055499    -1.170733196015     1.007825032230
         C           -1.321717071694     0.162753944501     0.724403803985    12.000000000000
         H           -1.217568071694     1.199819944501     0.416551803985     1.007825032230
         H           -2.359545071694    -0.010650055499     1.015534803985     1.007825032230
         H           -0.689831071694     0.023068944501     1.597644803985     1.007825032230
         O            1.916465928306     0.541149944501    -0.255687196015    15.994914619570
         H            1.098947928306     0.044877944501    -0.428839196015     1.007825032230
         H            2.498366928306     0.282652944501    -0.971433196015     1.007825032230

  Charge       = 0
  Multiplicity = 1
  Basis Set: AUG-CC-PVQZ
    Blend: AUG-CC-PVQZ
  Basis Set: (AUG-CC-PVQZ AUX)
    Blend: AUG-CC-PVQZ-JKFIT

    Orbital Energies [Eh]
    ---------------------

    Doubly Occupied:

       1A    -20.528899     2A    -15.557255     3A    -11.247844
       4A     -1.315978     5A     -1.187895     6A     -0.907960
       7A     -0.684985     8A     -0.678226     9A     -0.615959
      10A     -0.568312    11A     -0.553954    12A     -0.527803
      13A     -0.476436    14A     -0.415141

  @DF-RHF Final Energy:  -171.33440020166418

   => Energetics <=

    Nuclear Repulsion Energy =             80.6152964409447605
    One-Electron Energy =                -393.3660947564984554
    Two-Electron Energy =                 141.4163981138895281
    Total Energy =                       -171.3344002016641809

  Dipole Moment: [D]
     X:    -2.3752      Y:    -1.7419      Z:    -1.0727     Total:     3.1347

  Basis Set: (AUG-CC-PVQZ AUX)
    Blend: AUG-CC-PVQZ-RI
	 Reference Energy          =    -171.3344002016641809 [Eh]
	 Singles Energy            =      -0.0000000000000000 [Eh]
	 Same-Spin Energy          =      -0.1760389103476706 [Eh]
	 Opposite-Spin Energy      =      -0.6391849389996003 [Eh]
	 Correlation Energy        =      -0.8152238493472709 [Eh]
	 Total Energy              =    -172.1496240510114433 [Eh]

	 ================> DF-SCS-MP2 Energies <==================
	-----------------------------------------------------------
	 SCS Same-Spin Scale       =       0.3333333333333333 [-]
	 SCS Opposite-Spin Scale   =       1.2000000000000000 [-]
	 SCS Same-Spin Energy      =      -0.0586796367825569 [Eh]
	 SCS Opposite-Spin Energy  =      -0.7670219267995203 [Eh]
	 SCS Correlation Energy    =      -0.8257015635820771 [Eh]
	 SCS Total Energy          =    -172.1601017652462531 [Eh]
	-----------------------------------------------------------

*** Psi4 exiting successfully. Buy a developer a beer!
