                               Psi4 1.4a2.dev224

  ==> Input File <==

--------------------------------------------------------------------------
#Generated by lconvert.py for cbs job

memory 40 GB

molecule  {
0 1
  N       -0.5334640    -0.2795940     0.1069960
  H       -0.6291510    -1.2484250     0.3828490
  H       -1.1226040    -0.1661590    -0.7077640
  C       -1.0169090     0.5884860     1.1873730
  H       -0.9127600     1.6255520     0.8795210
  H       -2.0547370     0.4150820     1.4785040
  H       -0.3850230     0.4488010     2.0606140
--
0 1
  O        1.7599600     0.7882350     0.2246340
  H        0.9424420     0.2919630     0.0514810
  H        2.3418610     0.5297370    -0.4911120
units angstrom
no_reorient
symmetry c1
}

set {
scf_type DF
mp2_type DF
e_convergence 7
reference rhf
}

energy('mp2/aug-cc-pv[tq]z', bsse_type='cp')
--------------------------------------------------------------------------

    Molecular point group: c1
  Charge       = 0
  Multiplicity = 1
  Basis Set: AUG-CC-PVTZ
    Blend: AUG-CC-PVTZ
  Basis Set: (AUG-CC-PVTZ AUX)
    Blend: AUG-CC-PVTZ-JKFIT
  @DF-RHF Final Energy:   -76.05985463977666
    Total Energy =                        -76.0598546397766597
  Basis Set: (AUG-CC-PVTZ AUX)
    Blend: AUG-CC-PVTZ-RI
	 Reference Energy          =     -76.0598546397766597 [Eh]
	 Singles Energy            =      -0.0000000000000000 [Eh]
	 Same-Spin Energy          =      -0.0684807434637250 [Eh]
	 Opposite-Spin Energy      =      -0.2155935524567650 [Eh]
	 Correlation Energy        =      -0.2840742959204900 [Eh]
	 Total Energy              =     -76.3439289356971500 [Eh]
	 SCS Total Energy          =     -76.3413938172126905 [Eh]
    Molecular point group: c1
  Basis Set: AUG-CC-PVQZ
    Blend: AUG-CC-PVQZ
  Basis Set: (AUG-CC-PVQZ AUX)
    Blend: AUG-CC-PVQZ-JKFIT
  @DF-RHF Final Energy:   -76.06521016048461
    Total Energy =                        -76.0652101604846109
  Basis Set: (AUG-CC-PVQZ AUX)
  @DF-RHF Final Energy:   -76.05997209472258
    Total Energy =                        -76.0599720947225819
  @DF-RHF Final Energy:   -76.06524909058601
    Total Energy =                        -76.0652490905860077
  @DF-RHF Final Energy:   -95.25555370707218
    Total Energy =                        -95.2555537070721812
  @DF-RHF Final Energy:   -95.26145704288416
    Total Energy =                        -95.2614570428841603
  @DF-RHF Final Energy:   -95.25544773201648
    Total Energy =                        -95.2554477320164779
  @DF-RHF Final Energy:   -95.26142897779863
    Total Energy =                        -95.2614289777986301
  Multiplicity = 1
  @DF-RHF Final Energy:  -171.31357136665588
    Total Energy =                       -171.3135713666558786
	 Singles Energy            =      -0.0000000000000000 [Eh]
	 Same-Spin Energy          =      -0.1687680734404410 [Eh]
	 Opposite-Spin Energy      =      -0.5730393152554314 [Eh]
	 Correlation Energy        =      -0.7418073886958724 [Eh]
	 Total Energy              =    -172.0553787553517395 [Eh]
	 SCS Total Energy          =    -172.0574745694425474 [Eh]
    Molecular point group: c1

    Geometry (in Angstrom), charge = 0, multiplicity = 1:

       Center              X                  Y                   Z               Mass
    ------------   -----------------  -----------------  -----------------  -----------------
         N           -0.668892713945    -0.639732720803    -0.362344260274    14.003074004430
         H           -0.764579713945    -1.608563720803    -0.086491260274     1.007825032230
         H           -1.258032713945    -0.526297720803    -1.177104260274     1.007825032230
         C           -1.152337713945     0.228347279197     0.718032739726    12.000000000000
         H           -1.048188713945     1.265413279197     0.410180739726     1.007825032230
         H           -2.190165713945     0.054943279197     1.009163739726     1.007825032230
         H           -0.520451713945     0.088662279197     1.591273739726     1.007825032230
         O            1.624531286055     0.428096279197    -0.244706260274    15.994914619570
         H            0.807013286055    -0.068175720803    -0.417859260274     1.007825032230
         H            2.206432286055     0.169598279197    -0.960452260274     1.007825032230

  Charge       = 0
  Multiplicity = 1
  Basis Set: AUG-CC-PVQZ
    Blend: AUG-CC-PVQZ
  Basis Set: (AUG-CC-PVQZ AUX)
    Blend: AUG-CC-PVQZ-JKFIT

    Orbital Energies [Eh]
    ---------------------

    Doubly Occupied:

       1A    -20.498686     2A    -15.564707     3A    -11.251011
       4A     -1.298088     5A     -1.199600     6A     -0.913817
       7A     -0.694640     8A     -0.688103     9A     -0.609087
      10A     -0.571080    11A     -0.542026    12A     -0.532299
      13A     -0.453382    14A     -0.417546

  @DF-RHF Final Energy:  -171.32477106577210

   => Energetics <=

    Nuclear Repulsion Energy =             85.7323549815983625
    One-Electron Energy =                -403.6461079979713986
    Two-Electron Energy =                 146.5889819506009530
    Total Energy =                       -171.3247710657720972

  Dipole Moment: [D]
     X:    -2.8209      Y:    -1.8933      Z:    -1.0327     Total:     3.5508

  Basis Set: (AUG-CC-PVQZ AUX)
    Blend: AUG-CC-PVQZ-RI
	 Reference Energy          =    -171.3247710657720972 [Eh]
	 Singles Energy            =      -0.0000000000000000 [Eh]
	 Same-Spin Energy          =      -0.1788302903590043 [Eh]
	 Opposite-Spin Energy      =      -0.6419220288855001 [Eh]
	 Correlation Energy        =      -0.8207523192445043 [Eh]
	 Total Energy              =    -172.1455233850165882 [Eh]

	 ================> DF-SCS-MP2 Energies <==================
	-----------------------------------------------------------
	 SCS Same-Spin Scale       =       0.3333333333333333 [-]
	 SCS Opposite-Spin Scale   =       1.2000000000000000 [-]
	 SCS Same-Spin Energy      =      -0.0596100967863348 [Eh]
	 SCS Opposite-Spin Energy  =      -0.7703064346626001 [Eh]
	 SCS Correlation Energy    =      -0.8299165314489348 [Eh]
	 SCS Total Energy          =    -172.1546875972210273 [Eh]
	-----------------------------------------------------------

*** Psi4 exiting successfully. Buy a developer a beer!
