                               Psi4 1.4a2.dev224

  ==> Input File <==

--------------------------------------------------------------------------
#Generated by lconvert.py for cbs job

memory 40 GB

molecule  {
0 1
  N       -0.5334640    -0.2795940     0.1069960
  H       -0.6291510    -1.2484250     0.3828490
  H       -1.1226040    -0.1661590    -0.7077640
  C       -1.0169090     0.5884860     1.1873730
  H       -0.9127600     1.6255520     0.8795210
  H       -2.0547370     0.4150820     1.4785040
  H       -0.3850230     0.4488010     2.0606140
--
0 1
  O        2.1289360     0.9311240     0.2107560
  H        1.3114190     0.4348520     0.0376030
  H        2.7108380     0.6726260    -0.5049900
units angstrom
no_reorient
symmetry c1
}

set {
scf_type DF
mp2_type DF
e_convergence 7
reference rhf
}

energy('mp2/aug-cc-pv[tq]z', bsse_type='cp')
--------------------------------------------------------------------------

    Molecular point group: c1
  Charge       = 0
  Multiplicity = 1
  Basis Set: AUG-CC-PVTZ
    Blend: AUG-CC-PVTZ
  Basis Set: (AUG-CC-PVTZ AUX)
    Blend: AUG-CC-PVTZ-JKFIT
  @DF-RHF Final Energy:   -76.05985467136547
    Total Energy =                        -76.0598546713654713
  Basis Set: (AUG-CC-PVTZ AUX)
    Blend: AUG-CC-PVTZ-RI
	 Reference Energy          =     -76.0598546713654713 [Eh]
	 Singles Energy            =      -0.0000000000000000 [Eh]
	 Same-Spin Energy          =      -0.0684807411922654 [Eh]
	 Opposite-Spin Energy      =      -0.2155935450197527 [Eh]
	 Correlation Energy        =      -0.2840742862120180 [Eh]
	 Total Energy              =     -76.3439289575774893 [Eh]
	 SCS Total Energy          =     -76.3413938391199309 [Eh]
    Molecular point group: c1
  Basis Set: AUG-CC-PVQZ
    Blend: AUG-CC-PVQZ
  Basis Set: (AUG-CC-PVQZ AUX)
    Blend: AUG-CC-PVQZ-JKFIT
  @DF-RHF Final Energy:   -76.06521019250073
    Total Energy =                        -76.0652101925007287
  Basis Set: (AUG-CC-PVQZ AUX)
  @DF-RHF Final Energy:   -76.05992686503193
    Total Energy =                        -76.0599268650319118
  @DF-RHF Final Energy:   -76.06523819600120
    Total Energy =                        -76.0652381960011894
  @DF-RHF Final Energy:   -95.25550621379321
    Total Energy =                        -95.2555062137932111
  @DF-RHF Final Energy:   -95.26144892741245
    Total Energy =                        -95.2614489274124452
  @DF-RHF Final Energy:   -95.25544773198754
    Total Energy =                        -95.2554477319875446
  @DF-RHF Final Energy:   -95.26142897775982
    Total Energy =                        -95.2614289777598202
  Multiplicity = 1
  @DF-RHF Final Energy:  -171.32285908020043
    Total Energy =                       -171.3228590802004305
	 Singles Energy            =      -0.0000000000000000 [Eh]
	 Same-Spin Energy          =      -0.1664200581937269 [Eh]
	 Opposite-Spin Energy      =      -0.5706059659805781 [Eh]
	 Correlation Energy        =      -0.7370260241743050 [Eh]
	 Total Energy              =    -172.0598851043747288 [Eh]
	 SCS Total Energy          =    -172.0630595921083739 [Eh]
    Molecular point group: c1

    Geometry (in Angstrom), charge = 0, multiplicity = 1:

       Center              X                  Y                   Z               Mass
    ------------   -----------------  -----------------  -----------------  -----------------
         N           -0.804368630264    -0.692196871142    -0.357248714232    14.003074004430
         H           -0.900055630264    -1.661027871142    -0.081395714232     1.007825032230
         H           -1.393508630264    -0.578761871142    -1.172008714232     1.007825032230
         C           -1.287813630264     0.175883128858     0.723128285768    12.000000000000
         H           -1.183664630264     1.212949128858     0.415276285768     1.007825032230
         H           -2.325641630264     0.002479128858     1.014259285768     1.007825032230
         H           -0.655927630264     0.036198128858     1.596369285768     1.007825032230
         O            1.858031369736     0.518521128858    -0.253488714232    15.994914619570
         H            1.040514369736     0.022249128858    -0.426641714232     1.007825032230
         H            2.439933369736     0.260023128858    -0.969234714232     1.007825032230

  Charge       = 0
  Multiplicity = 1
  Basis Set: AUG-CC-PVQZ
    Blend: AUG-CC-PVQZ
  Basis Set: (AUG-CC-PVQZ AUX)
    Blend: AUG-CC-PVQZ-JKFIT

    Orbital Energies [Eh]
    ---------------------

    Doubly Occupied:

       1A    -20.524566     2A    -15.558573     3A    -11.248354
       4A     -1.312857     5A     -1.189679     6A     -0.908832
       7A     -0.684637     8A     -0.679666     9A     -0.615791
      10A     -0.569020    11A     -0.551538    12A     -0.528510
      13A     -0.472952    14A     -0.416479

  @DF-RHF Final Energy:  -171.33413134006105

   => Energetics <=

    Nuclear Repulsion Energy =             81.5158771201406154
    One-Electron Energy =                -395.1771067003787721
    Two-Electron Energy =                 142.3270982401771221
    Total Energy =                       -171.3341313400610488

  Dipole Moment: [D]
     X:    -2.4428      Y:    -1.7638      Z:    -1.0654     Total:     3.1958

  Basis Set: (AUG-CC-PVQZ AUX)
    Blend: AUG-CC-PVQZ-RI
	 Reference Energy          =    -171.3341313400610488 [Eh]
	 Singles Energy            =      -0.0000000000000000 [Eh]
	 Same-Spin Energy          =      -0.1764334648976471 [Eh]
	 Opposite-Spin Energy      =      -0.6395742740762866 [Eh]
	 Correlation Energy        =      -0.8160077389739337 [Eh]
	 Total Energy              =    -172.1501390790349717 [Eh]

	 ================> DF-SCS-MP2 Energies <==================
	-----------------------------------------------------------
	 SCS Same-Spin Scale       =       0.3333333333333333 [-]
	 SCS Opposite-Spin Scale   =       1.2000000000000000 [-]
	 SCS Same-Spin Energy      =      -0.0588111549658824 [Eh]
	 SCS Opposite-Spin Energy  =      -0.7674891288915440 [Eh]
	 SCS Correlation Energy    =      -0.8263002838574264 [Eh]
	 SCS Total Energy          =    -172.1604316239184698 [Eh]
	-----------------------------------------------------------

*** Psi4 exiting successfully. Buy a developer a beer!
