                               Psi4 1.4a2.dev224

  ==> Input File <==

--------------------------------------------------------------------------
#Generated by lconvert.py for cbs job

memory 20 GB

molecule  {
0 1
  N      -0.533460   -0.279590    0.107000
  H      -0.629150   -1.248420    0.382850
  H      -1.122600   -0.166160   -0.707760
  C      -1.016910    0.588490    1.187370
  H      -0.912760    1.625550    0.879520
  H      -2.054740    0.415080    1.478500
  H      -0.385020    0.448800    2.060610
--
0 1
  O       3.235960    1.359830    0.169110
  H       2.418440    0.863550   -0.004040
  H       3.817860    1.101330   -0.546630
units angstrom
no_reorient
symmetry c1
}

set {
scf_type DF
mp2_type DF
e_convergence 7
reference rhf
}

energy('mp2/aug-cc-pv[tq]z', bsse_type='cp')
--------------------------------------------------------------------------

    Molecular point group: c1
  Charge       = 0
  Multiplicity = 1
  Basis Set: AUG-CC-PVTZ
    Blend: AUG-CC-PVTZ
  Basis Set: (AUG-CC-PVTZ AUX)
    Blend: AUG-CC-PVTZ-JKFIT
  @DF-RHF Final Energy:   -76.05985447985617
    Total Energy =                        -76.0598544798561704
  Basis Set: (AUG-CC-PVTZ AUX)
    Blend: AUG-CC-PVTZ-RI
	 Reference Energy          =     -76.0598544798561704 [Eh]
	 Singles Energy            =      -0.0000000000000000 [Eh]
	 Same-Spin Energy          =      -0.0684807479696330 [Eh]
	 Opposite-Spin Energy      =      -0.2155935704514572 [Eh]
	 Correlation Energy        =      -0.2840743184210902 [Eh]
	 Total Energy              =     -76.3439287982772612 [Eh]
	 SCS Total Energy          =     -76.3413936803877959 [Eh]
    Molecular point group: c1
  Basis Set: AUG-CC-PVQZ
    Blend: AUG-CC-PVQZ
  Basis Set: (AUG-CC-PVQZ AUX)
    Blend: AUG-CC-PVQZ-JKFIT
  @DF-RHF Final Energy:   -76.06520999956466
    Total Energy =                        -76.0652099995646580
  Basis Set: (AUG-CC-PVQZ AUX)
  @DF-RHF Final Energy:   -76.05987251722512
    Total Energy =                        -76.0598725172251164
  @DF-RHF Final Energy:   -76.06521878103364
    Total Energy =                        -76.0652187810336358
  @DF-RHF Final Energy:   -95.25546438543469
    Total Energy =                        -95.2554643854346921
  @DF-RHF Final Energy:   -95.26143558712818
    Total Energy =                        -95.2614355871281759
  @DF-RHF Final Energy:   -95.25544779797960
    Total Energy =                        -95.2554477979795990
  @DF-RHF Final Energy:   -95.26142905078390
    Total Energy =                        -95.2614290507839030
  Multiplicity = 1
  @DF-RHF Final Energy:  -171.31889058236041
    Total Energy =                       -171.3188905823604102
	 Singles Energy            =      -0.0000000000000000 [Eh]
	 Same-Spin Energy          =      -0.1642506252920185 [Eh]
	 Opposite-Spin Energy      =      -0.5679157425062140 [Eh]
	 Correlation Energy        =      -0.7321663677982325 [Eh]
	 Total Energy              =    -172.0510569501586531 [Eh]
	 SCS Total Energy          =    -172.0551396817985506 [Eh]
    Molecular point group: c1

    Geometry (in Angstrom), charge = 0, multiplicity = 1:

       Center              X                  Y                   Z               Mass
    ------------   -----------------  -----------------  -----------------  -----------------
         N           -1.210828401239    -0.849601536092    -0.341954180803    14.003074004430
         H           -1.306518401239    -1.818431536092    -0.066104180803     1.007825032230
         H           -1.799968401239    -0.736171536092    -1.156714180803     1.007825032230
         C           -1.694278401239     0.018478463908     0.738415819197    12.000000000000
         H           -1.590128401239     1.055538463908     0.430565819197     1.007825032230
         H           -2.732108401239    -0.154931536092     1.029545819197     1.007825032230
         H           -1.062388401239    -0.121211536092     1.611655819197     1.007825032230
         O            2.558591598761     0.789818463908    -0.279844180803    15.994914619570
         H            1.741071598761     0.293538463908    -0.452994180803     1.007825032230
         H            3.140491598761     0.531318463908    -0.995584180803     1.007825032230

  Charge       = 0
  Multiplicity = 1
  Basis Set: AUG-CC-PVQZ
    Blend: AUG-CC-PVQZ
  Basis Set: (AUG-CC-PVQZ AUX)
    Blend: AUG-CC-PVQZ-JKFIT

    Orbital Energies [Eh]
    ---------------------

    Doubly Occupied:

       1A    -20.551515     2A    -15.547290     3A    -11.244230
       4A     -1.334976     5A     -1.177594     6A     -0.902468
       7A     -0.697875     8A     -0.669303     9A     -0.610836
      10A     -0.571023    11A     -0.562151    12A     -0.523056
      13A     -0.495926    14A     -0.403379

  @DF-RHF Final Energy:  -171.33020309670530

   => Energetics <=

    Nuclear Repulsion Energy =             73.3417078282583645
    One-Electron Energy =                -378.7605775658894345
    Two-Electron Energy =                 134.0886666409257941
    Total Energy =                       -171.3302030967053042

  Dipole Moment: [D]
     X:    -1.9868      Y:    -1.6354      Z:    -1.1360     Total:     2.8129

  Basis Set: (AUG-CC-PVQZ AUX)
    Blend: AUG-CC-PVQZ-RI
	 Reference Energy          =    -171.3302030967053042 [Eh]
	 Singles Energy            =      -0.0000000000000000 [Eh]
	 Same-Spin Energy          =      -0.1742726372073997 [Eh]
	 Opposite-Spin Energy      =      -0.6374188428310461 [Eh]
	 Correlation Energy        =      -0.8116914800384458 [Eh]
	 Total Energy              =    -172.1418945767437378 [Eh]

	 ================> DF-SCS-MP2 Energies <==================
	-----------------------------------------------------------
	 SCS Same-Spin Scale       =       0.3333333333333333 [-]
	 SCS Opposite-Spin Scale   =       1.2000000000000000 [-]
	 SCS Same-Spin Energy      =      -0.0580908790691332 [Eh]
	 SCS Opposite-Spin Energy  =      -0.7649026113972553 [Eh]
	 SCS Correlation Energy    =      -0.8229934904663886 [Eh]
	 SCS Total Energy          =    -172.1531965871716920 [Eh]
	-----------------------------------------------------------

*** Psi4 exiting successfully. Buy a developer a beer!
