                               Psi4 1.4a2.dev224

  ==> Input File <==

--------------------------------------------------------------------------
#Generated by lconvert.py for cbs job

memory 20 GB

molecule  {
0 1
  N      -0.533460   -0.279590    0.107000
  H      -0.629150   -1.248420    0.382850
  H      -1.122600   -0.166160   -0.707760
  C      -1.016910    0.588490    1.187370
  H      -0.912760    1.625550    0.879520
  H      -2.054740    0.415080    1.478500
  H      -0.385020    0.448800    2.060610
--
0 1
  O       3.789420    1.574160    0.148290
  H       2.971910    1.077880   -0.024860
  H       4.371320    1.315660   -0.567450
units angstrom
no_reorient
symmetry c1
}

set {
scf_type DF
mp2_type DF
e_convergence 7
reference rhf
}

energy('mp2/aug-cc-pv[tq]z', bsse_type='cp')
--------------------------------------------------------------------------

    Molecular point group: c1
  Charge       = 0
  Multiplicity = 1
  Basis Set: AUG-CC-PVTZ
    Blend: AUG-CC-PVTZ
  Basis Set: (AUG-CC-PVTZ AUX)
    Blend: AUG-CC-PVTZ-JKFIT
  @DF-RHF Final Energy:   -76.05985496135897
    Total Energy =                        -76.0598549613589796
  Basis Set: (AUG-CC-PVTZ AUX)
    Blend: AUG-CC-PVTZ-RI
	 Reference Energy          =     -76.0598549613589654 [Eh]
	 Singles Energy            =      -0.0000000000000000 [Eh]
	 Same-Spin Energy          =      -0.0684806805460399 [Eh]
	 Opposite-Spin Energy      =      -0.2155933586129334 [Eh]
	 Correlation Energy        =      -0.2840740391589733 [Eh]
	 Total Energy              =     -76.3439290005179316 [Eh]
	 SCS Total Energy          =     -76.3413938852098255 [Eh]
    Molecular point group: c1
  Basis Set: AUG-CC-PVQZ
    Blend: AUG-CC-PVQZ
  Basis Set: (AUG-CC-PVQZ AUX)
    Blend: AUG-CC-PVQZ-JKFIT
  @DF-RHF Final Energy:   -76.06521050172945
    Total Energy =                        -76.0652105017294673
  Basis Set: (AUG-CC-PVQZ AUX)
  @DF-RHF Final Energy:   -76.05986615598547
    Total Energy =                        -76.0598661559854605
  @DF-RHF Final Energy:   -76.06521506869962
    Total Energy =                        -76.0652150686996151
  @DF-RHF Final Energy:   -95.25545581591410
    Total Energy =                        -95.2554558159141038
  @DF-RHF Final Energy:   -95.26143328539604
    Total Energy =                        -95.2614332853960377
  @DF-RHF Final Energy:   -95.25544779802409
    Total Energy =                        -95.2554477980240932
  @DF-RHF Final Energy:   -95.26142905068130
    Total Energy =                        -95.2614290506813006
  Multiplicity = 1
  @DF-RHF Final Energy:  -171.31741456463953
    Total Energy =                       -171.3174145646395345
	 Singles Energy            =      -0.0000000000000000 [Eh]
	 Same-Spin Energy          =      -0.1640325895964283 [Eh]
	 Opposite-Spin Energy      =      -0.5675575130140149 [Eh]
	 Correlation Energy        =      -0.7315901026104432 [Eh]
	 Total Energy              =    -172.0490046672499886 [Eh]
	 SCS Total Energy          =    -172.0531611101218346 [Eh]
    Molecular point group: c1

    Geometry (in Angstrom), charge = 0, multiplicity = 1:

       Center              X                  Y                   Z               Mass
    ------------   -----------------  -----------------  -----------------  -----------------
         N           -1.414040950869    -0.928296476515    -0.334309760239    14.003074004430
         H           -1.509730950869    -1.897126476515    -0.058459760239     1.007825032230
         H           -2.003180950869    -0.814866476515    -1.149069760239     1.007825032230
         C           -1.897490950869    -0.060216476515     0.746060239761    12.000000000000
         H           -1.793340950869     0.976843523485     0.438210239761     1.007825032230
         H           -2.935320950869    -0.233626476515     1.037190239761     1.007825032230
         H           -1.265600950869    -0.199906476515     1.619300239761     1.007825032230
         O            2.908839049131     0.925453523485    -0.293019760239    15.994914619570
         H            2.091329049131     0.429173523485    -0.466169760239     1.007825032230
         H            3.490739049131     0.666953523485    -1.008759760239     1.007825032230

  Charge       = 0
  Multiplicity = 1
  Basis Set: AUG-CC-PVQZ
    Blend: AUG-CC-PVQZ
  Basis Set: (AUG-CC-PVQZ AUX)
    Blend: AUG-CC-PVQZ-JKFIT

    Orbital Energies [Eh]
    ---------------------

    Doubly Occupied:

       1A    -20.555950     2A    -15.544524     3A    -11.243114
       4A     -1.339195     5A     -1.175198     6A     -0.900989
       7A     -0.702075     8A     -0.667085     9A     -0.608956
      10A     -0.574921    11A     -0.560535    12A     -0.521690
      13A     -0.500034    14A     -0.400418

  @DF-RHF Final Energy:  -171.32873687564862

   => Energetics <=

    Nuclear Repulsion Energy =             70.6921520571463589
    One-Electron Energy =                -373.4524049784381532
    Two-Electron Energy =                 131.4315160456431784
    Total Energy =                       -171.3287368756486160

  Dipole Moment: [D]
     X:    -1.9051      Y:    -1.6195      Z:    -1.1569     Total:     2.7551

  Basis Set: (AUG-CC-PVQZ AUX)
    Blend: AUG-CC-PVQZ-RI
	 Reference Energy          =    -171.3287368756486160 [Eh]
	 Singles Energy            =      -0.0000000000000000 [Eh]
	 Same-Spin Energy          =      -0.1740688543822061 [Eh]
	 Opposite-Spin Energy      =      -0.6372055939370400 [Eh]
	 Correlation Energy        =      -0.8112744483192461 [Eh]
	 Total Energy              =    -172.1400113239678547 [Eh]

	 ================> DF-SCS-MP2 Energies <==================
	-----------------------------------------------------------
	 SCS Same-Spin Scale       =       0.3333333333333333 [-]
	 SCS Opposite-Spin Scale   =       1.2000000000000000 [-]
	 SCS Same-Spin Energy      =      -0.0580229514607354 [Eh]
	 SCS Opposite-Spin Energy  =      -0.7646467127244480 [Eh]
	 SCS Correlation Energy    =      -0.8226696641851833 [Eh]
	 SCS Total Energy          =    -172.1514065398338005 [Eh]
	-----------------------------------------------------------

*** Psi4 exiting successfully. Buy a developer a beer!
