                               Psi4 1.4a2.dev224

  ==> Input File <==

--------------------------------------------------------------------------
#Generated by lconvert.py for cbs job

memory 20 GB

molecule  {
0 1
  N      -0.533460   -0.279590    0.107000
  H      -0.629150   -1.248420    0.382850
  H      -1.122600   -0.166160   -0.707760
  C      -1.016910    0.588490    1.187370
  H      -0.912760    1.625550    0.879520
  H      -2.054740    0.415080    1.478500
  H      -0.385020    0.448800    2.060610
--
0 1
  O       2.682490    1.145490    0.189930
  H       1.864980    0.649220    0.016780
  H       3.264390    0.886990   -0.525810
units angstrom
no_reorient
symmetry c1
}

set {
scf_type DF
mp2_type DF
e_convergence 7
reference rhf
}

energy('mp2/aug-cc-pv[tq]z', bsse_type='cp')
--------------------------------------------------------------------------

    Molecular point group: c1
  Charge       = 0
  Multiplicity = 1
  Basis Set: AUG-CC-PVTZ
    Blend: AUG-CC-PVTZ
  Basis Set: (AUG-CC-PVTZ AUX)
    Blend: AUG-CC-PVTZ-JKFIT
  @DF-RHF Final Energy:   -76.05985528585384
    Total Energy =                        -76.0598552858538426
  Basis Set: (AUG-CC-PVTZ AUX)
    Blend: AUG-CC-PVTZ-RI
	 Reference Energy          =     -76.0598552858538426 [Eh]
	 Singles Energy            =      -0.0000000000000000 [Eh]
	 Same-Spin Energy          =      -0.0684806315101627 [Eh]
	 Opposite-Spin Energy      =      -0.2155932078084742 [Eh]
	 Correlation Energy        =      -0.2840738393186369 [Eh]
	 Total Energy              =     -76.3439291251724796 [Eh]
	 SCS Total Energy          =     -76.3413940123940620 [Eh]
    Molecular point group: c1
  Basis Set: AUG-CC-PVQZ
    Blend: AUG-CC-PVQZ
  Basis Set: (AUG-CC-PVQZ AUX)
    Blend: AUG-CC-PVQZ-JKFIT
  @DF-RHF Final Energy:   -76.06521083832614
    Total Energy =                        -76.0652108383261236
  Basis Set: (AUG-CC-PVQZ AUX)
  @DF-RHF Final Energy:   -76.05989170960964
    Total Energy =                        -76.0598917096096443
  @DF-RHF Final Energy:   -76.06522705073624
    Total Energy =                        -76.0652270507362402
  @DF-RHF Final Energy:   -95.25547535913184
    Total Energy =                        -95.2554753591318359
  @DF-RHF Final Energy:   -95.26144139357372
    Total Energy =                        -95.2614413935737190
  @DF-RHF Final Energy:   -95.25544779786597
    Total Energy =                        -95.2554477978659691
  @DF-RHF Final Energy:   -95.26142905079752
    Total Energy =                        -95.2614290507975170
  Multiplicity = 1
  @DF-RHF Final Energy:  -171.32141353692106
    Total Energy =                       -171.3214135369210567
	 Singles Energy            =      -0.0000000000000000 [Eh]
	 Same-Spin Energy          =      -0.1648250479757356 [Eh]
	 Opposite-Spin Energy      =      -0.5686939382398506 [Eh]
	 Correlation Energy        =      -0.7335189862155862 [Eh]
	 Total Energy              =    -172.0549325231366424 [Eh]
	 SCS Total Energy          =    -172.0587879454674578 [Eh]
    Molecular point group: c1

    Geometry (in Angstrom), charge = 0, multiplicity = 1:

       Center              X                  Y                   Z               Mass
    ------------   -----------------  -----------------  -----------------  -----------------
         N           -1.007612590852    -0.770903129454    -0.349598601368    14.003074004430
         H           -1.103302590852    -1.739733129454    -0.073748601368     1.007825032230
         H           -1.596752590852    -0.657473129454    -1.164358601368     1.007825032230
         C           -1.491062590852     0.097176870546     0.730771398632    12.000000000000
         H           -1.386912590852     1.134236870546     0.422921398632     1.007825032230
         H           -2.528892590852    -0.076233129454     1.021901398632     1.007825032230
         H           -0.859172590852    -0.042513129454     1.604011398632     1.007825032230
         O            2.208337409148     0.654176870546    -0.266668601368    15.994914619570
         H            1.390827409148     0.157906870546    -0.439818601368     1.007825032230
         H            2.790237409148     0.395676870546    -0.982408601368     1.007825032230

  Charge       = 0
  Multiplicity = 1
  Basis Set: AUG-CC-PVQZ
    Blend: AUG-CC-PVQZ
  Basis Set: (AUG-CC-PVQZ AUX)
    Blend: AUG-CC-PVQZ-JKFIT

    Orbital Energies [Eh]
    ---------------------

    Doubly Occupied:

       1A    -20.543128     2A    -15.551761     3A    -11.245854
       4A     -1.327409     5A     -1.181711     6A     -0.904793
       7A     -0.691123     8A     -0.672993     9A     -0.613771
      10A     -0.565884    11A     -0.562965    12A     -0.525128
      13A     -0.488419    14A     -0.408572

  @DF-RHF Final Energy:  -171.33272172875058

   => Energetics <=

    Nuclear Repulsion Energy =             76.8041758838227935
    One-Electron Energy =                -385.7067682697118585
    Two-Electron Energy =                 137.5698706571384946
    Total Energy =                       -171.3327217287505846

  Dipole Moment: [D]
     X:    -2.1389      Y:    -1.6720      Z:    -1.1055     Total:     2.9313

  Basis Set: (AUG-CC-PVQZ AUX)
    Blend: AUG-CC-PVQZ-RI
	 Reference Energy          =    -171.3327217287505846 [Eh]
	 Singles Energy            =      -0.0000000000000000 [Eh]
	 Same-Spin Energy          =      -0.1748340404084012 [Eh]
	 Opposite-Spin Energy      =      -0.6380002453032543 [Eh]
	 Correlation Energy        =      -0.8128342857116555 [Eh]
	 Total Energy              =    -172.1455560144622439 [Eh]

	 ================> DF-SCS-MP2 Energies <==================
	-----------------------------------------------------------
	 SCS Same-Spin Scale       =       0.3333333333333333 [-]
	 SCS Opposite-Spin Scale   =       1.2000000000000000 [-]
	 SCS Same-Spin Energy      =      -0.0582780134694671 [Eh]
	 SCS Opposite-Spin Energy  =      -0.7656002943639051 [Eh]
	 SCS Correlation Energy    =      -0.8238783078333721 [Eh]
	 SCS Total Energy          =    -172.1566000365839670 [Eh]
	-----------------------------------------------------------

*** Psi4 exiting successfully. Buy a developer a beer!
