                               Psi4 1.4a2.dev224

  ==> Input File <==

--------------------------------------------------------------------------
#Generated by lconvert.py for cbs job

memory 40 GB

molecule  {
0 1
  N       -0.5334640    -0.2795940     0.1069960
  H       -0.6291510    -1.2484250     0.3828490
  H       -1.1226040    -0.1661590    -0.7077640
  C       -1.0169090     0.5884860     1.1873730
  H       -0.9127600     1.6255520     0.8795210
  H       -2.0547370     0.4150820     1.4785040
  H       -0.3850230     0.4488010     2.0606140
--
0 1
  O        1.9445410     0.8597160     0.2176910
  H        1.1270240     0.3634430     0.0445390
  H        2.5264430     0.6012180    -0.4980550
units angstrom
no_reorient
symmetry c1
}

set {
scf_type DF
mp2_type DF
e_convergence 7
reference rhf
}

energy('mp2/aug-cc-pv[tq]z', bsse_type='cp')
--------------------------------------------------------------------------

    Molecular point group: c1
  Charge       = 0
  Multiplicity = 1
  Basis Set: AUG-CC-PVTZ
    Blend: AUG-CC-PVTZ
  Basis Set: (AUG-CC-PVTZ AUX)
    Blend: AUG-CC-PVTZ-JKFIT
  @DF-RHF Final Energy:   -76.05985465353083
    Total Energy =                        -76.0598546535308344
  Basis Set: (AUG-CC-PVTZ AUX)
    Blend: AUG-CC-PVTZ-RI
	 Reference Energy          =     -76.0598546535308344 [Eh]
	 Singles Energy            =      -0.0000000000000000 [Eh]
	 Same-Spin Energy          =      -0.0684807435560655 [Eh]
	 Opposite-Spin Energy      =      -0.2155935525676011 [Eh]
	 Correlation Energy        =      -0.2840742961236666 [Eh]
	 Total Energy              =     -76.3439289496544973 [Eh]
	 SCS Total Energy          =     -76.3413938311306453 [Eh]
    Molecular point group: c1
  Basis Set: AUG-CC-PVQZ
    Blend: AUG-CC-PVQZ
  Basis Set: (AUG-CC-PVQZ AUX)
    Blend: AUG-CC-PVQZ-JKFIT
  @DF-RHF Final Energy:   -76.06521017385315
    Total Energy =                        -76.0652101738531456
  Basis Set: (AUG-CC-PVQZ AUX)
  @DF-RHF Final Energy:   -76.05994761929981
    Total Energy =                        -76.0599476192998054
  @DF-RHF Final Energy:   -76.06524376083169
    Total Energy =                        -76.0652437608316916
  @DF-RHF Final Energy:   -95.25552897293248
    Total Energy =                        -95.2555289729324812
  @DF-RHF Final Energy:   -95.26145271272806
    Total Energy =                        -95.2614527127280581
  @DF-RHF Final Energy:   -95.25544773201267
    Total Energy =                        -95.2554477320126693
  @DF-RHF Final Energy:   -95.26142897777834
    Total Energy =                        -95.2614289777783370
  Multiplicity = 1
  @DF-RHF Final Energy:  -171.32056826283954
    Total Energy =                       -171.3205682628395436
	 Singles Energy            =      -0.0000000000000000 [Eh]
	 Same-Spin Energy          =      -0.1674143049752469 [Eh]
	 Opposite-Spin Energy      =      -0.5716733965689695 [Eh]
	 Correlation Energy        =      -0.7390877015442164 [Eh]
	 Total Energy              =    -172.0596559643837509 [Eh]
	 SCS Total Energy          =    -172.0623811070474005 [Eh]
    Molecular point group: c1

    Geometry (in Angstrom), charge = 0, multiplicity = 1:

       Center              X                  Y                   Z               Mass
    ------------   -----------------  -----------------  -----------------  -----------------
         N           -0.736664839197    -0.665978177029    -0.359795039130    14.003074004430
         H           -0.832351839197    -1.634809177029    -0.083942039130     1.007825032230
         H           -1.325804839197    -0.552543177029    -1.174555039130     1.007825032230
         C           -1.220109839197     0.202101822971     0.720581960870    12.000000000000
         H           -1.115960839197     1.239167822971     0.412729960870     1.007825032230
         H           -2.257937839197     0.028697822971     1.011712960870     1.007825032230
         H           -0.588223839197     0.062416822971     1.593822960870     1.007825032230
         O            1.741340160803     0.473331822971    -0.249100039130    15.994914619570
         H            0.923823160803    -0.022941177029    -0.422252039130     1.007825032230
         H            2.323242160803     0.214833822971    -0.964846039130     1.007825032230

  Charge       = 0
  Multiplicity = 1
  Basis Set: AUG-CC-PVQZ
    Blend: AUG-CC-PVQZ
  Basis Set: (AUG-CC-PVQZ AUX)
    Blend: AUG-CC-PVQZ-JKFIT

    Orbital Energies [Eh]
    ---------------------

    Doubly Occupied:

       1A    -20.513625     2A    -15.561454     3A    -11.249539
       4A     -1.305751     5A     -1.194054     6A     -0.910960
       7A     -0.686718     8A     -0.683154     9A     -0.613806
      10A     -0.570393    11A     -0.546508    12A     -0.530182
      13A     -0.464438    14A     -0.418387

  @DF-RHF Final Energy:  -171.33179558362488

   => Energetics <=

    Nuclear Repulsion Energy =             83.4872347234067007
    One-Electron Energy =                -399.1401202441581404
    Two-Electron Energy =                 144.3210899371265725
    Total Energy =                       -171.3317955836248814

  Dipole Moment: [D]
     X:    -2.6073      Y:    -1.8190      Z:    -1.0499     Total:     3.3480

  Basis Set: (AUG-CC-PVQZ AUX)
    Blend: AUG-CC-PVQZ-RI
	 Reference Energy          =    -171.3317955836248814 [Eh]
	 Singles Energy            =      -0.0000000000000000 [Eh]
	 Same-Spin Energy          =      -0.1774470900723818 [Eh]
	 Opposite-Spin Energy      =      -0.6405683493208071 [Eh]
	 Correlation Energy        =      -0.8180154393931889 [Eh]
	 Total Energy              =    -172.1498110230180600 [Eh]

	 ================> DF-SCS-MP2 Energies <==================
	-----------------------------------------------------------
	 SCS Same-Spin Scale       =       0.3333333333333333 [-]
	 SCS Opposite-Spin Scale   =       1.2000000000000000 [-]
	 SCS Same-Spin Energy      =      -0.0591490300241273 [Eh]
	 SCS Opposite-Spin Energy  =      -0.7686820191849685 [Eh]
	 SCS Correlation Energy    =      -0.8278310492090958 [Eh]
	 SCS Total Energy          =    -172.1596266328339766 [Eh]
	-----------------------------------------------------------

*** Psi4 exiting successfully. Buy a developer a beer!
