                               Psi4 1.4a2.dev224

  ==> Input File <==

--------------------------------------------------------------------------
#Generated by lconvert.py for cbs job

memory 40 GB

molecule  {
0 1
  N       -0.5334640    -0.2795940     0.1069960
  H       -0.6291510    -1.2484250     0.3828490
  H       -1.1226040    -0.1661590    -0.7077640
  C       -1.0169090     0.5884860     1.1873730
  H       -0.9127600     1.6255520     0.8795210
  H       -2.0547370     0.4150820     1.4785040
  H       -0.3850230     0.4488010     2.0606140
--
0 1
  O        2.0367850     0.8954380     0.2142220
  H        1.2192680     0.3991650     0.0410690
  H        2.6186870     0.6369400    -0.5015240
units angstrom
no_reorient
symmetry c1
}

set {
scf_type DF
mp2_type DF
e_convergence 7
reference rhf
}

energy('mp2/aug-cc-pv[tq]z', bsse_type='cp')
--------------------------------------------------------------------------

    Molecular point group: c1
  Charge       = 0
  Multiplicity = 1
  Basis Set: AUG-CC-PVTZ
    Blend: AUG-CC-PVTZ
  Basis Set: (AUG-CC-PVTZ AUX)
    Blend: AUG-CC-PVTZ-JKFIT
  @DF-RHF Final Energy:   -76.05985463892978
    Total Energy =                        -76.0598546389297780
  Basis Set: (AUG-CC-PVTZ AUX)
    Blend: AUG-CC-PVTZ-RI
	 Reference Energy          =     -76.0598546389297780 [Eh]
	 Singles Energy            =      -0.0000000000000000 [Eh]
	 Same-Spin Energy          =      -0.0684807460957937 [Eh]
	 Opposite-Spin Energy      =      -0.2155935601000540 [Eh]
	 Correlation Energy        =      -0.2840743061958478 [Eh]
	 Total Energy              =     -76.3439289451256258 [Eh]
	 SCS Total Energy          =     -76.3413938264151142 [Eh]
    Molecular point group: c1
  Basis Set: AUG-CC-PVQZ
    Blend: AUG-CC-PVQZ
  Basis Set: (AUG-CC-PVQZ AUX)
    Blend: AUG-CC-PVQZ-JKFIT
  @DF-RHF Final Energy:   -76.06521015886942
    Total Energy =                        -76.0652101588694194
  Basis Set: (AUG-CC-PVQZ AUX)
  @DF-RHF Final Energy:   -76.05993668263514
    Total Energy =                        -76.0599366826351400
  @DF-RHF Final Energy:   -76.06524097718057
    Total Energy =                        -76.0652409771805651
  @DF-RHF Final Energy:   -95.25551684897574
    Total Energy =                        -95.2555168489757449
  @DF-RHF Final Energy:   -95.26145100840284
    Total Energy =                        -95.2614510084028439
  @DF-RHF Final Energy:   -95.25544773201450
    Total Energy =                        -95.2554477320145025
  @DF-RHF Final Energy:   -95.26142897783836
    Total Energy =                        -95.2614289778383636
  Multiplicity = 1
  @DF-RHF Final Energy:  -171.32209822521065
    Total Energy =                       -171.3220982252106523
	 Singles Energy            =      -0.0000000000000000 [Eh]
	 Same-Spin Energy          =      -0.1668775393582503 [Eh]
	 Opposite-Spin Energy      =      -0.5711079058403487 [Eh]
	 Correlation Energy        =      -0.7379854451985990 [Eh]
	 Total Energy              =    -172.0600836704092558 [Eh]
	 SCS Total Energy          =    -172.0630535586718111 [Eh]
    Molecular point group: c1

    Geometry (in Angstrom), charge = 0, multiplicity = 1:

       Center              X                  Y                   Z               Mass
    ------------   -----------------  -----------------  -----------------  -----------------
         N           -0.770533808004    -0.679094122822    -0.358521315657    14.003074004430
         H           -0.866220808004    -1.647925122822    -0.082668315657     1.007825032230
         H           -1.359673808004    -0.565659122822    -1.173281315657     1.007825032230
         C           -1.253978808004     0.188985877178     0.721855684343    12.000000000000
         H           -1.149829808004     1.226051877178     0.414003684343     1.007825032230
         H           -2.291806808004     0.015581877178     1.012986684343     1.007825032230
         H           -0.622092808004     0.049300877178     1.595096684343     1.007825032230
         O            1.799715191996     0.495937877178    -0.251295315657    15.994914619570
         H            0.982198191996    -0.000335122822    -0.424448315657     1.007825032230
         H            2.381617191996     0.237439877178    -0.967041315657     1.007825032230

  Charge       = 0
  Multiplicity = 1
  Basis Set: AUG-CC-PVQZ
    Blend: AUG-CC-PVQZ
  Basis Set: (AUG-CC-PVQZ AUX)
    Blend: AUG-CC-PVQZ-JKFIT

    Orbital Energies [Eh]
    ---------------------

    Doubly Occupied:

       1A    -20.519523     2A    -15.559969     3A    -11.248915
       4A     -1.309440     5A     -1.191719     6A     -0.909822
       7A     -0.685108     8A     -0.681283     9A     -0.615124
      10A     -0.569730    11A     -0.549028    12A     -0.529298
      13A     -0.468979    14A     -0.417623

  @DF-RHF Final Energy:  -171.33334905964185

   => Energetics <=

    Nuclear Repulsion Energy =             82.4704191170283281
    One-Electron Energy =                -397.0964091759234975
    Two-Electron Energy =                 143.2926409992533365
    Total Energy =                       -171.3333490596418471

  Dipole Moment: [D]
     X:    -2.5196      Y:    -1.7893      Z:    -1.0578     Total:     3.2663

  Basis Set: (AUG-CC-PVQZ AUX)
    Blend: AUG-CC-PVQZ-RI
	 Reference Energy          =    -171.3333490596418471 [Eh]
	 Singles Energy            =      -0.0000000000000000 [Eh]
	 Same-Spin Energy          =      -0.1768990155854061 [Eh]
	 Opposite-Spin Energy      =      -0.6400317318425468 [Eh]
	 Correlation Energy        =      -0.8169307474279529 [Eh]
	 Total Energy              =    -172.1502798070698077 [Eh]

	 ================> DF-SCS-MP2 Energies <==================
	-----------------------------------------------------------
	 SCS Same-Spin Scale       =       0.3333333333333333 [-]
	 SCS Opposite-Spin Scale   =       1.2000000000000000 [-]
	 SCS Same-Spin Energy      =      -0.0589663385284687 [Eh]
	 SCS Opposite-Spin Energy  =      -0.7680380782110562 [Eh]
	 SCS Correlation Energy    =      -0.8270044167395249 [Eh]
	 SCS Total Energy          =    -172.1603534763813741 [Eh]
	-----------------------------------------------------------

*** Psi4 exiting successfully. Buy a developer a beer!
