                               Psi4 1.4a2.dev224

  ==> Input File <==

--------------------------------------------------------------------------
#Generated by lconvert.py for cbs job

memory 40 GB

molecule  {
0 1
  N       -0.5334640    -0.2795940     0.1069960
  H       -0.6291510    -1.2484250     0.3828490
  H       -1.1226040    -0.1661590    -0.7077640
  C       -1.0169090     0.5884860     1.1873730
  H       -0.9127600     1.6255520     0.8795210
  H       -2.0547370     0.4150820     1.4785040
  H       -0.3850230     0.4488010     2.0606140
--
0 1
  O        1.5754720     0.7167910     0.2315740
  H        0.7579540     0.2205180     0.0584210
  H        2.1573730     0.4582930    -0.4841730
units angstrom
no_reorient
symmetry c1
}

set {
scf_type DF
mp2_type DF
e_convergence 7
reference rhf
}

energy('mp2/aug-cc-pv[tq]z', bsse_type='cp')
--------------------------------------------------------------------------

    Molecular point group: c1
  Charge       = 0
  Multiplicity = 1
  Basis Set: AUG-CC-PVTZ
    Blend: AUG-CC-PVTZ
  Basis Set: (AUG-CC-PVTZ AUX)
    Blend: AUG-CC-PVTZ-JKFIT
  @DF-RHF Final Energy:   -76.05985458074608
    Total Energy =                        -76.0598545807460908
  Basis Set: (AUG-CC-PVTZ AUX)
    Blend: AUG-CC-PVTZ-RI
	 Reference Energy          =     -76.0598545807460766 [Eh]
	 Singles Energy            =      -0.0000000000000000 [Eh]
	 Same-Spin Energy          =      -0.0684807554283969 [Eh]
	 Opposite-Spin Energy      =      -0.2155935887249366 [Eh]
	 Correlation Energy        =      -0.2840743441533335 [Eh]
	 Total Energy              =     -76.3439289248994157 [Eh]
	 SCS Total Energy          =     -76.3413938056921353 [Eh]
    Molecular point group: c1
  Basis Set: AUG-CC-PVQZ
    Blend: AUG-CC-PVQZ
  Basis Set: (AUG-CC-PVQZ AUX)
    Blend: AUG-CC-PVQZ-JKFIT
  @DF-RHF Final Energy:   -76.06521009834481
    Total Energy =                        -76.0652100983448065
  Basis Set: (AUG-CC-PVQZ AUX)
  @DF-RHF Final Energy:   -76.06000085553590
    Total Energy =                        -76.0600008555359040
  @DF-RHF Final Energy:   -76.06525544362377
    Total Energy =                        -76.0652554436237835
  @DF-RHF Final Energy:   -95.25556638720096
    Total Energy =                        -95.2555663872009575
  @DF-RHF Final Energy:   -95.26146198834711
    Total Energy =                        -95.2614619883471079
  @DF-RHF Final Energy:   -95.25544773200616
    Total Energy =                        -95.2554477320061608
  @DF-RHF Final Energy:   -95.26142897778942
    Total Energy =                        -95.2614289777894214
  Multiplicity = 1
  @DF-RHF Final Energy:  -171.29670772252149
    Total Energy =                       -171.2967077225214894
	 Singles Energy            =      -0.0000000000000000 [Eh]
	 Same-Spin Energy          =      -0.1705509019026738 [Eh]
	 Opposite-Spin Energy      =      -0.5748800647379667 [Eh]
	 Correlation Energy        =      -0.7454309666406405 [Eh]
	 Total Energy              =    -172.0421386891621296 [Eh]
	 SCS Total Energy          =    -172.0434141008412610 [Eh]
    Molecular point group: c1

    Geometry (in Angstrom), charge = 0, multiplicity = 1:

       Center              X                  Y                   Z               Mass
    ------------   -----------------  -----------------  -----------------  -----------------
         N           -0.601154776331    -0.613500808672    -0.364892379916    14.003074004430
         H           -0.696841776331    -1.582331808672    -0.089039379916     1.007825032230
         H           -1.190294776331    -0.500065808672    -1.179652379916     1.007825032230
         C           -1.084599776331     0.254579191328     0.715484620084    12.000000000000
         H           -0.980450776331     1.291645191328     0.407632620084     1.007825032230
         H           -2.122427776331     0.081175191328     1.006615620084     1.007825032230
         H           -0.452713776331     0.114894191328     1.588725620084     1.007825032230
         O            1.507781223669     0.382884191328    -0.240314379916    15.994914619570
         H            0.690263223669    -0.113388808672    -0.413467379916     1.007825032230
         H            2.089682223669     0.124386191328    -0.956061379916     1.007825032230

  Charge       = 0
  Multiplicity = 1
  Basis Set: AUG-CC-PVQZ
    Blend: AUG-CC-PVQZ
  Basis Set: (AUG-CC-PVQZ AUX)
    Blend: AUG-CC-PVQZ-JKFIT

    Orbital Energies [Eh]
    ---------------------

    Doubly Occupied:

       1A    -20.478563     2A    -15.568338     3A    -11.252843
       4A     -1.292856     5A     -1.205208     6A     -0.917763
       7A     -0.711238     8A     -0.694998     9A     -0.603864
      10A     -0.568962    11A     -0.539373    12A     -0.534931
      13A     -0.439355    14A     -0.410485

  @DF-RHF Final Energy:  -171.30791926429117

   => Energetics <=

    Nuclear Repulsion Energy =             88.3121285779182870
    One-Electron Energy =                -408.8025446579034110
    Two-Electron Energy =                 149.1824968156939804
    Total Energy =                       -171.3079192642911721

  Dipole Moment: [D]
     X:    -3.0934      Y:    -1.9897      Z:    -1.0129     Total:     3.8149

  Basis Set: (AUG-CC-PVQZ AUX)
    Blend: AUG-CC-PVQZ-RI
	 Reference Energy          =    -171.3079192642911721 [Eh]
	 Singles Energy            =      -0.0000000000000000 [Eh]
	 Same-Spin Energy          =      -0.1806348405184583 [Eh]
	 Opposite-Spin Energy      =      -0.6436582568195726 [Eh]
	 Correlation Energy        =      -0.8242930973380309 [Eh]
	 Total Energy              =    -172.1322123616292004 [Eh]

	 ================> DF-SCS-MP2 Energies <==================
	-----------------------------------------------------------
	 SCS Same-Spin Scale       =       0.3333333333333333 [-]
	 SCS Opposite-Spin Scale   =       1.2000000000000000 [-]
	 SCS Same-Spin Energy      =      -0.0602116135061528 [Eh]
	 SCS Opposite-Spin Energy  =      -0.7723899081834871 [Eh]
	 SCS Correlation Energy    =      -0.8326015216896399 [Eh]
	 SCS Total Energy          =    -172.1405207859808115 [Eh]
	-----------------------------------------------------------

*** Psi4 exiting successfully. Buy a developer a beer!
