                               Psi4 1.4a2.dev224

  ==> Input File <==

--------------------------------------------------------------------------
#Generated by lconvert.py for cbs job

memory 40 GB

molecule  {
0 1
  N       -0.5334640    -0.2795940     0.1069960
  H       -0.6291510    -1.2484250     0.3828490
  H       -1.1226040    -0.1661590    -0.7077640
  C       -1.0169090     0.5884860     1.1873730
  H       -0.9127600     1.6255520     0.8795210
  H       -2.0547370     0.4150820     1.4785040
  H       -0.3850230     0.4488010     2.0606140
--
0 1
  O        2.3135180     1.0026050     0.2038130
  H        1.4960010     0.5063320     0.0306600
  H        2.8954190     0.7441070    -0.5119330
units angstrom
no_reorient
symmetry c1
}

set {
scf_type DF
mp2_type DF
e_convergence 7
reference rhf
}

energy('mp2/aug-cc-pv[tq]z', bsse_type='cp')
--------------------------------------------------------------------------

    Molecular point group: c1
  Charge       = 0
  Multiplicity = 1
  Basis Set: AUG-CC-PVTZ
    Blend: AUG-CC-PVTZ
  Basis Set: (AUG-CC-PVTZ AUX)
    Blend: AUG-CC-PVTZ-JKFIT
  @DF-RHF Final Energy:   -76.05985465545646
    Total Energy =                        -76.0598546554564763
  Basis Set: (AUG-CC-PVTZ AUX)
    Blend: AUG-CC-PVTZ-RI
	 Reference Energy          =     -76.0598546554564621 [Eh]
	 Singles Energy            =      -0.0000000000000000 [Eh]
	 Same-Spin Energy          =      -0.0684807416248253 [Eh]
	 Opposite-Spin Energy      =      -0.2155935463531739 [Eh]
	 Correlation Energy        =      -0.2840742879779992 [Eh]
	 Total Energy              =     -76.3439289434344630 [Eh]
	 SCS Total Energy          =     -76.3413938249552189 [Eh]
    Molecular point group: c1
  Basis Set: AUG-CC-PVQZ
    Blend: AUG-CC-PVQZ
  Basis Set: (AUG-CC-PVQZ AUX)
    Blend: AUG-CC-PVQZ-JKFIT
  @DF-RHF Final Energy:   -76.06521017701407
    Total Energy =                        -76.0652101770140661
  Basis Set: (AUG-CC-PVQZ AUX)
  @DF-RHF Final Energy:   -76.05991117711316
    Total Energy =                        -76.0599111771131504
  @DF-RHF Final Energy:   -76.06523302104158
    Total Energy =                        -76.0652330210415784
  @DF-RHF Final Energy:   -95.25548923974084
    Total Energy =                        -95.2554892397408395
  @DF-RHF Final Energy:   -95.26144507427399
    Total Energy =                        -95.2614450742739933
  @DF-RHF Final Energy:   -95.25544773202425
    Total Energy =                        -95.2554477320242512
  @DF-RHF Final Energy:   -95.26142897776401
    Total Energy =                        -95.2614289777640124
  Multiplicity = 1
  @DF-RHF Final Energy:  -171.32303547545794
    Total Energy =                       -171.3230354754579423
	 Singles Energy            =      -0.0000000000000000 [Eh]
	 Same-Spin Energy          =      -0.1657018155814112 [Eh]
	 Opposite-Spin Energy      =      -0.5697779999875545 [Eh]
	 Correlation Energy        =      -0.7354798155689657 [Eh]
	 Total Energy              =    -172.0585152910269073 [Eh]
	 SCS Total Energy          =    -172.0620030139701555 [Eh]
    Molecular point group: c1

    Geometry (in Angstrom), charge = 0, multiplicity = 1:

       Center              X                  Y                   Z               Mass
    ------------   -----------------  -----------------  -----------------  -----------------
         N           -0.872141061046    -0.718442327367    -0.354699472542    14.003074004430
         H           -0.967828061046    -1.687273327367    -0.078846472542     1.007825032230
         H           -1.461281061046    -0.605007327367    -1.169459472542     1.007825032230
         C           -1.355586061046     0.149637672633     0.725677527458    12.000000000000
         H           -1.251437061046     1.186703672633     0.417825527458     1.007825032230
         H           -2.393414061046    -0.023766327367     1.016808527458     1.007825032230
         H           -0.723700061046     0.009952672633     1.598918527458     1.007825032230
         O            1.974840938954     0.563756672633    -0.257882472542    15.994914619570
         H            1.157323938954     0.067483672633    -0.431035472542     1.007825032230
         H            2.556741938954     0.305258672633    -0.973628472542     1.007825032230

  Charge       = 0
  Multiplicity = 1
  Basis Set: AUG-CC-PVQZ
    Blend: AUG-CC-PVQZ
  Basis Set: (AUG-CC-PVQZ AUX)
    Blend: AUG-CC-PVQZ-JKFIT

    Orbital Energies [Eh]
    ---------------------

    Doubly Occupied:

       1A    -20.532619     2A    -15.556014     3A    -11.247379
       4A     -1.318791     5A     -1.186336     6A     -0.907187
       7A     -0.685860     8A     -0.676942     9A     -0.615786
      10A     -0.567636    11A     -0.556216    12A     -0.527166
      13A     -0.479485    14A     -0.413737

  @DF-RHF Final Energy:  -171.33433450331333

   => Energetics <=

    Nuclear Repulsion Energy =             79.7666702779985002
    One-Electron Energy =                -391.6596976449648650
    Two-Electron Energy =                 140.5586928636530217
    Total Energy =                       -171.3343345033133289

  Dipole Moment: [D]
     X:    -2.3157      Y:    -1.7232      Z:    -1.0797     Total:     3.0818

  Basis Set: (AUG-CC-PVQZ AUX)
    Blend: AUG-CC-PVQZ-RI
	 Reference Energy          =    -171.3343345033133289 [Eh]
	 Singles Energy            =      -0.0000000000000000 [Eh]
	 Same-Spin Energy          =      -0.1757069962492743 [Eh]
	 Opposite-Spin Energy      =      -0.6388572947517939 [Eh]
	 Correlation Energy        =      -0.8145642910010682 [Eh]
	 Total Energy              =    -172.1488987943143911 [Eh]

	 ================> DF-SCS-MP2 Energies <==================
	-----------------------------------------------------------
	 SCS Same-Spin Scale       =       0.3333333333333333 [-]
	 SCS Opposite-Spin Scale   =       1.2000000000000000 [-]
	 SCS Same-Spin Energy      =      -0.0585689987497581 [Eh]
	 SCS Opposite-Spin Energy  =      -0.7666287537021527 [Eh]
	 SCS Correlation Energy    =      -0.8251977524519107 [Eh]
	 SCS Total Energy          =    -172.1595322557652423 [Eh]
	-----------------------------------------------------------

*** Psi4 exiting successfully. Buy a developer a beer!
