                               Psi4 1.4a2.dev224

  ==> Input File <==

--------------------------------------------------------------------------
#Generated by lconvert.py for cbs job

memory 40 GB

molecule  {
0 1
  C       -0.8493170    -0.3394990     2.4917170
  H        0.1843440    -0.0110470     2.4161850
  H       -0.8824980    -1.3420510     2.9127030
  H       -1.3908030     0.3168780     3.1684290
  C       -1.5640320    -0.3533230     1.1594750
  O       -2.7495260    -0.6515380     1.0567610
  N       -0.8016540    -0.0273550     0.0883420
  H        0.1611880     0.2403600     0.2187140
  C       -1.3853500    -0.0023510    -1.2341370
  H       -1.8916170    -0.9428010    -1.4400960
  H       -2.1199720     0.7962120    -1.3308800
  H       -0.5946460     0.1495710    -1.9631280
--
0 1
  O        2.2619870     0.2527540     0.4685770
  H        2.9828420     0.8800540     0.5589910
  C        2.7810720    -1.0526110     0.7024580
  H        1.9485000    -1.7413990     0.5968820
  H        3.5472100    -1.3216040    -0.0244220
  H        3.1891690    -1.1540600     1.7080930
units angstrom
no_reorient
symmetry c1
}

set {
scf_type DF
mp2_type DF
e_convergence 7
reference rhf
}

energy('mp2/aug-cc-pv[tq]z', bsse_type='cp')
--------------------------------------------------------------------------

    Molecular point group: c1
  Charge       = 0
  Multiplicity = 1
  Basis Set: AUG-CC-PVTZ
    Blend: AUG-CC-PVTZ
  Basis Set: (AUG-CC-PVTZ AUX)
    Blend: AUG-CC-PVTZ-JKFIT
  @DF-RHF Final Energy:  -115.09208384638239
    Total Energy =                       -115.0920838463823941
  Basis Set: (AUG-CC-PVTZ AUX)
    Blend: AUG-CC-PVTZ-RI
	 Reference Energy          =    -115.0920838463823941 [Eh]
	 Singles Energy            =      -0.0000000000000000 [Eh]
	 Same-Spin Energy          =      -0.1057418950930100 [Eh]
	 Opposite-Spin Energy      =      -0.3646745401623498 [Eh]
	 Correlation Energy        =      -0.4704164352553599 [Eh]
	 Total Energy              =    -115.5625002816377531 [Eh]
	 SCS Total Energy          =    -115.5649405929415536 [Eh]
    Molecular point group: c1
  Basis Set: AUG-CC-PVQZ
    Blend: AUG-CC-PVQZ
  Basis Set: (AUG-CC-PVQZ AUX)
    Blend: AUG-CC-PVQZ-JKFIT
  @DF-RHF Final Energy:  -115.09959727846619
    Total Energy =                       -115.0995972784661916
  Basis Set: (AUG-CC-PVQZ AUX)
  @DF-RHF Final Energy:  -115.09219199461977
    Total Energy =                       -115.0921919946197676
  @DF-RHF Final Energy:  -115.09964926827686
    Total Energy =                       -115.0996492682768633
  @DF-RHF Final Energy:  -247.10306359223659
    Total Energy =                       -247.1030635922365946
  @DF-RHF Final Energy:  -247.11843063783252
    Total Energy =                       -247.1184306378324891
  @DF-RHF Final Energy:  -247.10296750080707
    Total Energy =                       -247.1029675008070399
  @DF-RHF Final Energy:  -247.11841139199356
    Total Energy =                       -247.1184113919935612
  Multiplicity = 1
  @DF-RHF Final Energy:  -362.20087898169237
    Total Energy =                       -362.2008789816923695
	 Singles Energy            =      -0.0000000000000000 [Eh]
	 Same-Spin Energy          =      -0.3545182077879646 [Eh]
	 Opposite-Spin Energy      =      -1.1787305331432925 [Eh]
	 Correlation Energy        =      -1.5332487409312572 [Eh]
	 Total Energy              =    -363.7341277226236116 [Eh]
	 SCS Total Energy          =    -363.7335283573936522 [Eh]
    Molecular point group: c1

    Geometry (in Angstrom), charge = 0, multiplicity = 1:

       Center              X                  Y                   Z               Mass
    ------------   -----------------  -----------------  -----------------  -----------------
         C           -0.601299738952    -0.035944644548     1.826087044292    12.000000000000
         H            0.432361261048     0.292507355452     1.750555044292     1.007825032230
         H           -0.634480738952    -1.038496644548     2.247073044292     1.007825032230
         H           -1.142785738952     0.620432355452     2.502799044292     1.007825032230
         C           -1.316014738952    -0.049768644548     0.493845044292    12.000000000000
         O           -2.501508738952    -0.347983644548     0.391131044292    15.994914619570
         N           -0.553636738952     0.276199355452    -0.577287955708    14.003074004430
         H            0.409205261048     0.543914355452    -0.446915955708     1.007825032230
         C           -1.137332738952     0.301203355452    -1.899766955708    12.000000000000
         H           -1.643599738952    -0.639246644548    -2.105725955708     1.007825032230
         H           -1.871954738952     1.099766355452    -1.996509955708     1.007825032230
         H           -0.346628738952     0.453125355452    -2.628757955708     1.007825032230
         O            2.510004261048     0.556308355452    -0.197052955708    15.994914619570
         H            3.230859261048     1.183608355452    -0.106638955708     1.007825032230
         C            3.029089261048    -0.749056644548     0.036828044292    12.000000000000
         H            2.196517261048    -1.437844644548    -0.068747955708     1.007825032230
         H            3.795227261048    -1.018049644548    -0.690051955708     1.007825032230
         H            3.437186261048    -0.850505644548     1.042463044292     1.007825032230

  Charge       = 0
  Multiplicity = 1
  Basis Set: AUG-CC-PVQZ
    Blend: AUG-CC-PVQZ
  Basis Set: (AUG-CC-PVQZ AUX)
    Blend: AUG-CC-PVQZ-JKFIT

    Orbital Energies [Eh]
    ---------------------

    Doubly Occupied:

       1A    -20.585330     2A    -20.494606     3A    -15.564467
       4A    -11.329758     5A    -11.290246     6A    -11.243649
       7A    -11.221092     8A     -1.385947     9A     -1.358275
      10A     -1.212888    11A     -1.004763    12A     -0.949281
      13A     -0.918343    14A     -0.776423    15A     -0.718575
      16A     -0.675576    17A     -0.646384    18A     -0.637329
      19A     -0.621508    20A     -0.617813    21A     -0.571946
      22A     -0.565569    23A     -0.546188    24A     -0.535716
      25A     -0.527522    26A     -0.486596    27A     -0.479843
      28A     -0.406857    29A     -0.376663

  @DF-RHF Final Energy:  -362.22373073079075

   => Energetics <=

    Nuclear Repulsion Energy =            312.1864853908544433
    One-Electron Energy =               -1113.3221352132068205
    Two-Electron Energy =                 438.9119190915616855
    Total Energy =                       -362.2237307307907486

  Dipole Moment: [D]
     X:     6.4899      Y:     0.7513      Z:    -0.1394     Total:     6.5347

  Basis Set: (AUG-CC-PVQZ AUX)
    Blend: AUG-CC-PVQZ-RI
	 Reference Energy          =    -362.2237307307907486 [Eh]
	 Singles Energy            =      -0.0000000000000000 [Eh]
	 Same-Spin Energy          =      -0.3760049259709941 [Eh]
	 Opposite-Spin Energy      =      -1.3232923647085229 [Eh]
	 Correlation Energy        =      -1.6992972906795170 [Eh]
	 Total Energy              =    -363.9230280214702589 [Eh]

	 ================> DF-SCS-MP2 Energies <==================
	-----------------------------------------------------------
	 SCS Same-Spin Scale       =       0.3333333333333333 [-]
	 SCS Opposite-Spin Scale   =       1.2000000000000000 [-]
	 SCS Same-Spin Energy      =      -0.1253349753236647 [Eh]
	 SCS Opposite-Spin Energy  =      -1.5879508376502274 [Eh]
	 SCS Correlation Energy    =      -1.7132858129738922 [Eh]
	 SCS Total Energy          =    -363.9370165437646278 [Eh]
	-----------------------------------------------------------

*** Psi4 exiting successfully. Buy a developer a beer!
