                               Psi4 1.4a2.dev224

  ==> Input File <==

--------------------------------------------------------------------------
#Generated by lconvert.py for cbs job

memory 40 GB

molecule  {
0 1
  C       -0.8493170    -0.3394990     2.4917170
  H        0.1843440    -0.0110470     2.4161850
  H       -0.8824980    -1.3420510     2.9127030
  H       -1.3908030     0.3168780     3.1684290
  C       -1.5640320    -0.3533230     1.1594750
  O       -2.7495260    -0.6515380     1.0567610
  N       -0.8016540    -0.0273550     0.0883420
  H        0.1611880     0.2403600     0.2187140
  C       -1.3853500    -0.0023510    -1.2341370
  H       -1.8916170    -0.9428010    -1.4400960
  H       -2.1199720     0.7962120    -1.3308800
  H       -0.5946460     0.1495710    -1.9631280
--
0 1
  O        2.1618550     0.2521640     0.4566670
  H        2.8827100     0.8794630     0.5470820
  C        2.6809390    -1.0532020     0.6905490
  H        1.8483670    -1.7419900     0.5849720
  H        3.4470780    -1.3221950    -0.0363320
  H        3.0890360    -1.1546510     1.6961830
units angstrom
no_reorient
symmetry c1
}

set {
scf_type DF
mp2_type DF
e_convergence 7
reference rhf
}

energy('mp2/aug-cc-pv[tq]z', bsse_type='cp')
--------------------------------------------------------------------------

    Molecular point group: c1
  Charge       = 0
  Multiplicity = 1
  Basis Set: AUG-CC-PVTZ
    Blend: AUG-CC-PVTZ
  Basis Set: (AUG-CC-PVTZ AUX)
    Blend: AUG-CC-PVTZ-JKFIT
  @DF-RHF Final Energy:  -115.09208384648457
    Total Energy =                       -115.0920838464845701
  Basis Set: (AUG-CC-PVTZ AUX)
    Blend: AUG-CC-PVTZ-RI
	 Reference Energy          =    -115.0920838464845701 [Eh]
	 Singles Energy            =      -0.0000000000000000 [Eh]
	 Same-Spin Energy          =      -0.1057418895970182 [Eh]
	 Opposite-Spin Energy      =      -0.3646745412170234 [Eh]
	 Correlation Energy        =      -0.4704164308140416 [Eh]
	 Total Energy              =    -115.5625002772986107 [Eh]
	 SCS Total Energy          =    -115.5649405924773419 [Eh]
    Molecular point group: c1
  Basis Set: AUG-CC-PVQZ
    Blend: AUG-CC-PVQZ
  Basis Set: (AUG-CC-PVQZ AUX)
    Blend: AUG-CC-PVQZ-JKFIT
  @DF-RHF Final Energy:  -115.09959727836618
    Total Energy =                       -115.0995972783661756
  Basis Set: (AUG-CC-PVQZ AUX)
  @DF-RHF Final Energy:  -115.09220471361810
    Total Energy =                       -115.0922047136181021
  @DF-RHF Final Energy:  -115.09965234046149
    Total Energy =                       -115.0996523404614891
  @DF-RHF Final Energy:  -247.10307214369030
    Total Energy =                       -247.1030721436902695
  @DF-RHF Final Energy:  -247.11843239701923
    Total Energy =                       -247.1184323970192054
  @DF-RHF Final Energy:  -247.10296750108074
    Total Energy =                       -247.1029675010807409
  @DF-RHF Final Energy:  -247.11841139178847
    Total Energy =                       -247.1184113917884702
  Multiplicity = 1
  @DF-RHF Final Energy:  -362.20043362924065
    Total Energy =                       -362.2004336292406492
	 Singles Energy            =      -0.0000000000000000 [Eh]
	 Same-Spin Energy          =      -0.3549426041524442 [Eh]
	 Opposite-Spin Energy      =      -1.1792980017977444 [Eh]
	 Correlation Energy        =      -1.5342406059501885 [Eh]
	 Total Energy              =    -363.7346742351908233 [Eh]
	 SCS Total Energy          =    -363.7339054327820804 [Eh]
    Molecular point group: c1

    Geometry (in Angstrom), charge = 0, multiplicity = 1:

       Center              X                  Y                   Z               Mass
    ------------   -----------------  -----------------  -----------------  -----------------
         C           -0.570781142429    -0.035764670415     1.829716877917    12.000000000000
         H            0.462879857571     0.292687329585     1.754184877917     1.007825032230
         H           -0.603962142429    -1.038316670415     2.250702877917     1.007825032230
         H           -1.112267142429     0.620612329585     2.506428877917     1.007825032230
         C           -1.285496142429    -0.049588670415     0.497474877917    12.000000000000
         O           -2.470990142429    -0.347803670415     0.394760877917    15.994914619570
         N           -0.523118142429     0.276379329585    -0.573658122083    14.003074004430
         H            0.439723857571     0.544094329585    -0.443286122083     1.007825032230
         C           -1.106814142429     0.301383329585    -1.896137122083    12.000000000000
         H           -1.613081142429    -0.639066670415    -2.102096122083     1.007825032230
         H           -1.841436142429     1.099946329585    -1.992880122083     1.007825032230
         H           -0.316110142429     0.453305329585    -2.625128122083     1.007825032230
         O            2.440390857571     0.555898329585    -0.205333122083    15.994914619570
         H            3.161245857571     1.183197329585    -0.114918122083     1.007825032230
         C            2.959474857571    -0.749467670415     0.028548877917    12.000000000000
         H            2.126902857571    -1.438255670415    -0.077028122083     1.007825032230
         H            3.725613857571    -1.018460670415    -0.698332122083     1.007825032230
         H            3.367571857571    -0.850916670415     1.034182877917     1.007825032230

  Charge       = 0
  Multiplicity = 1
  Basis Set: AUG-CC-PVQZ
    Blend: AUG-CC-PVQZ
  Basis Set: (AUG-CC-PVQZ AUX)
    Blend: AUG-CC-PVQZ-JKFIT

    Orbital Energies [Eh]
    ---------------------

    Doubly Occupied:

       1A    -20.587209     2A    -20.493548     3A    -15.562129
       4A    -11.328628     5A    -11.291325     6A    -11.242682
       7A    -11.220483     8A     -1.388391     9A     -1.357210
      10A     -1.211434    11A     -1.003993    12A     -0.950674
      13A     -0.917406    14A     -0.776648    15A     -0.720102
      16A     -0.674756    17A     -0.648119    18A     -0.636627
      19A     -0.621714    20A     -0.617851    21A     -0.571247
      22A     -0.564749    23A     -0.546665    24A     -0.535286
      25A     -0.526750    26A     -0.485743    27A     -0.481712
      28A     -0.405857    29A     -0.375209

  @DF-RHF Final Energy:  -362.22327808185759

   => Energetics <=

    Nuclear Repulsion Energy =            314.3079664857153830
    One-Electron Energy =               -1117.5741992035559633
    Two-Electron Energy =                 441.0429546359829942
    Total Energy =                       -362.2232780818575861

  Dipole Moment: [D]
     X:     6.5635      Y:     0.7564      Z:    -0.1411     Total:     6.6084

  Basis Set: (AUG-CC-PVQZ AUX)
    Blend: AUG-CC-PVQZ-RI
	 Reference Energy          =    -362.2232780818575861 [Eh]
	 Singles Energy            =      -0.0000000000000000 [Eh]
	 Same-Spin Energy          =      -0.3764207396690421 [Eh]
	 Opposite-Spin Energy      =      -1.3237139138939806 [Eh]
	 Correlation Energy        =      -1.7001346535630226 [Eh]
	 Total Energy              =    -363.9234127354205839 [Eh]

	 ================> DF-SCS-MP2 Energies <==================
	-----------------------------------------------------------
	 SCS Same-Spin Scale       =       0.3333333333333333 [-]
	 SCS Opposite-Spin Scale   =       1.2000000000000000 [-]
	 SCS Same-Spin Energy      =      -0.1254735798896807 [Eh]
	 SCS Opposite-Spin Energy  =      -1.5884566966727767 [Eh]
	 SCS Correlation Energy    =      -1.7139302765624573 [Eh]
	 SCS Total Energy          =    -363.9372083584200368 [Eh]
	-----------------------------------------------------------

*** Psi4 exiting successfully. Buy a developer a beer!
