                               Psi4 1.4a2.dev224

  ==> Input File <==

--------------------------------------------------------------------------
#Generated by lconvert.py for cbs job

memory 40 GB

molecule  {
0 1
  C       -0.8493170    -0.3394990     2.4917170
  H        0.1843440    -0.0110470     2.4161850
  H       -0.8824980    -1.3420510     2.9127030
  H       -1.3908030     0.3168780     3.1684290
  C       -1.5640320    -0.3533230     1.1594750
  O       -2.7495260    -0.6515380     1.0567610
  N       -0.8016540    -0.0273550     0.0883420
  H        0.1611880     0.2403600     0.2187140
  C       -1.3853500    -0.0023510    -1.2341370
  H       -1.8916170    -0.9428010    -1.4400960
  H       -2.1199720     0.7962120    -1.3308800
  H       -0.5946460     0.1495710    -1.9631280
--
0 1
  O        1.5616550     0.2486230     0.3852810
  H        2.2825090     0.8759220     0.4756960
  C        2.0807390    -1.0567430     0.6191630
  H        1.2481670    -1.7455310     0.5135860
  H        2.8468770    -1.3257360    -0.1077180
  H        2.4888360    -1.1581920     1.6247970
units angstrom
no_reorient
symmetry c1
}

set {
scf_type DF
mp2_type DF
e_convergence 7
reference rhf
}

energy('mp2/aug-cc-pv[tq]z', bsse_type='cp')
--------------------------------------------------------------------------

    Molecular point group: c1
  Charge       = 0
  Multiplicity = 1
  Basis Set: AUG-CC-PVTZ
    Blend: AUG-CC-PVTZ
  Basis Set: (AUG-CC-PVTZ AUX)
    Blend: AUG-CC-PVTZ-JKFIT
  @DF-RHF Final Energy:  -115.09208388551015
    Total Energy =                       -115.0920838855101493
  Basis Set: (AUG-CC-PVTZ AUX)
    Blend: AUG-CC-PVTZ-RI
	 Reference Energy          =    -115.0920838855101493 [Eh]
	 Singles Energy            =      -0.0000000000000000 [Eh]
	 Same-Spin Energy          =      -0.1057418811427528 [Eh]
	 Opposite-Spin Energy      =      -0.3646745129276109 [Eh]
	 Correlation Energy        =      -0.4704163940703637 [Eh]
	 Total Energy              =    -115.5625002795805187 [Eh]
	 SCS Total Energy          =    -115.5649405947375357 [Eh]
    Molecular point group: c1
  Basis Set: AUG-CC-PVQZ
    Blend: AUG-CC-PVQZ
  Basis Set: (AUG-CC-PVQZ AUX)
    Blend: AUG-CC-PVQZ-JKFIT
  @DF-RHF Final Energy:  -115.09959731961033
    Total Energy =                       -115.0995973196103250
  Basis Set: (AUG-CC-PVQZ AUX)
  @DF-RHF Final Energy:  -115.09230180044155
    Total Energy =                       -115.0923018004415468
  @DF-RHF Final Energy:  -115.09968123135208
    Total Energy =                       -115.0996812313520792
  @DF-RHF Final Energy:  -247.10314856749403
    Total Energy =                       -247.1031485674940313
  @DF-RHF Final Energy:  -247.11844812984884
    Total Energy =                       -247.1184481298488436
  @DF-RHF Final Energy:  -247.10296750005446
    Total Energy =                       -247.1029675000544898
  @DF-RHF Final Energy:  -247.11841139223333
    Total Energy =                       -247.1184113922333268
  Multiplicity = 1
  @DF-RHF Final Energy:  -362.17496846807938
    Total Energy =                       -362.1749684680793848
	 Singles Energy            =      -0.0000000000000000 [Eh]
	 Same-Spin Energy          =      -0.3597545865247092 [Eh]
	 Opposite-Spin Energy      =      -1.1846633984556127 [Eh]
	 Correlation Energy        =      -1.5444179849803219 [Eh]
	 Total Energy              =    -363.7193864530597125 [Eh]
	 SCS Total Energy          =    -363.7164827417343531 [Eh]
    Molecular point group: c1

    Geometry (in Angstrom), charge = 0, multiplicity = 1:

       Center              X                  Y                   Z               Mass
    ------------   -----------------  -----------------  -----------------  -----------------
         C           -0.387850775536    -0.034685436225     1.851474068523    12.000000000000
         H            0.645810224464     0.293766563775     1.775942068523     1.007825032230
         H           -0.421031775536    -1.037237436225     2.272460068523     1.007825032230
         H           -0.929336775536     0.621691563775     2.528186068523     1.007825032230
         C           -1.102565775536    -0.048509436225     0.519232068523    12.000000000000
         O           -2.288059775536    -0.346724436225     0.416518068523    15.994914619570
         N           -0.340187775536     0.277458563775    -0.551900931477    14.003074004430
         H            0.622654224464     0.545173563775    -0.421528931477     1.007825032230
         C           -0.923883775536     0.302462563775    -1.874379931477    12.000000000000
         H           -1.430150775536    -0.637987436225    -2.080338931477     1.007825032230
         H           -1.658505775536     1.101025563775    -1.971122931477     1.007825032230
         H           -0.133179775536     0.454384563775    -2.603370931477     1.007825032230
         O            2.023121224464     0.553436563775    -0.254961931477    15.994914619570
         H            2.743975224464     1.180735563775    -0.164546931477     1.007825032230
         C            2.542205224464    -0.751929436225    -0.021079931477    12.000000000000
         H            1.709633224464    -1.440717436225    -0.126656931477     1.007825032230
         H            3.308343224464    -1.020922436225    -0.747960931477     1.007825032230
         H            2.950302224464    -0.853378436225     0.984554068523     1.007825032230

  Charge       = 0
  Multiplicity = 1
  Basis Set: AUG-CC-PVQZ
    Blend: AUG-CC-PVQZ
  Basis Set: (AUG-CC-PVQZ AUX)
    Blend: AUG-CC-PVQZ-JKFIT

    Orbital Energies [Eh]
    ---------------------

    Doubly Occupied:

       1A    -20.604827     2A    -20.482499     3A    -15.532489
       4A    -11.316705     5A    -11.301589     6A    -11.232748
       7A    -11.215935     8A     -1.418994     9A     -1.346011
      10A     -1.196962    11A     -0.997419    12A     -0.965399
      13A     -0.909354    14A     -0.808714    15A     -0.720921
      16A     -0.672886    17A     -0.667049    18A     -0.635886
      19A     -0.617869    20A     -0.608596    21A     -0.566718
      22A     -0.564672    23A     -0.553715    24A     -0.527882
      25A     -0.505945    26A     -0.496618    27A     -0.477058
      28A     -0.395102    29A     -0.359248

  @DF-RHF Final Energy:  -362.19770881010260

   => Energetics <=

    Nuclear Repulsion Energy =            329.3411422208657200
    One-Electron Energy =               -1147.6780897262165126
    Two-Electron Energy =                 456.1392386952481388
    Total Energy =                       -362.1977088101025970

  Dipole Moment: [D]
     X:     7.3451      Y:     0.8101      Z:    -0.1265     Total:     7.3907

  Basis Set: (AUG-CC-PVQZ AUX)
    Blend: AUG-CC-PVQZ-RI
	 Reference Energy          =    -362.1977088101025970 [Eh]
	 Singles Energy            =      -0.0000000000000000 [Eh]
	 Same-Spin Energy          =      -0.3812705612739026 [Eh]
	 Opposite-Spin Energy      =      -1.3285031406112289 [Eh]
	 Correlation Energy        =      -1.7097737018851316 [Eh]
	 Total Energy              =    -363.9074825119877232 [Eh]

	 ================> DF-SCS-MP2 Energies <==================
	-----------------------------------------------------------
	 SCS Same-Spin Scale       =       0.3333333333333333 [-]
	 SCS Opposite-Spin Scale   =       1.2000000000000000 [-]
	 SCS Same-Spin Energy      =      -0.1270901870913008 [Eh]
	 SCS Opposite-Spin Energy  =      -1.5942037687334747 [Eh]
	 SCS Correlation Energy    =      -1.7212939558247755 [Eh]
	 SCS Total Energy          =    -363.9190027659273596 [Eh]
	-----------------------------------------------------------

*** Psi4 exiting successfully. Buy a developer a beer!
