                               Psi4 1.4a2.dev224

  ==> Input File <==

--------------------------------------------------------------------------
#Generated by lconvert.py for cbs job

memory 40 GB

molecule  {
0 1
  C       -0.8493170    -0.3394990     2.4917170
  H        0.1843440    -0.0110470     2.4161850
  H       -0.8824980    -1.3420510     2.9127030
  H       -1.3908030     0.3168780     3.1684290
  C       -1.5640320    -0.3533230     1.1594750
  O       -2.7495260    -0.6515380     1.0567610
  N       -0.8016540    -0.0273550     0.0883420
  H        0.1611880     0.2403600     0.2187140
  C       -1.3853500    -0.0023510    -1.2341370
  H       -1.8916170    -0.9428010    -1.4400960
  H       -2.1199720     0.7962120    -1.3308800
  H       -0.5946460     0.1495710    -1.9631280
--
0 1
  O        2.3620210     0.2533450     0.4804740
  H        3.0828760     0.8806440     0.5708890
  C        2.8811050    -1.0520210     0.7143560
  H        2.0485330    -1.7408090     0.6087800
  H        3.6472440    -1.3210140    -0.0125250
  H        3.2892020    -1.1534700     1.7199910
units angstrom
no_reorient
symmetry c1
}

set {
scf_type DF
mp2_type DF
e_convergence 7
reference rhf
}

energy('mp2/aug-cc-pv[tq]z', bsse_type='cp')
--------------------------------------------------------------------------

    Molecular point group: c1
  Charge       = 0
  Multiplicity = 1
  Basis Set: AUG-CC-PVTZ
    Blend: AUG-CC-PVTZ
  Basis Set: (AUG-CC-PVTZ AUX)
    Blend: AUG-CC-PVTZ-JKFIT
  @DF-RHF Final Energy:  -115.09208384074604
    Total Energy =                       -115.0920838407460423
  Basis Set: (AUG-CC-PVTZ AUX)
    Blend: AUG-CC-PVTZ-RI
	 Reference Energy          =    -115.0920838407460423 [Eh]
	 Singles Energy            =      -0.0000000000000000 [Eh]
	 Same-Spin Energy          =      -0.1057418893110087 [Eh]
	 Opposite-Spin Energy      =      -0.3646745456805074 [Eh]
	 Correlation Energy        =      -0.4704164349915161 [Eh]
	 Total Energy              =    -115.5625002757375626 [Eh]
	 SCS Total Energy          =    -115.5649405919996582 [Eh]
    Molecular point group: c1
  Basis Set: AUG-CC-PVQZ
    Blend: AUG-CC-PVQZ
  Basis Set: (AUG-CC-PVQZ AUX)
    Blend: AUG-CC-PVQZ-JKFIT
  @DF-RHF Final Energy:  -115.09959727198249
    Total Energy =                       -115.0995972719824891
  Basis Set: (AUG-CC-PVQZ AUX)
  @DF-RHF Final Energy:  -115.09218111181171
    Total Energy =                       -115.0921811118117120
  @DF-RHF Final Energy:  -115.09964606386821
    Total Energy =                       -115.0996460638682066
  @DF-RHF Final Energy:  -247.10305575563615
    Total Energy =                       -247.1030557556361487
  @DF-RHF Final Energy:  -247.11842893294903
    Total Energy =                       -247.1184289329490298
  @DF-RHF Final Energy:  -247.10296750019970
    Total Energy =                       -247.1029675001997248
  @DF-RHF Final Energy:  -247.11841139126437
    Total Energy =                       -247.1184113912643738
  Multiplicity = 1
  @DF-RHF Final Energy:  -362.20100988739182
    Total Energy =                       -362.2010098873918196
	 Singles Energy            =      -0.0000000000000000 [Eh]
	 Same-Spin Energy          =      -0.3541604962465751 [Eh]
	 Opposite-Spin Energy      =      -1.1782332627559085 [Eh]
	 Correlation Energy        =      -1.5323937590024834 [Eh]
	 Total Energy              =    -363.7334036463943221 [Eh]
	 SCS Total Energy          =    -363.7329433014477900 [Eh]
    Molecular point group: c1

    Geometry (in Angstrom), charge = 0, multiplicity = 1:

       Center              X                  Y                   Z               Mass
    ------------   -----------------  -----------------  -----------------  -----------------
         C           -0.631788200043    -0.036124618334     1.822460906073    12.000000000000
         H            0.401872799957     0.292327381666     1.746928906073     1.007825032230
         H           -0.664969200043    -1.038676618334     2.243446906073     1.007825032230
         H           -1.173274200043     0.620252381666     2.499172906073     1.007825032230
         C           -1.346503200043    -0.049948618334     0.490218906073    12.000000000000
         O           -2.531997200043    -0.348163618334     0.387504906073    15.994914619570
         N           -0.584125200043     0.276019381666    -0.580914093927    14.003074004430
         H            0.378716799957     0.543734381666    -0.450542093927     1.007825032230
         C           -1.167821200043     0.301023381666    -1.903393093927    12.000000000000
         H           -1.674088200043    -0.639426618334    -2.109352093927     1.007825032230
         H           -1.902443200043     1.099586381666    -2.000136093927     1.007825032230
         H           -0.377117200043     0.452945381666    -2.632384093927     1.007825032230
         O            2.579549799957     0.556719381666    -0.188782093927    15.994914619570
         H            3.300404799957     1.184018381666    -0.098367093927     1.007825032230
         C            3.098633799957    -0.748646618334     0.045099906073    12.000000000000
         H            2.266061799957    -1.437434618334    -0.060476093927     1.007825032230
         H            3.864772799957    -1.017639618334    -0.681781093927     1.007825032230
         H            3.506730799957    -0.850095618334     1.050734906073     1.007825032230

  Charge       = 0
  Multiplicity = 1
  Basis Set: AUG-CC-PVQZ
    Blend: AUG-CC-PVQZ
  Basis Set: (AUG-CC-PVQZ AUX)
    Blend: AUG-CC-PVQZ-JKFIT

    Orbital Energies [Eh]
    ---------------------

    Doubly Occupied:

       1A    -20.583627     2A    -20.495530     3A    -15.566420
       4A    -11.330744     5A    -11.289270     6A    -11.244498
       7A    -11.221663     8A     -1.383844     9A     -1.359205
      10A     -1.214164    11A     -1.005464    12A     -0.948047
      13A     -0.919181    14A     -0.776629    15A     -0.717037
      16A     -0.676347    17A     -0.644899    18A     -0.638019
      19A     -0.621825    20A     -0.617084    21A     -0.572577
      22A     -0.566342    23A     -0.546165    24A     -0.536090
      25A     -0.527665    26A     -0.487350    27A     -0.478181
      28A     -0.407729    29A     -0.377918

  @DF-RHF Final Energy:  -362.22386660808382

   => Energetics <=

    Nuclear Repulsion Energy =            310.1576274958563886
    One-Electron Energy =               -1109.2559663565793926
    Two-Electron Energy =                 436.8744722526392366
    Total Energy =                       -362.2238666080838243

  Dipole Moment: [D]
     X:     6.4259      Y:     0.7470      Z:    -0.1373     Total:     6.4707

  Basis Set: (AUG-CC-PVQZ AUX)
    Blend: AUG-CC-PVQZ-RI
	 Reference Energy          =    -362.2238666080838243 [Eh]
	 Singles Energy            =      -0.0000000000000000 [Eh]
	 Same-Spin Energy          =      -0.3756569730886732 [Eh]
	 Opposite-Spin Energy      =      -1.3229353554562766 [Eh]
	 Correlation Energy        =      -1.6985923285449498 [Eh]
	 Total Energy              =    -363.9224589366288001 [Eh]

	 ================> DF-SCS-MP2 Energies <==================
	-----------------------------------------------------------
	 SCS Same-Spin Scale       =       0.3333333333333333 [-]
	 SCS Opposite-Spin Scale   =       1.2000000000000000 [-]
	 SCS Same-Spin Energy      =      -0.1252189910295577 [Eh]
	 SCS Opposite-Spin Energy  =      -1.5875224265475318 [Eh]
	 SCS Correlation Energy    =      -1.7127414175770896 [Eh]
	 SCS Total Energy          =    -363.9366080256609166 [Eh]
	-----------------------------------------------------------

*** Psi4 exiting successfully. Buy a developer a beer!
