                               Psi4 1.4a2.dev224

  ==> Input File <==

--------------------------------------------------------------------------
#Generated by lconvert.py for cbs job

memory 20 GB

molecule  {
0 1
  C      -0.849320   -0.339500    2.491720
  H       0.184340   -0.011050    2.416190
  H      -0.882500   -1.342050    2.912700
  H      -1.390800    0.316880    3.168430
  C      -1.564030   -0.353320    1.159480
  O      -2.749530   -0.651540    1.056760
  N      -0.801650   -0.027360    0.088340
  H       0.161190    0.240360    0.218710
  C      -1.385350   -0.002350   -1.234140
  H      -1.891620   -0.942800   -1.440100
  H      -2.119970    0.796210   -1.330880
  H      -0.594650    0.149570   -1.963130
--
0 1
  O       3.362350    0.259250    0.599450
  H       4.083210    0.886540    0.689860
  C       3.881440   -1.046120    0.833330
  H       3.048860   -1.734910    0.727760
  H       4.647570   -1.315110    0.106450
  H       4.289530   -1.147570    1.838970
units angstrom
no_reorient
symmetry c1
}

set {
scf_type DF
mp2_type DF
e_convergence 7
reference rhf
}

energy('mp2/aug-cc-pv[tq]z', bsse_type='cp')
--------------------------------------------------------------------------

    Molecular point group: c1
  Charge       = 0
  Multiplicity = 1
  Basis Set: AUG-CC-PVTZ
    Blend: AUG-CC-PVTZ
  Basis Set: (AUG-CC-PVTZ AUX)
    Blend: AUG-CC-PVTZ-JKFIT
  @DF-RHF Final Energy:  -115.09208369611613
    Total Energy =                       -115.0920836961161342
  Basis Set: (AUG-CC-PVTZ AUX)
    Blend: AUG-CC-PVTZ-RI
	 Reference Energy          =    -115.0920836961161342 [Eh]
	 Singles Energy            =      -0.0000000000000000 [Eh]
	 Same-Spin Energy          =      -0.1057418926325648 [Eh]
	 Opposite-Spin Energy      =      -0.3646746477709241 [Eh]
	 Correlation Energy        =      -0.4704165404034890 [Eh]
	 Total Energy              =    -115.5625002365196252 [Eh]
	 SCS Total Energy          =    -115.5649405709854278 [Eh]
    Molecular point group: c1
  Basis Set: AUG-CC-PVQZ
    Blend: AUG-CC-PVQZ
  Basis Set: (AUG-CC-PVQZ AUX)
    Blend: AUG-CC-PVQZ-JKFIT
  @DF-RHF Final Energy:  -115.09959712210710
    Total Energy =                       -115.0995971221070988
  Basis Set: (AUG-CC-PVQZ AUX)
  @DF-RHF Final Energy:  -115.09210983676786
    Total Energy =                       -115.0921098367678610
  @DF-RHF Final Energy:  -115.09961451163186
    Total Energy =                       -115.0996145116318559
  @DF-RHF Final Energy:  -247.10299643998010
    Total Energy =                       -247.1029964399801315
  @DF-RHF Final Energy:  -247.11841735889433
    Total Energy =                       -247.1184173588943622
  @DF-RHF Final Energy:  -247.10296695285450
    Total Energy =                       -247.1029669528545014
  @DF-RHF Final Energy:  -247.11841080767957
    Total Energy =                       -247.1184108076795951
  Multiplicity = 1
  @DF-RHF Final Energy:  -362.19840546850884
    Total Energy =                       -362.1984054685088381
	 Singles Energy            =      -0.0000000000000000 [Eh]
	 Same-Spin Energy          =      -0.3525426923261804 [Eh]
	 Opposite-Spin Energy      =      -1.1756784039172152 [Eh]
	 Correlation Energy        =      -1.5282210962433957 [Eh]
	 Total Energy              =    -363.7266265647522232 [Eh]
	 SCS Total Energy          =    -363.7267337839849120 [Eh]
    Molecular point group: c1

    Geometry (in Angstrom), charge = 0, multiplicity = 1:

       Center              X                  Y                   Z               Mass
    ------------   -----------------  -----------------  -----------------  -----------------
         C           -0.936674220209    -0.037924052383     1.786202258608    12.000000000000
         H            0.096985779791     0.290525947617     1.710672258608     1.007825032230
         H           -0.969854220209    -1.040474052383     2.207182258608     1.007825032230
         H           -1.478154220209     0.618455947617     2.462912258608     1.007825032230
         C           -1.651384220209    -0.051744052383     0.453962258608    12.000000000000
         O           -2.836884220209    -0.349964052383     0.351242258608    15.994914619570
         N           -0.889004220209     0.274215947617    -0.617177741392    14.003074004430
         H            0.073835779791     0.541935947617    -0.486807741392     1.007825032230
         C           -1.472704220209     0.299225947617    -1.939657741392    12.000000000000
         H           -1.978974220209    -0.641224052383    -2.145617741392     1.007825032230
         H           -2.207324220209     1.097785947617    -2.036397741392     1.007825032230
         H           -0.682004220209     0.451145947617    -2.668647741392     1.007825032230
         O            3.274995779791     0.560825947617    -0.106067741392    15.994914619570
         H            3.995855779791     1.188115947617    -0.015657741392     1.007825032230
         C            3.794085779791    -0.744544052383     0.127812258608    12.000000000000
         H            2.961505779791    -1.433334052383     0.022242258608     1.007825032230
         H            4.560215779791    -1.013534052383    -0.599067741392     1.007825032230
         H            4.202175779791    -0.845994052383     1.133452258608     1.007825032230

  Charge       = 0
  Multiplicity = 1
  Basis Set: AUG-CC-PVQZ
    Blend: AUG-CC-PVQZ
  Basis Set: (AUG-CC-PVQZ AUX)
    Blend: AUG-CC-PVQZ-JKFIT

    Orbital Energies [Eh]
    ---------------------

    Doubly Occupied:

       1A    -20.572588     2A    -20.500801     3A    -15.575936
       4A    -11.336358     5A    -11.282730     6A    -11.249497
       7A    -11.225764     8A     -1.371982     9A     -1.364499
      10A     -1.221414    11A     -1.010071    12A     -0.940306
      13A     -0.924321    14A     -0.782359    15A     -0.706332
      16A     -0.681423    17A     -0.644071    18A     -0.635090
      19A     -0.626551    20A     -0.607967    21A     -0.576649
      22A     -0.571429    23A     -0.550420    24A     -0.540263
      25A     -0.520484    26A     -0.491865    27A     -0.467987
      28A     -0.412749    29A     -0.384747

  @DF-RHF Final Energy:  -362.22132315552221

   => Energetics <=

    Nuclear Repulsion Energy =            293.8013543650309316
    One-Electron Energy =               -1076.4920578311218833
    Two-Electron Energy =                 420.4693803105687948
    Total Energy =                       -362.2213231555222137

  Dipole Moment: [D]
     X:     6.0732      Y:     0.7269      Z:    -0.1171     Total:     6.1177

  Basis Set: (AUG-CC-PVQZ AUX)
    Blend: AUG-CC-PVQZ-RI
	 Reference Energy          =    -362.2213231555222137 [Eh]
	 Singles Energy            =      -0.0000000000000000 [Eh]
	 Same-Spin Energy          =      -0.3741169112768979 [Eh]
	 Opposite-Spin Energy      =      -1.3212545801235862 [Eh]
	 Correlation Energy        =      -1.6953714914004840 [Eh]
	 Total Energy              =    -363.9166946469226787 [Eh]

	 ================> DF-SCS-MP2 Energies <==================
	-----------------------------------------------------------
	 SCS Same-Spin Scale       =       0.3333333333333333 [-]
	 SCS Opposite-Spin Scale   =       1.2000000000000000 [-]
	 SCS Same-Spin Energy      =      -0.1247056370922993 [Eh]
	 SCS Opposite-Spin Energy  =      -1.5855054961483035 [Eh]
	 SCS Correlation Energy    =      -1.7102111332406027 [Eh]
	 SCS Total Energy          =    -363.9315342887628049 [Eh]
	-----------------------------------------------------------

*** Psi4 exiting successfully. Buy a developer a beer!
