                               Psi4 1.4a2.dev224

  ==> Input File <==

--------------------------------------------------------------------------
#Generated by lconvert.py for cbs job

memory 40 GB

molecule  {
0 1
  C       -0.8493170    -0.3394990     2.4917170
  H        0.1843440    -0.0110470     2.4161850
  H       -0.8824980    -1.3420510     2.9127030
  H       -1.3908030     0.3168780     3.1684290
  C       -1.5640320    -0.3533230     1.1594750
  O       -2.7495260    -0.6515380     1.0567610
  N       -0.8016540    -0.0273550     0.0883420
  H        0.1611880     0.2403600     0.2187140
  C       -1.3853500    -0.0023510    -1.2341370
  H       -1.8916170    -0.9428010    -1.4400960
  H       -2.1199720     0.7962120    -1.3308800
  H       -0.5946460     0.1495710    -1.9631280
--
0 1
  O        2.0619210     0.2515740     0.4447810
  H        2.7827750     0.8788740     0.5351960
  C        2.5810050    -1.0537920     0.6786630
  H        1.7484330    -1.7425790     0.5730860
  H        3.3471440    -1.3227840    -0.0482180
  H        2.9891020    -1.1552410     1.6842980
units angstrom
no_reorient
symmetry c1
}

set {
scf_type DF
mp2_type DF
e_convergence 7
reference rhf
}

energy('mp2/aug-cc-pv[tq]z', bsse_type='cp')
--------------------------------------------------------------------------

    Molecular point group: c1
  Charge       = 0
  Multiplicity = 1
  Basis Set: AUG-CC-PVTZ
    Blend: AUG-CC-PVTZ
  Basis Set: (AUG-CC-PVTZ AUX)
    Blend: AUG-CC-PVTZ-JKFIT
  @DF-RHF Final Energy:  -115.09208385932239
    Total Energy =                       -115.0920838593223863
  Basis Set: (AUG-CC-PVTZ AUX)
    Blend: AUG-CC-PVTZ-RI
	 Reference Energy          =    -115.0920838593223863 [Eh]
	 Singles Energy            =      -0.0000000000000000 [Eh]
	 Same-Spin Energy          =      -0.1057418858169906 [Eh]
	 Opposite-Spin Energy      =      -0.3646745332657623 [Eh]
	 Correlation Energy        =      -0.4704164190827529 [Eh]
	 Total Energy              =    -115.5625002784051389 [Eh]
	 SCS Total Energy          =    -115.5649405945136294 [Eh]
    Molecular point group: c1
  Basis Set: AUG-CC-PVQZ
    Blend: AUG-CC-PVQZ
  Basis Set: (AUG-CC-PVQZ AUX)
    Blend: AUG-CC-PVQZ-JKFIT
  @DF-RHF Final Energy:  -115.09959729129703
    Total Energy =                       -115.0995972912970302
  Basis Set: (AUG-CC-PVQZ AUX)
  @DF-RHF Final Energy:  -115.09221997602639
    Total Energy =                       -115.0922199760263851
  @DF-RHF Final Energy:  -115.09965569607468
    Total Energy =                       -115.0996556960746773
  @DF-RHF Final Energy:  -247.10308188930026
    Total Energy =                       -247.1030818893002561
  @DF-RHF Final Energy:  -247.11843424381280
    Total Energy =                       -247.1184342438127715
  @DF-RHF Final Energy:  -247.10296750071998
    Total Energy =                       -247.1029675007199558
  @DF-RHF Final Energy:  -247.11841139178534
    Total Energy =                       -247.1184113917853438
  Multiplicity = 1
  @DF-RHF Final Energy:  -362.19951471230394
    Total Energy =                       -362.1995147123039374
	 Singles Energy            =      -0.0000000000000000 [Eh]
	 Same-Spin Energy          =      -0.3554451531370877 [Eh]
	 Opposite-Spin Energy      =      -1.1799421509815293 [Eh]
	 Correlation Energy        =      -1.5353873041186170 [Eh]
	 Total Energy              =    -363.7349020164225522 [Eh]
	 SCS Total Energy          =    -363.7339270111941119 [Eh]
    Molecular point group: c1

    Geometry (in Angstrom), charge = 0, multiplicity = 1:

       Center              X                  Y                   Z               Mass
    ------------   -----------------  -----------------  -----------------  -----------------
         C           -0.540323016596    -0.035584877621     1.833339510967    12.000000000000
         H            0.493337983404     0.292867122379     1.757807510967     1.007825032230
         H           -0.573504016596    -1.038136877621     2.254325510967     1.007825032230
         H           -1.081809016596     0.620792122379     2.510051510967     1.007825032230
         C           -1.255038016596    -0.049408877621     0.501097510967    12.000000000000
         O           -2.440532016596    -0.347623877621     0.398383510967    15.994914619570
         N           -0.492660016596     0.276559122379    -0.570035489033    14.003074004430
         H            0.470181983404     0.544274122379    -0.439663489033     1.007825032230
         C           -1.076356016596     0.301563122379    -1.892514489033    12.000000000000
         H           -1.582623016596    -0.638886877621    -2.098473489033     1.007825032230
         H           -1.810978016596     1.100126122379    -1.989257489033     1.007825032230
         H           -0.285652016596     0.453485122379    -2.621505489033     1.007825032230
         O            2.370914983404     0.555488122379    -0.213596489033    15.994914619570
         H            3.091768983404     1.182788122379    -0.123181489033     1.007825032230
         C            2.889998983404    -0.749877877621     0.020285510967    12.000000000000
         H            2.057426983404    -1.438664877621    -0.085291489033     1.007825032230
         H            3.656137983404    -1.018869877621    -0.706595489033     1.007825032230
         H            3.298095983404    -0.851326877621     1.025920510967     1.007825032230

  Charge       = 0
  Multiplicity = 1
  Basis Set: AUG-CC-PVQZ
    Blend: AUG-CC-PVQZ
  Basis Set: (AUG-CC-PVQZ AUX)
    Blend: AUG-CC-PVQZ-JKFIT

    Orbital Energies [Eh]
    ---------------------

    Doubly Occupied:

       1A    -20.589289     2A    -20.492332     3A    -15.559313
       4A    -11.327328     5A    -11.292524     6A    -11.241578
       7A    -11.219835     8A     -1.391266     9A     -1.355983
      10A     -1.209774    11A     -1.003147    12A     -0.952256
      13A     -0.916360    14A     -0.777579    15A     -0.721497
      16A     -0.673913    17A     -0.650136    18A     -0.636016
      19A     -0.622307    20A     -0.617175    21A     -0.570468
      22A     -0.563910    23A     -0.547715    24A     -0.534670
      25A     -0.525251    26A     -0.484800    27A     -0.483801
      28A     -0.404706    29A     -0.373516

  @DF-RHF Final Energy:  -362.22234648832568

   => Energetics <=

    Nuclear Repulsion Energy =            316.5220113422498116
    One-Electron Energy =               -1122.0118281857000966
    Two-Electron Energy =                 443.2674703551246012
    Total Energy =                       -362.2223464883256838

  Dipole Moment: [D]
     X:     6.6484      Y:     0.7624      Z:    -0.1423     Total:     6.6935

  Basis Set: (AUG-CC-PVQZ AUX)
    Blend: AUG-CC-PVQZ-RI
	 Reference Energy          =    -362.2223464883256838 [Eh]
	 Singles Energy            =      -0.0000000000000000 [Eh]
	 Same-Spin Energy          =      -0.3769172129984431 [Eh]
	 Opposite-Spin Energy      =      -1.3242124322608610 [Eh]
	 Correlation Energy        =      -1.7011296452593041 [Eh]
	 Total Energy              =    -363.9234761335849839 [Eh]

	 ================> DF-SCS-MP2 Energies <==================
	-----------------------------------------------------------
	 SCS Same-Spin Scale       =       0.3333333333333333 [-]
	 SCS Opposite-Spin Scale   =       1.2000000000000000 [-]
	 SCS Same-Spin Energy      =      -0.1256390709994810 [Eh]
	 SCS Opposite-Spin Energy  =      -1.5890549187130332 [Eh]
	 SCS Correlation Energy    =      -1.7146939897125142 [Eh]
	 SCS Total Energy          =    -363.9370404780381705 [Eh]
	-----------------------------------------------------------

*** Psi4 exiting successfully. Buy a developer a beer!
