                               Psi4 1.4a2.dev224

  ==> Input File <==

--------------------------------------------------------------------------
#Generated by lconvert.py for cbs job

memory 20 GB

molecule  {
0 1
  C      -0.849320   -0.339500    2.491720
  H       0.184340   -0.011050    2.416190
  H      -0.882500   -1.342050    2.912700
  H      -1.390800    0.316880    3.168430
  C      -1.564030   -0.353320    1.159480
  O      -2.749530   -0.651540    1.056760
  N      -0.801650   -0.027360    0.088340
  H       0.161190    0.240360    0.218710
  C      -1.385350   -0.002350   -1.234140
  H      -1.891620   -0.942800   -1.440100
  H      -2.119970    0.796210   -1.330880
  H      -0.594650    0.149570   -1.963130
--
0 1
  O       3.962550    0.262780    0.670830
  H       4.683400    0.890080    0.761250
  C       4.481630   -1.042580    0.904720
  H       3.649060   -1.731370    0.799140
  H       5.247770   -1.311570    0.177830
  H       4.889730   -1.144030    1.910350
units angstrom
no_reorient
symmetry c1
}

set {
scf_type DF
mp2_type DF
e_convergence 7
reference rhf
}

energy('mp2/aug-cc-pv[tq]z', bsse_type='cp')
--------------------------------------------------------------------------

    Molecular point group: c1
  Charge       = 0
  Multiplicity = 1
  Basis Set: AUG-CC-PVTZ
    Blend: AUG-CC-PVTZ
  Basis Set: (AUG-CC-PVTZ AUX)
    Blend: AUG-CC-PVTZ-JKFIT
  @DF-RHF Final Energy:  -115.09208412901742
    Total Energy =                       -115.0920841290174224
  Basis Set: (AUG-CC-PVTZ AUX)
    Blend: AUG-CC-PVTZ-RI
	 Reference Energy          =    -115.0920841290174224 [Eh]
	 Singles Energy            =      -0.0000000000000000 [Eh]
	 Same-Spin Energy          =      -0.1057418417997567 [Eh]
	 Opposite-Spin Energy      =      -0.3646743448310261 [Eh]
	 Correlation Energy        =      -0.4704161866307828 [Eh]
	 Total Energy              =    -115.5625003156482080 [Eh]
	 SCS Total Energy          =    -115.5649406234145715 [Eh]
    Molecular point group: c1
  Basis Set: AUG-CC-PVQZ
    Blend: AUG-CC-PVQZ
  Basis Set: (AUG-CC-PVQZ AUX)
    Blend: AUG-CC-PVQZ-JKFIT
  @DF-RHF Final Energy:  -115.09959757511211
    Total Energy =                       -115.0995975751121136
  Basis Set: (AUG-CC-PVQZ AUX)
  @DF-RHF Final Energy:  -115.09209827802300
    Total Energy =                       -115.0920982780230020
  @DF-RHF Final Energy:  -115.09960659560352
    Total Energy =                       -115.0996065956035181
  @DF-RHF Final Energy:  -247.10298410613262
    Total Energy =                       -247.1029841061326238
  @DF-RHF Final Energy:  -247.11841483969528
    Total Energy =                       -247.1184148396952764
  @DF-RHF Final Energy:  -247.10296695238978
    Total Energy =                       -247.1029669523898065
  @DF-RHF Final Energy:  -247.11841080778723
    Total Energy =                       -247.1184108077871997
  Multiplicity = 1
  @DF-RHF Final Energy:  -362.19727194113580
    Total Energy =                       -362.1972719411357957
	 Singles Energy            =      -0.0000000000000000 [Eh]
	 Same-Spin Energy          =      -0.3522810209726773 [Eh]
	 Opposite-Spin Energy      =      -1.1751997711896025 [Eh]
	 Correlation Energy        =      -1.5274807921622797 [Eh]
	 Total Energy              =    -363.7247527332980894 [Eh]
	 SCS Total Energy          =    -363.7249386735542203 [Eh]
    Molecular point group: c1

    Geometry (in Angstrom), charge = 0, multiplicity = 1:

       Center              X                  Y                   Z               Mass
    ------------   -----------------  -----------------  -----------------  -----------------
         C           -1.119603330011    -0.039001459611     1.764445658786    12.000000000000
         H           -0.085943330011     0.289448540389     1.688915658786     1.007825032230
         H           -1.152783330011    -1.041551459611     2.185425658786     1.007825032230
         H           -1.661083330011     0.617378540389     2.441155658786     1.007825032230
         C           -1.834313330011    -0.052821459611     0.432205658786    12.000000000000
         O           -3.019813330011    -0.351041459611     0.329485658786    15.994914619570
         N           -1.071933330011     0.273138540389    -0.638934341214    14.003074004430
         H           -0.109093330011     0.540858540389    -0.508564341214     1.007825032230
         C           -1.655633330011     0.298148540389    -1.961414341214    12.000000000000
         H           -2.161903330011    -0.642301459611    -2.167374341214     1.007825032230
         H           -2.390253330011     1.096708540389    -2.058154341214     1.007825032230
         H           -0.864933330011     0.450068540389    -2.690404341214     1.007825032230
         O            3.692266669989     0.563278540389    -0.056444341214    15.994914619570
         H            4.413116669989     1.190578540389     0.033975658786     1.007825032230
         C            4.211346669989    -0.742081459611     0.177445658786    12.000000000000
         H            3.378776669989    -1.430871459611     0.071865658786     1.007825032230
         H            4.977486669989    -1.011071459611    -0.549444341214     1.007825032230
         H            4.619446669989    -0.843531459611     1.183075658786     1.007825032230

  Charge       = 0
  Multiplicity = 1
  Basis Set: AUG-CC-PVQZ
    Blend: AUG-CC-PVQZ
  Basis Set: (AUG-CC-PVQZ AUX)
    Blend: AUG-CC-PVQZ-JKFIT

    Orbital Energies [Eh]
    ---------------------

    Doubly Occupied:

       1A    -20.568987     2A    -20.502387     3A    -15.578325
       4A    -11.338045     5A    -11.280333     6A    -11.251067
       7A    -11.227287     8A     -1.368414     9A     -1.366092
      10A     -1.223512    11A     -1.011658    12A     -0.937659
      13A     -0.925970    14A     -0.784627    15A     -0.702932
      16A     -0.683092    17A     -0.645747    18A     -0.632274
      19A     -0.628186    20A     -0.604762    21A     -0.578058
      22A     -0.573075    23A     -0.552179    24A     -0.541905
      25A     -0.517264    26A     -0.493310    27A     -0.464720
      28A     -0.414290    29A     -0.386680

  @DF-RHF Final Energy:  -362.22020600897577

   => Energetics <=

    Nuclear Repulsion Energy =            286.5068970906951904
    One-Electron Energy =               -1061.8885391183737283
    Two-Electron Energy =                 413.1614360187027160
    Total Energy =                       -362.2202060089757651

  Dipole Moment: [D]
     X:     5.9763      Y:     0.7218      Z:    -0.1100     Total:     6.0207

  Basis Set: (AUG-CC-PVQZ AUX)
    Blend: AUG-CC-PVQZ-RI
	 Reference Energy          =    -362.2202060089757651 [Eh]
	 Singles Energy            =      -0.0000000000000000 [Eh]
	 Same-Spin Energy          =      -0.3738700420263861 [Eh]
	 Opposite-Spin Energy      =      -1.3209666086981442 [Eh]
	 Correlation Energy        =      -1.6948366507245303 [Eh]
	 Total Energy              =    -363.9150426597003047 [Eh]

	 ================> DF-SCS-MP2 Energies <==================
	-----------------------------------------------------------
	 SCS Same-Spin Scale       =       0.3333333333333333 [-]
	 SCS Opposite-Spin Scale   =       1.2000000000000000 [-]
	 SCS Same-Spin Energy      =      -0.1246233473421287 [Eh]
	 SCS Opposite-Spin Energy  =      -1.5851599304377730 [Eh]
	 SCS Correlation Energy    =      -1.7097832777799018 [Eh]
	 SCS Total Energy          =    -363.9299892867556423 [Eh]
	-----------------------------------------------------------

*** Psi4 exiting successfully. Buy a developer a beer!
