                               Psi4 1.4a2.dev224

  ==> Input File <==

--------------------------------------------------------------------------
#Generated by lconvert.py for cbs job

memory 40 GB

molecule  {
0 1
  C       -0.8493170    -0.3394990     2.4917170
  H        0.1843440    -0.0110470     2.4161850
  H       -0.8824980    -1.3420510     2.9127030
  H       -1.3908030     0.3168780     3.1684290
  C       -1.5640320    -0.3533230     1.1594750
  O       -2.7495260    -0.6515380     1.0567610
  N       -0.8016540    -0.0273550     0.0883420
  H        0.1611880     0.2403600     0.2187140
  C       -1.3853500    -0.0023510    -1.2341370
  H       -1.8916170    -0.9428010    -1.4400960
  H       -2.1199720     0.7962120    -1.3308800
  H       -0.5946460     0.1495710    -1.9631280
--
0 1
  O        1.7617210     0.2498030     0.4090760
  H        2.4825760     0.8771030     0.4994910
  C        2.2808050    -1.0555630     0.6429580
  H        1.4482340    -1.7443500     0.5373820
  H        3.0469440    -1.3245550    -0.0839230
  H        2.6889020    -1.1570120     1.6485930
units angstrom
no_reorient
symmetry c1
}

set {
scf_type DF
mp2_type DF
e_convergence 7
reference rhf
}

energy('mp2/aug-cc-pv[tq]z', bsse_type='cp')
--------------------------------------------------------------------------

    Molecular point group: c1
  Charge       = 0
  Multiplicity = 1
  Basis Set: AUG-CC-PVTZ
    Blend: AUG-CC-PVTZ
  Basis Set: (AUG-CC-PVTZ AUX)
    Blend: AUG-CC-PVTZ-JKFIT
  @DF-RHF Final Energy:  -115.09208383249843
    Total Energy =                       -115.0920838324984317
  Basis Set: (AUG-CC-PVTZ AUX)
    Blend: AUG-CC-PVTZ-RI
	 Reference Energy          =    -115.0920838324984317 [Eh]
	 Singles Energy            =      -0.0000000000000000 [Eh]
	 Same-Spin Energy          =      -0.1057418946696601 [Eh]
	 Opposite-Spin Energy      =      -0.3646745519327854 [Eh]
	 Correlation Energy        =      -0.4704164466024454 [Eh]
	 Total Energy              =    -115.5625002791008740 [Eh]
	 SCS Total Energy          =    -115.5649405930410012 [Eh]
    Molecular point group: c1
  Basis Set: AUG-CC-PVQZ
    Blend: AUG-CC-PVQZ
  Basis Set: (AUG-CC-PVQZ AUX)
    Blend: AUG-CC-PVQZ-JKFIT
  @DF-RHF Final Energy:  -115.09959726327840
    Total Energy =                       -115.0995972632783975
  Basis Set: (AUG-CC-PVQZ AUX)
  @DF-RHF Final Energy:  -115.09226819450549
    Total Energy =                       -115.0922681945054933
  @DF-RHF Final Energy:  -115.09967083444131
    Total Energy =                       -115.0996708344413122
  @DF-RHF Final Energy:  -247.10311917768095
    Total Energy =                       -247.1031191776809806
  @DF-RHF Final Energy:  -247.11844134436240
    Total Energy =                       -247.1184413443623953
  @DF-RHF Final Energy:  -247.10296750008479
    Total Energy =                       -247.1029675000847874
  @DF-RHF Final Energy:  -247.11841139249390
    Total Energy =                       -247.1184113924938970
  Multiplicity = 1
  @DF-RHF Final Energy:  -362.19099438552098
    Total Energy =                       -362.1909943855209804
	 Singles Energy            =      -0.0000000000000000 [Eh]
	 Same-Spin Energy          =      -0.3575910009637759 [Eh]
	 Opposite-Spin Energy      =      -1.1824275222355212 [Eh]
	 Correlation Energy        =      -1.5400185231992971 [Eh]
	 Total Energy              =    -363.7310129087202881 [Eh]
	 SCS Total Energy          =    -363.7291044125248618 [Eh]
    Molecular point group: c1

    Geometry (in Angstrom), charge = 0, multiplicity = 1:

       Center              X                  Y                   Z               Mass
    ------------   -----------------  -----------------  -----------------  -----------------
         C           -0.448827383691    -0.035045108134     1.844221754066    12.000000000000
         H            0.584833616309     0.293406891866     1.768689754066     1.007825032230
         H           -0.482008383691    -1.037597108134     2.265207754066     1.007825032230
         H           -0.990313383691     0.621331891866     2.520933754066     1.007825032230
         C           -1.163542383691    -0.048869108134     0.511979754066    12.000000000000
         O           -2.349036383691    -0.347084108134     0.409265754066    15.994914619570
         N           -0.401164383691     0.277098891866    -0.559153245934    14.003074004430
         H            0.561677616309     0.544813891866    -0.428781245934     1.007825032230
         C           -0.984860383691     0.302102891866    -1.881632245934    12.000000000000
         H           -1.491127383691    -0.638347108134    -2.087591245934     1.007825032230
         H           -1.719482383691     1.100665891866    -1.978375245934     1.007825032230
         H           -0.194156383691     0.454024891866    -2.610623245934     1.007825032230
         O            2.162210616309     0.554256891866    -0.238419245934    15.994914619570
         H            2.883065616309     1.181556891866    -0.148004245934     1.007825032230
         C            2.681294616309    -0.751109108134    -0.004537245934    12.000000000000
         H            1.848723616309    -1.439896108134    -0.110113245934     1.007825032230
         H            3.447433616309    -1.020101108134    -0.731418245934     1.007825032230
         H            3.089391616309    -0.852558108134     1.001097754066     1.007825032230

  Charge       = 0
  Multiplicity = 1
  Basis Set: AUG-CC-PVQZ
    Blend: AUG-CC-PVQZ
  Basis Set: (AUG-CC-PVQZ AUX)
    Blend: AUG-CC-PVQZ-JKFIT

    Orbital Energies [Eh]
    ---------------------

    Doubly Occupied:

       1A    -20.597271     2A    -20.487364     3A    -15.546553
       4A    -11.321984     5A    -11.297175     6A    -11.237105
       7A    -11.217630     8A     -1.404100     9A     -1.350956
      10A     -1.203149    11A     -1.000039    12A     -0.958733
      13A     -0.912445    14A     -0.788971    15A     -0.723070
      16A     -0.671956    17A     -0.658540    18A     -0.635894
      19A     -0.621781    20A     -0.612933    21A     -0.567485
      22A     -0.562528    23A     -0.553097    24A     -0.531263
      25A     -0.515362    26A     -0.492213    27A     -0.480843
      28A     -0.399936    29A     -0.366412

  @DF-RHF Final Energy:  -362.21376126155877

   => Energetics <=

    Nuclear Repulsion Energy =            323.8295290742374277
    One-Electron Energy =               -1136.6530177475949586
    Two-Electron Energy =                 450.6097274117988150
    Total Energy =                       -362.2137612615587727

  Dipole Moment: [D]
     X:     6.9989      Y:     0.7874      Z:    -0.1392     Total:     7.0445

  Basis Set: (AUG-CC-PVQZ AUX)
    Blend: AUG-CC-PVQZ-RI
	 Reference Energy          =    -362.2137612615587727 [Eh]
	 Singles Energy            =      -0.0000000000000000 [Eh]
	 Same-Spin Energy          =      -0.3790730619752318 [Eh]
	 Opposite-Spin Energy      =      -1.3263469996675781 [Eh]
	 Correlation Energy        =      -1.7054200616428099 [Eh]
	 Total Energy              =    -363.9191813232015988 [Eh]

	 ================> DF-SCS-MP2 Energies <==================
	-----------------------------------------------------------
	 SCS Same-Spin Scale       =       0.3333333333333333 [-]
	 SCS Opposite-Spin Scale   =       1.2000000000000000 [-]
	 SCS Same-Spin Energy      =      -0.1263576873250773 [Eh]
	 SCS Opposite-Spin Energy  =      -1.5916163996010937 [Eh]
	 SCS Correlation Energy    =      -1.7179740869261710 [Eh]
	 SCS Total Energy          =    -363.9317353484849491 [Eh]
	-----------------------------------------------------------

*** Psi4 exiting successfully. Buy a developer a beer!
