                               Psi4 1.4a2.dev224

  ==> Input File <==

--------------------------------------------------------------------------
#Generated by lconvert.py for cbs job

memory 40 GB

molecule  {
0 1
  C       -0.8493170    -0.3394990     2.4917170
  H        0.1843440    -0.0110470     2.4161850
  H       -0.8824980    -1.3420510     2.9127030
  H       -1.3908030     0.3168780     3.1684290
  C       -1.5640320    -0.3533230     1.1594750
  O       -2.7495260    -0.6515380     1.0567610
  N       -0.8016540    -0.0273550     0.0883420
  H        0.1611880     0.2403600     0.2187140
  C       -1.3853500    -0.0023510    -1.2341370
  H       -1.8916170    -0.9428010    -1.4400960
  H       -2.1199720     0.7962120    -1.3308800
  H       -0.5946460     0.1495710    -1.9631280
--
0 1
  O        1.9618870     0.2509840     0.4328840
  H        2.6827420     0.8782840     0.5232980
  C        2.4809710    -1.0543820     0.6667650
  H        1.6484000    -1.7431690     0.5611890
  H        3.2471100    -1.3233750    -0.0601150
  H        2.8890680    -1.1558310     1.6724000
units angstrom
no_reorient
symmetry c1
}

set {
scf_type DF
mp2_type DF
e_convergence 7
reference rhf
}

energy('mp2/aug-cc-pv[tq]z', bsse_type='cp')
--------------------------------------------------------------------------

    Molecular point group: c1
  Charge       = 0
  Multiplicity = 1
  Basis Set: AUG-CC-PVTZ
    Blend: AUG-CC-PVTZ
  Basis Set: (AUG-CC-PVTZ AUX)
    Blend: AUG-CC-PVTZ-JKFIT
  @DF-RHF Final Energy:  -115.09208384382141
    Total Energy =                       -115.0920838438214133
  Basis Set: (AUG-CC-PVTZ AUX)
    Blend: AUG-CC-PVTZ-RI
	 Reference Energy          =    -115.0920838438214133 [Eh]
	 Singles Energy            =      -0.0000000000000000 [Eh]
	 Same-Spin Energy          =      -0.1057418939516882 [Eh]
	 Opposite-Spin Energy      =      -0.3646745428360040 [Eh]
	 Correlation Energy        =      -0.4704164367876922 [Eh]
	 Total Energy              =    -115.5625002806091004 [Eh]
	 SCS Total Energy          =    -115.5649405932085187 [Eh]
    Molecular point group: c1
  Basis Set: AUG-CC-PVQZ
    Blend: AUG-CC-PVQZ
  Basis Set: (AUG-CC-PVQZ AUX)
    Blend: AUG-CC-PVQZ-JKFIT
  @DF-RHF Final Energy:  -115.09959727537569
    Total Energy =                       -115.0995972753756860
  Basis Set: (AUG-CC-PVQZ AUX)
  @DF-RHF Final Energy:  -115.09223679210575
    Total Energy =                       -115.0922367921057514
  @DF-RHF Final Energy:  -115.09966005611854
    Total Energy =                       -115.0996600561185375
  @DF-RHF Final Energy:  -247.10309312681662
    Total Energy =                       -247.1030931268165887
  @DF-RHF Final Energy:  -247.11843627527270
    Total Energy =                       -247.1184362752726997
  @DF-RHF Final Energy:  -247.10296750051373
    Total Energy =                       -247.1029675005137278
  @DF-RHF Final Energy:  -247.11841139145690
    Total Energy =                       -247.1184113914569025
  Multiplicity = 1
  @DF-RHF Final Energy:  -362.19788549834198
    Total Energy =                       -362.1978854983419751
	 Singles Energy            =      -0.0000000000000000 [Eh]
	 Same-Spin Energy          =      -0.3560421713928212 [Eh]
	 Opposite-Spin Energy      =      -1.1806727151318728 [Eh]
	 Correlation Energy        =      -1.5367148865246940 [Eh]
	 Total Energy              =    -363.7346003848666669 [Eh]
	 SCS Total Energy          =    -363.7333734802978142 [Eh]
    Molecular point group: c1

    Geometry (in Angstrom), charge = 0, multiplicity = 1:

       Center              X                  Y                   Z               Mass
    ------------   -----------------  -----------------  -----------------  -----------------
         C           -0.509834441305    -0.035405046462     1.836965639595    12.000000000000
         H            0.523826558695     0.293046953538     1.761433639595     1.007825032230
         H           -0.543015441305    -1.037957046462     2.257951639595     1.007825032230
         H           -1.051320441305     0.620971953538     2.513677639595     1.007825032230
         C           -1.224549441305    -0.049229046462     0.504723639595    12.000000000000
         O           -2.410043441305    -0.347444046462     0.402009639595    15.994914619570
         N           -0.462171441305     0.276738953538    -0.566409360405    14.003074004430
         H            0.500670558695     0.544453953538    -0.436037360405     1.007825032230
         C           -1.045867441305     0.301742953538    -1.888888360405    12.000000000000
         H           -1.552134441305    -0.638707046462    -2.094847360405     1.007825032230
         H           -1.780489441305     1.100305953538    -1.985631360405     1.007825032230
         H           -0.255163441305     0.453664953538    -2.617879360405     1.007825032230
         O            2.301369558695     0.555077953538    -0.221867360405    15.994914619570
         H            3.022224558695     1.182377953538    -0.131453360405     1.007825032230
         C            2.820453558695    -0.750288046462     0.012013639595    12.000000000000
         H            1.987882558695    -1.439075046462    -0.093562360405     1.007825032230
         H            3.586592558695    -1.019281046462    -0.714866360405     1.007825032230
         H            3.228550558695    -0.851737046462     1.017648639595     1.007825032230

  Charge       = 0
  Multiplicity = 1
  Basis Set: AUG-CC-PVQZ
    Blend: AUG-CC-PVQZ
  Basis Set: (AUG-CC-PVQZ AUX)
    Blend: AUG-CC-PVQZ-JKFIT

    Orbital Energies [Eh]
    ---------------------

    Doubly Occupied:

       1A    -20.591619     2A    -20.490923     3A    -15.555887
       4A    -11.325817     5A    -11.293875     6A    -11.240304
       7A    -11.219145     8A     -1.394711     9A     -1.354560
      10A     -1.207867    11A     -1.002212    12A     -0.954081
      13A     -0.915189    14A     -0.779606    15A     -0.722589
      16A     -0.673092    17A     -0.652494    18A     -0.635635
      19A     -0.622765    20A     -0.616060    21A     -0.569594
      22A     -0.563112    23A     -0.549319    24A     -0.533788
      25A     -0.522933    26A     -0.486281    27A     -0.483625
      28A     -0.403365    29A     -0.371529

  @DF-RHF Final Energy:  -362.22069848804620

   => Energetics <=

    Nuclear Repulsion Energy =            318.8421369233049631
    One-Electron Energy =               -1126.6617191084028491
    Two-Electron Energy =                 445.5988836970517468
    Total Energy =                       -362.2206984880461960

  Dipole Moment: [D]
     X:     6.7474      Y:     0.7696      Z:    -0.1426     Total:     6.7926

  Basis Set: (AUG-CC-PVQZ AUX)
    Blend: AUG-CC-PVQZ-RI
	 Reference Energy          =    -362.2206984880461960 [Eh]
	 Singles Energy            =      -0.0000000000000000 [Eh]
	 Same-Spin Energy          =      -0.3775120281495538 [Eh]
	 Opposite-Spin Energy      =      -1.3248048994165447 [Eh]
	 Correlation Energy        =      -1.7023169275660983 [Eh]
	 Total Energy              =    -363.9230154156122694 [Eh]

	 ================> DF-SCS-MP2 Energies <==================
	-----------------------------------------------------------
	 SCS Same-Spin Scale       =       0.3333333333333333 [-]
	 SCS Opposite-Spin Scale   =       1.2000000000000000 [-]
	 SCS Same-Spin Energy      =      -0.1258373427165179 [Eh]
	 SCS Opposite-Spin Energy  =      -1.5897658792998535 [Eh]
	 SCS Correlation Energy    =      -1.7156032220163713 [Eh]
	 SCS Total Energy          =    -363.9363017100625939 [Eh]
	-----------------------------------------------------------

*** Psi4 exiting successfully. Buy a developer a beer!
