                               Psi4 1.4a2.dev224

  ==> Input File <==

--------------------------------------------------------------------------
#Generated by lconvert.py for cbs job

memory 20 GB

molecule  {
0 1
  C      -0.849320   -0.339500    2.491720
  H       0.184340   -0.011050    2.416190
  H      -0.882500   -1.342050    2.912700
  H      -1.390800    0.316880    3.168430
  C      -1.564030   -0.353320    1.159480
  O      -2.749530   -0.651540    1.056760
  N      -0.801650   -0.027360    0.088340
  H       0.161190    0.240360    0.218710
  C      -1.385350   -0.002350   -1.234140
  H      -1.891620   -0.942800   -1.440100
  H      -2.119970    0.796210   -1.330880
  H      -0.594650    0.149570   -1.963130
--
0 1
  O       2.762150    0.255710    0.528060
  H       3.483010    0.883000    0.618480
  C       3.281240   -1.049660    0.761950
  H       2.448670   -1.738450    0.656370
  H       4.047380   -1.318650    0.035060
  H       3.689330   -1.151110    1.767580
units angstrom
no_reorient
symmetry c1
}

set {
scf_type DF
mp2_type DF
e_convergence 7
reference rhf
}

energy('mp2/aug-cc-pv[tq]z', bsse_type='cp')
--------------------------------------------------------------------------

    Molecular point group: c1
  Charge       = 0
  Multiplicity = 1
  Basis Set: AUG-CC-PVTZ
    Blend: AUG-CC-PVTZ
  Basis Set: (AUG-CC-PVTZ AUX)
    Blend: AUG-CC-PVTZ-JKFIT
  @DF-RHF Final Energy:  -115.09208361868578
    Total Energy =                       -115.0920836186857770
  Basis Set: (AUG-CC-PVTZ AUX)
    Blend: AUG-CC-PVTZ-RI
	 Reference Energy          =    -115.0920836186857770 [Eh]
	 Singles Energy            =      -0.0000000000000000 [Eh]
	 Same-Spin Energy          =      -0.1057419103080053 [Eh]
	 Opposite-Spin Energy      =      -0.3646747071461879 [Eh]
	 Correlation Energy        =      -0.4704166174541932 [Eh]
	 Total Energy              =    -115.5625002361399680 [Eh]
	 SCS Total Energy          =    -115.5649405706972033 [Eh]
    Molecular point group: c1
  Basis Set: AUG-CC-PVQZ
    Blend: AUG-CC-PVQZ
  Basis Set: (AUG-CC-PVQZ AUX)
    Blend: AUG-CC-PVQZ-JKFIT
  @DF-RHF Final Energy:  -115.09959704135993
    Total Energy =                       -115.0995970413599281
  Basis Set: (AUG-CC-PVQZ AUX)
  @DF-RHF Final Energy:  -115.09214450126723
    Total Energy =                       -115.0921445012672280
  @DF-RHF Final Energy:  -115.09963092151619
    Total Energy =                       -115.0996309215161943
  @DF-RHF Final Energy:  -247.10302542760556
    Total Energy =                       -247.1030254276055302
  @DF-RHF Final Energy:  -247.11842240008448
    Total Energy =                       -247.1184224000845120
  @DF-RHF Final Energy:  -247.10296695261860
    Total Energy =                       -247.1029669526186012
  @DF-RHF Final Energy:  -247.11841080774110
    Total Energy =                       -247.1184108077410997
  Multiplicity = 1
  @DF-RHF Final Energy:  -362.20016270007301
    Total Energy =                       -362.2001627000730082
	 Singles Energy            =      -0.0000000000000000 [Eh]
	 Same-Spin Energy          =      -0.3531997275930407 [Eh]
	 Opposite-Spin Energy      =      -1.1767847382250305 [Eh]
	 Correlation Energy        =      -1.5299844658180712 [Eh]
	 Total Energy              =    -363.7301471658910828 [Eh]
	 SCS Total Energy          =    -363.7300376284740651 [Eh]
    Molecular point group: c1

    Geometry (in Angstrom), charge = 0, multiplicity = 1:

       Center              X                  Y                   Z               Mass
    ------------   -----------------  -----------------  -----------------  -----------------
         C           -0.753744064321    -0.036845122974     1.807959430433    12.000000000000
         H            0.279915935679     0.291604877026     1.732429430433     1.007825032230
         H           -0.786924064321    -1.039395122974     2.228939430433     1.007825032230
         H           -1.295224064321     0.619534877026     2.484669430433     1.007825032230
         C           -1.468454064321    -0.050665122974     0.475719430433    12.000000000000
         O           -2.653954064321    -0.348885122974     0.372999430433    15.994914619570
         N           -0.706074064321     0.275294877026    -0.595420569567    14.003074004430
         H            0.256765935679     0.543014877026    -0.465050569567     1.007825032230
         C           -1.289774064321     0.300304877026    -1.917900569567    12.000000000000
         H           -1.796044064321    -0.640145122974    -2.123860569567     1.007825032230
         H           -2.024394064321     1.098864877026    -2.014640569567     1.007825032230
         H           -0.499074064321     0.452224877026    -2.646890569567     1.007825032230
         O            2.857725935679     0.558364877026    -0.155700569567    15.994914619570
         H            3.578585935679     1.185654877026    -0.065280569567     1.007825032230
         C            3.376815935679    -0.747005122974     0.078189430433    12.000000000000
         H            2.544245935679    -1.435795122974    -0.027390569567     1.007825032230
         H            4.142955935679    -1.015995122974    -0.648700569567     1.007825032230
         H            3.784905935679    -0.848455122974     1.083819430433     1.007825032230

  Charge       = 0
  Multiplicity = 1
  Basis Set: AUG-CC-PVQZ
    Blend: AUG-CC-PVQZ
  Basis Set: (AUG-CC-PVQZ AUX)
    Blend: AUG-CC-PVQZ-JKFIT

    Orbital Energies [Eh]
    ---------------------

    Doubly Occupied:

       1A    -20.578135     2A    -20.498282     3A    -15.571726
       4A    -11.333678     5A    -11.286104     6A    -11.247069
       7A    -11.223614     8A     -1.377659     9A     -1.361968
      10A     -1.217974    11A     -1.007736    12A     -0.944190
      13A     -0.921791    14A     -0.778961    15A     -0.711689
      16A     -0.678881    17A     -0.642045    18A     -0.638848
      19A     -0.624063    20A     -0.612840    21A     -0.574591
      22A     -0.568890    23A     -0.547835    24A     -0.537889
      25A     -0.525081    26A     -0.489656    27A     -0.473022
      28A     -0.410335    29A     -0.381558

  @DF-RHF Final Energy:  -362.22304543485552

   => Energetics <=

    Nuclear Repulsion Energy =            302.8400270249711639
    One-Electron Energy =               -1094.5939306348286664
    Two-Electron Energy =                 429.5308581750019812
    Total Energy =                       -362.2230454348555213

  Dipole Moment: [D]
     X:     6.2382      Y:     0.7355      Z:    -0.1281     Total:     6.2827

  Basis Set: (AUG-CC-PVQZ AUX)
    Blend: AUG-CC-PVQZ-RI
	 Reference Energy          =    -362.2230454348555213 [Eh]
	 Singles Energy            =      -0.0000000000000000 [Eh]
	 Same-Spin Energy          =      -0.3747357465041068 [Eh]
	 Opposite-Spin Energy      =      -1.3219513409331740 [Eh]
	 Correlation Energy        =      -1.6966870874372808 [Eh]
	 Total Energy              =    -363.9197325222928043 [Eh]

	 ================> DF-SCS-MP2 Energies <==================
	-----------------------------------------------------------
	 SCS Same-Spin Scale       =       0.3333333333333333 [-]
	 SCS Opposite-Spin Scale   =       1.2000000000000000 [-]
	 SCS Same-Spin Energy      =      -0.1249119155013689 [Eh]
	 SCS Opposite-Spin Energy  =      -1.5863416091198088 [Eh]
	 SCS Correlation Energy    =      -1.7112535246211777 [Eh]
	 SCS Total Energy          =    -363.9342989594766777 [Eh]
	-----------------------------------------------------------

*** Psi4 exiting successfully. Buy a developer a beer!
