                               Psi4 1.4a2.dev224

  ==> Input File <==

--------------------------------------------------------------------------
#Generated by lconvert.py for cbs job

memory 40 GB

molecule  {
0 1
  C       -0.7785730    -0.4633210     2.4903880
  H        0.2247450    -0.0509530     2.4134840
  H       -0.7224800    -1.4870920     2.8545850
  H       -1.3519080     0.1108170     3.2136840
  C       -1.5205030    -0.4566280     1.1723250
  O       -2.7008350    -0.7835860     1.0895970
  N       -0.7919540    -0.0696400     0.1005890
  H        0.1941120     0.1457080     0.2029250
  C       -1.3977980    -0.0560820    -1.2113180
  H       -2.3149280     0.5288910    -1.1997100
  H       -0.6988040     0.3872610    -1.9153660
  H       -1.6529820    -1.0615290    -1.5454350
--
0 1
  N        2.3585190     0.2609770     0.2872010
  H        2.7621850     0.8008970     1.0424010
  H        2.7765220     0.6283590    -0.5584450
  C        2.7308210    -1.1502050     0.4409530
  H        2.3045340    -1.7212380    -0.3804220
  H        3.8062200    -1.3368950     0.4667370
  H        2.2963490    -1.5346120     1.3607890
units angstrom
no_reorient
symmetry c1
}

set {
scf_type DF
mp2_type DF
e_convergence 7
reference rhf
}

energy('mp2/aug-cc-pv[tq]z', bsse_type='cp')
--------------------------------------------------------------------------

    Molecular point group: c1
  Charge       = 0
  Multiplicity = 1
  Basis Set: AUG-CC-PVTZ
    Blend: AUG-CC-PVTZ
  Basis Set: (AUG-CC-PVTZ AUX)
    Blend: AUG-CC-PVTZ-JKFIT
  @DF-RHF Final Energy:   -95.25539191033747
    Total Energy =                        -95.2553919103374653
  Basis Set: (AUG-CC-PVTZ AUX)
    Blend: AUG-CC-PVTZ-RI
	 Reference Energy          =     -95.2553919103374653 [Eh]
	 Singles Energy            =      -0.0000000000000000 [Eh]
	 Same-Spin Energy          =      -0.0953933899660606 [Eh]
	 Opposite-Spin Energy      =      -0.3517059676321157 [Eh]
	 Correlation Energy        =      -0.4470993575981763 [Eh]
	 Total Energy              =     -95.7024912679356419 [Eh]
	 SCS Total Energy          =     -95.7092368681513648 [Eh]
    Molecular point group: c1
  Basis Set: AUG-CC-PVQZ
    Blend: AUG-CC-PVQZ
  Basis Set: (AUG-CC-PVQZ AUX)
    Blend: AUG-CC-PVQZ-JKFIT
  @DF-RHF Final Energy:   -95.26137187926727
    Total Energy =                        -95.2613718792672728
  Basis Set: (AUG-CC-PVQZ AUX)
  @DF-RHF Final Energy:   -95.25546302507905
    Total Energy =                        -95.2554630250790524
  @DF-RHF Final Energy:   -95.26140024838026
    Total Energy =                        -95.2614002483802551
  @DF-RHF Final Energy:  -247.10266871136420
    Total Energy =                       -247.1026687113642311
  @DF-RHF Final Energy:  -247.11801556163141
    Total Energy =                       -247.1180155616314096
  @DF-RHF Final Energy:  -247.10255721377052
    Total Energy =                       -247.1025572137705240
  @DF-RHF Final Energy:  -247.11799434248258
    Total Energy =                       -247.1179943424825751
  Multiplicity = 1
  @DF-RHF Final Energy:  -342.36442414382338
    Total Energy =                       -342.3644241438233848
	 Singles Energy            =      -0.0000000000000000 [Eh]
	 Same-Spin Energy          =      -0.3449362191422945 [Eh]
	 Opposite-Spin Energy      =      -1.1669192450551242 [Eh]
	 Correlation Energy        =      -1.5118554641974187 [Eh]
	 Total Energy              =    -343.8762796080208091 [Eh]
	 SCS Total Energy          =    -343.8797059776036349 [Eh]
    Molecular point group: c1

    Geometry (in Angstrom), charge = 0, multiplicity = 1:

       Center              X                  Y                   Z               Mass
    ------------   -----------------  -----------------  -----------------  -----------------
         C           -0.536752308318    -0.079102381191     1.879712285683    12.000000000000
         H            0.466565691682     0.333265618809     1.802808285683     1.007825032230
         H           -0.480659308318    -1.102873381191     2.243909285683     1.007825032230
         H           -1.110087308318     0.495035618809     2.603008285683     1.007825032230
         C           -1.278682308318    -0.072409381191     0.561649285683    12.000000000000
         O           -2.459014308318    -0.399367381191     0.478921285683    15.994914619570
         N           -0.550133308318     0.314578618809    -0.510086714317    14.003074004430
         H            0.435932691682     0.529926618809    -0.407750714317     1.007825032230
         C           -1.155977308318     0.328136618809    -1.821993714317    12.000000000000
         H           -2.073107308318     0.913109618809    -1.810385714317     1.007825032230
         H           -0.456983308318     0.771479618809    -2.526041714317     1.007825032230
         H           -1.411161308318    -0.677310381191    -2.156110714317     1.007825032230
         N            2.600339691682     0.645195618809    -0.323474714317    14.003074004430
         H            3.004005691682     1.185115618809     0.431725285683     1.007825032230
         H            3.018342691682     1.012577618809    -1.169120714317     1.007825032230
         C            2.972641691682    -0.765986381191    -0.169722714317    12.000000000000
         H            2.546354691682    -1.337019381191    -0.991097714317     1.007825032230
         H            4.048040691682    -0.952676381191    -0.143938714317     1.007825032230
         H            2.538169691682    -1.150393381191     0.750113285683     1.007825032230

  Charge       = 0
  Multiplicity = 1
  Basis Set: AUG-CC-PVQZ
    Blend: AUG-CC-PVQZ
  Basis Set: (AUG-CC-PVQZ AUX)
    Blend: AUG-CC-PVQZ-JKFIT

    Orbital Energies [Eh]
    ---------------------

    Doubly Occupied:

       1A    -20.492831     2A    -15.567792     3A    -15.560731
       4A    -11.327928     5A    -11.261009     6A    -11.242865
       7A    -11.221511     8A     -1.356057     9A     -1.211039
      10A     -1.198526    11A     -1.004038    12A     -0.920501
      13A     -0.916996    14A     -0.771600    15A     -0.689601
      16A     -0.674841    17A     -0.638318    18A     -0.628792
      19A     -0.618953    20A     -0.581439    21A     -0.571519
      22A     -0.563850    23A     -0.543031    24A     -0.540421
      25A     -0.533574    26A     -0.485394    27A     -0.426994
      28A     -0.404597    29A     -0.374064

  @DF-RHF Final Energy:  -342.38572368198140

   => Energetics <=

    Nuclear Repulsion Energy =            313.1563684654186090
    One-Electron Energy =               -1086.4265626073429303
    Two-Electron Energy =                 430.8844704599429178
    Total Energy =                       -342.3857236819814034

  Dipole Moment: [D]
     X:     6.3604      Y:     1.1147      Z:    -0.6457     Total:     6.4895

  Basis Set: (AUG-CC-PVQZ AUX)
    Blend: AUG-CC-PVQZ-RI
	 Reference Energy          =    -342.3857236819814034 [Eh]
	 Singles Energy            =      -0.0000000000000000 [Eh]
	 Same-Spin Energy          =      -0.3653953199928520 [Eh]
	 Opposite-Spin Energy      =      -1.3062627283004389 [Eh]
	 Correlation Energy        =      -1.6716580482932910 [Eh]
	 Total Energy              =    -344.0573817302746988 [Eh]

	 ================> DF-SCS-MP2 Energies <==================
	-----------------------------------------------------------
	 SCS Same-Spin Scale       =       0.3333333333333333 [-]
	 SCS Opposite-Spin Scale   =       1.2000000000000000 [-]
	 SCS Same-Spin Energy      =      -0.1217984399976173 [Eh]
	 SCS Opposite-Spin Energy  =      -1.5675152739605267 [Eh]
	 SCS Correlation Energy    =      -1.6893137139581440 [Eh]
	 SCS Total Energy          =    -344.0750373959395461 [Eh]
	-----------------------------------------------------------

*** Psi4 exiting successfully. Buy a developer a beer!
