                               Psi4 1.4a2.dev224

  ==> Input File <==

--------------------------------------------------------------------------
#Generated by lconvert.py for cbs job

memory 40 GB

molecule  {
0 1
  C       -0.7785730    -0.4633210     2.4903880
  H        0.2247450    -0.0509530     2.4134840
  H       -0.7224800    -1.4870920     2.8545850
  H       -1.3519080     0.1108170     3.2136840
  C       -1.5205030    -0.4566280     1.1723250
  O       -2.7008350    -0.7835860     1.0895970
  N       -0.7919540    -0.0696400     0.1005890
  H        0.1941120     0.1457080     0.2029250
  C       -1.3977980    -0.0560820    -1.2113180
  H       -2.3149280     0.5288910    -1.1997100
  H       -0.6988040     0.3872610    -1.9153660
  H       -1.6529820    -1.0615290    -1.5454350
--
0 1
  N        2.0493320     0.2445110     0.2751620
  H        2.4529980     0.7844310     1.0303620
  H        2.4673360     0.6118920    -0.5704840
  C        2.4216350    -1.1666720     0.4289150
  H        1.9953470    -1.7377040    -0.3924610
  H        3.4970330    -1.3533610     0.4546980
  H        1.9871620    -1.5510790     1.3487510
units angstrom
no_reorient
symmetry c1
}

set {
scf_type DF
mp2_type DF
e_convergence 7
reference rhf
}

energy('mp2/aug-cc-pv[tq]z', bsse_type='cp')
--------------------------------------------------------------------------

    Molecular point group: c1
  Charge       = 0
  Multiplicity = 1
  Basis Set: AUG-CC-PVTZ
    Blend: AUG-CC-PVTZ
  Basis Set: (AUG-CC-PVTZ AUX)
    Blend: AUG-CC-PVTZ-JKFIT
  @DF-RHF Final Energy:   -95.25539188259336
    Total Energy =                        -95.2553918825933579
  Basis Set: (AUG-CC-PVTZ AUX)
    Blend: AUG-CC-PVTZ-RI
	 Reference Energy          =     -95.2553918825933579 [Eh]
	 Singles Energy            =      -0.0000000000000000 [Eh]
	 Same-Spin Energy          =      -0.0953933865872726 [Eh]
	 Opposite-Spin Energy      =      -0.3517059851364145 [Eh]
	 Correlation Energy        =      -0.4470993717236871 [Eh]
	 Total Energy              =     -95.7024912543170387 [Eh]
	 SCS Total Energy          =     -95.7092368602861399 [Eh]
    Molecular point group: c1
  Basis Set: AUG-CC-PVQZ
    Blend: AUG-CC-PVQZ
  Basis Set: (AUG-CC-PVQZ AUX)
    Blend: AUG-CC-PVQZ-JKFIT
  @DF-RHF Final Energy:   -95.26137184988171
    Total Energy =                        -95.2613718498817121
  Basis Set: (AUG-CC-PVQZ AUX)
  @DF-RHF Final Energy:   -95.25549319634123
    Total Energy =                        -95.2554931963412344
  @DF-RHF Final Energy:   -95.26140774226279
    Total Energy =                        -95.2614077422627901
  @DF-RHF Final Energy:  -247.10269803273115
    Total Energy =                       -247.1026980327311549
  @DF-RHF Final Energy:  -247.11802224658481
    Total Energy =                       -247.1180222465848146
  @DF-RHF Final Energy:  -247.10255721348216
    Total Energy =                       -247.1025572134821573
  @DF-RHF Final Energy:  -247.11799434171212
    Total Energy =                       -247.1179943417121194
  Multiplicity = 1
  @DF-RHF Final Energy:  -342.36061315472728
    Total Energy =                       -342.3606131547272753
	 Singles Energy            =      -0.0000000000000000 [Eh]
	 Same-Spin Energy          =      -0.3468130598248387 [Eh]
	 Opposite-Spin Energy      =      -1.1692329956249967 [Eh]
	 Correlation Energy        =      -1.5160460554498354 [Eh]
	 Total Energy              =    -343.8766592101771380 [Eh]
	 SCS Total Energy          =    -343.8792971027522185 [Eh]
    Molecular point group: c1

    Geometry (in Angstrom), charge = 0, multiplicity = 1:

       Center              X                  Y                   Z               Mass
    ------------   -----------------  -----------------  -----------------  -----------------
         C           -0.444549658472    -0.074191914322     1.883302315566    12.000000000000
         H            0.558768341528     0.338176085678     1.806398315566     1.007825032230
         H           -0.388456658472    -1.097962914322     2.247499315566     1.007825032230
         H           -1.017884658472     0.499946085678     2.606598315566     1.007825032230
         C           -1.186479658472    -0.067498914322     0.565239315566    12.000000000000
         O           -2.366811658472    -0.394456914322     0.482511315566    15.994914619570
         N           -0.457930658472     0.319489085678    -0.506496684434    14.003074004430
         H            0.528135341528     0.534837085678    -0.404160684434     1.007825032230
         C           -1.063774658472     0.333047085678    -1.818403684434    12.000000000000
         H           -1.980904658472     0.918020085678    -1.806795684434     1.007825032230
         H           -0.364780658472     0.776390085678    -2.522451684434     1.007825032230
         H           -1.318958658472    -0.672399914322    -2.152520684434     1.007825032230
         N            2.383355341528     0.633640085678    -0.331923684434    14.003074004430
         H            2.787021341528     1.173560085678     0.423276315566     1.007825032230
         H            2.801359341528     1.001021085678    -1.177569684434     1.007825032230
         C            2.755658341528    -0.777542914322    -0.178170684434    12.000000000000
         H            2.329370341528    -1.348574914322    -0.999546684434     1.007825032230
         H            3.831056341528    -0.964231914322    -0.152387684434     1.007825032230
         H            2.321185341528    -1.161949914322     0.741665315566     1.007825032230

  Charge       = 0
  Multiplicity = 1
  Basis Set: AUG-CC-PVQZ
    Blend: AUG-CC-PVQZ
  Basis Set: (AUG-CC-PVQZ AUX)
    Blend: AUG-CC-PVQZ-JKFIT

    Orbital Energies [Eh]
    ---------------------

    Doubly Occupied:

       1A    -20.488546     2A    -15.572667     3A    -15.549823
       4A    -11.323370     5A    -11.264468     6A    -11.239373
       7A    -11.220157     8A     -1.351787     9A     -1.212054
      10A     -1.199336    11A     -1.001627    12A     -0.925203
      13A     -0.913589    14A     -0.769392    15A     -0.696395
      16A     -0.673429    17A     -0.640111    18A     -0.627962
      19A     -0.615079    20A     -0.586232    21A     -0.569446
      22A     -0.561020    23A     -0.544764    24A     -0.540506
      25A     -0.530750    26A     -0.482155    27A     -0.431748
      28A     -0.400052    29A     -0.367833

  @DF-RHF Final Energy:  -342.38186419403775

   => Energetics <=

    Nuclear Repulsion Energy =            319.8267715412074494
    One-Electron Energy =               -1099.8195247949408895
    Two-Electron Energy =                 437.6108890596956940
    Total Energy =                       -342.3818641940377461

  Dipole Moment: [D]
     X:     6.6273      Y:     1.1418      Z:    -0.6553     Total:     6.7568

  Basis Set: (AUG-CC-PVQZ AUX)
    Blend: AUG-CC-PVQZ-RI
	 Reference Energy          =    -342.3818641940377461 [Eh]
	 Singles Energy            =      -0.0000000000000000 [Eh]
	 Same-Spin Energy          =      -0.3672705881325681 [Eh]
	 Opposite-Spin Energy      =      -1.3082580592857966 [Eh]
	 Correlation Energy        =      -1.6755286474183646 [Eh]
	 Total Energy              =    -344.0573928414561351 [Eh]

	 ================> DF-SCS-MP2 Energies <==================
	-----------------------------------------------------------
	 SCS Same-Spin Scale       =       0.3333333333333333 [-]
	 SCS Opposite-Spin Scale   =       1.2000000000000000 [-]
	 SCS Same-Spin Energy      =      -0.1224235293775227 [Eh]
	 SCS Opposite-Spin Energy  =      -1.5699096711429559 [Eh]
	 SCS Correlation Energy    =      -1.6923332005204785 [Eh]
	 SCS Total Energy          =    -344.0741973945582117 [Eh]
	-----------------------------------------------------------

*** Psi4 exiting successfully. Buy a developer a beer!
