                               Psi4 1.4a2.dev224

  ==> Input File <==

--------------------------------------------------------------------------
#Generated by lconvert.py for cbs job

memory 40 GB

molecule  {
0 1
  C       -0.7785730    -0.4633210     2.4903880
  H        0.2247450    -0.0509530     2.4134840
  H       -0.7224800    -1.4870920     2.8545850
  H       -1.3519080     0.1108170     3.2136840
  C       -1.5205030    -0.4566280     1.1723250
  O       -2.7008350    -0.7835860     1.0895970
  N       -0.7919540    -0.0696400     0.1005890
  H        0.1941120     0.1457080     0.2029250
  C       -1.3977980    -0.0560820    -1.2113180
  H       -2.3149280     0.5288910    -1.1997100
  H       -0.6988040     0.3872610    -1.9153660
  H       -1.6529820    -1.0615290    -1.5454350
--
0 1
  N        1.6369830     0.2225510     0.2591060
  H        2.0406490     0.7624700     1.0143060
  H        2.0549870     0.5899320    -0.5865400
  C        2.0092860    -1.1886320     0.4128590
  H        1.5829990    -1.7596650    -0.4085170
  H        3.0846850    -1.3753220     0.4386420
  H        1.5748130    -1.5730390     1.3326950
units angstrom
no_reorient
symmetry c1
}

set {
scf_type DF
mp2_type DF
e_convergence 7
reference rhf
}

energy('mp2/aug-cc-pv[tq]z', bsse_type='cp')
--------------------------------------------------------------------------

    Molecular point group: c1
  Charge       = 0
  Multiplicity = 1
  Basis Set: AUG-CC-PVTZ
    Blend: AUG-CC-PVTZ
  Basis Set: (AUG-CC-PVTZ AUX)
    Blend: AUG-CC-PVTZ-JKFIT
  @DF-RHF Final Energy:   -95.25539188575354
    Total Energy =                        -95.2553918857535393
  Basis Set: (AUG-CC-PVTZ AUX)
    Blend: AUG-CC-PVTZ-RI
	 Reference Energy          =     -95.2553918857535393 [Eh]
	 Singles Energy            =      -0.0000000000000000 [Eh]
	 Same-Spin Energy          =      -0.0953933844538206 [Eh]
	 Opposite-Spin Energy      =      -0.3517059838010575 [Eh]
	 Correlation Energy        =      -0.4470993682548781 [Eh]
	 Total Energy              =     -95.7024912540084216 [Eh]
	 SCS Total Energy          =     -95.7092368611327515 [Eh]
    Molecular point group: c1
  Basis Set: AUG-CC-PVQZ
    Blend: AUG-CC-PVQZ
  Basis Set: (AUG-CC-PVQZ AUX)
    Blend: AUG-CC-PVQZ-JKFIT
  @DF-RHF Final Energy:   -95.26137185274946
    Total Energy =                        -95.2613718527494626
  Basis Set: (AUG-CC-PVQZ AUX)
  @DF-RHF Final Energy:   -95.25553392943010
    Total Energy =                        -95.2555339294301007
  @DF-RHF Final Energy:   -95.26141846894586
    Total Energy =                        -95.2614184689458625
  @DF-RHF Final Energy:  -247.10274966163880
    Total Energy =                       -247.1027496616388248
  @DF-RHF Final Energy:  -247.11803437570501
    Total Energy =                       -247.1180343757050082
  @DF-RHF Final Energy:  -247.10255721311674
    Total Energy =                       -247.1025572131167110
  @DF-RHF Final Energy:  -247.11799434111111
    Total Energy =                       -247.1179943411111140
  Multiplicity = 1
  @DF-RHF Final Energy:  -342.33438977532671
    Total Energy =                       -342.3343897753267129
	 Singles Energy            =      -0.0000000000000000 [Eh]
	 Same-Spin Energy          =      -0.3512024595904749 [Eh]
	 Opposite-Spin Energy      =      -1.1741714023089740 [Eh]
	 Correlation Energy        =      -1.5253738618994488 [Eh]
	 Total Energy              =    -343.8597636372261377 [Eh]
	 SCS Total Energy          =    -343.8604629446276135 [Eh]
    Molecular point group: c1

    Geometry (in Angstrom), charge = 0, multiplicity = 1:

       Center              X                  Y                   Z               Mass
    ------------   -----------------  -----------------  -----------------  -----------------
         C           -0.321582923125    -0.067643185186     1.888090381534    12.000000000000
         H            0.681735076875     0.344724814814     1.811186381534     1.007825032230
         H           -0.265489923125    -1.091414185186     2.252287381534     1.007825032230
         H           -0.894917923125     0.506494814814     2.611386381534     1.007825032230
         C           -1.063512923125    -0.060950185186     0.570027381534    12.000000000000
         O           -2.243844923125    -0.387908185186     0.487299381534    15.994914619570
         N           -0.334963923125     0.326037814814    -0.501708618466    14.003074004430
         H            0.651102076875     0.541385814814    -0.399372618466     1.007825032230
         C           -0.940807923125     0.339595814814    -1.813615618466    12.000000000000
         H           -1.857937923125     0.924568814814    -1.802007618466     1.007825032230
         H           -0.241813923125     0.782938814814    -2.517663618466     1.007825032230
         H           -1.195991923125    -0.665851185186    -2.147732618466     1.007825032230
         N            2.093973076875     0.618228814814    -0.343191618466    14.003074004430
         H            2.497639076875     1.158147814814     0.412008381534     1.007825032230
         H            2.511977076875     0.985609814814    -1.188837618466     1.007825032230
         C            2.466276076875    -0.792954185186    -0.189438618466    12.000000000000
         H            2.039989076875    -1.363987185186    -1.010814618466     1.007825032230
         H            3.541675076875    -0.979644185186    -0.163655618466     1.007825032230
         H            2.031803076875    -1.177361185186     0.730397381534     1.007825032230

  Charge       = 0
  Multiplicity = 1
  Basis Set: AUG-CC-PVQZ
    Blend: AUG-CC-PVQZ
  Basis Set: (AUG-CC-PVQZ AUX)
    Blend: AUG-CC-PVQZ-JKFIT

    Orbital Energies [Eh]
    ---------------------

    Doubly Occupied:

       1A    -20.479287     2A    -15.581514     3A    -15.522334
       4A    -11.313433     5A    -11.271207     6A    -11.232027
       7A    -11.218108     8A     -1.342733     9A     -1.234227
      10A     -1.185988    11A     -0.997470    12A     -0.935807
      13A     -0.907008    14A     -0.776640    15A     -0.711786
      16A     -0.675925    17A     -0.642918    18A     -0.621892
      19A     -0.608072    20A     -0.593233    21A     -0.566681
      22A     -0.557541    23A     -0.550112    24A     -0.542699
      25A     -0.525467    26A     -0.475283    27A     -0.428347
      28A     -0.388879    29A     -0.353980

  @DF-RHF Final Energy:  -342.35562611912752

   => Energetics <=

    Nuclear Repulsion Energy =            330.3396698670463252
    One-Electron Energy =               -1120.9093987797123191
    Two-Electron Energy =                 448.2141027935385296
    Total Energy =                       -342.3556261191275212

  Dipole Moment: [D]
     X:     7.2109      Y:     1.1981      Z:    -0.6515     Total:     7.3387

  Basis Set: (AUG-CC-PVQZ AUX)
    Blend: AUG-CC-PVQZ-RI
	 Reference Energy          =    -342.3556261191275212 [Eh]
	 Singles Energy            =      -0.0000000000000000 [Eh]
	 Same-Spin Energy          =      -0.3716696075295445 [Eh]
	 Opposite-Spin Energy      =      -1.3128452627191565 [Eh]
	 Correlation Energy        =      -1.6845148702487009 [Eh]
	 Total Energy              =    -344.0401409893761979 [Eh]

	 ================> DF-SCS-MP2 Energies <==================
	-----------------------------------------------------------
	 SCS Same-Spin Scale       =       0.3333333333333333 [-]
	 SCS Opposite-Spin Scale   =       1.2000000000000000 [-]
	 SCS Same-Spin Energy      =      -0.1238898691765148 [Eh]
	 SCS Opposite-Spin Energy  =      -1.5754143152629878 [Eh]
	 SCS Correlation Energy    =      -1.6993041844395027 [Eh]
	 SCS Total Energy          =    -344.0549303035670050 [Eh]
	-----------------------------------------------------------

*** Psi4 exiting successfully. Buy a developer a beer!
