                               Psi4 1.4a2.dev224

  ==> Input File <==

--------------------------------------------------------------------------
#Generated by lconvert.py for cbs job

memory 20 GB

molecule  {
0 1
  C      -0.778570   -0.463320    2.490390
  H       0.224750   -0.050950    2.413480
  H      -0.722480   -1.487090    2.854590
  H      -1.351910    0.110820    3.213680
  C      -1.520500   -0.456630    1.172330
  O      -2.700840   -0.783590    1.089600
  N      -0.791950   -0.069640    0.100590
  H       0.194110    0.145710    0.202920
  C      -1.397800   -0.056080   -1.211320
  H      -2.314930    0.528890   -1.199710
  H      -0.698800    0.387260   -1.915370
  H      -1.652980   -1.061530   -1.545430
--
0 1
  N       3.492210    0.321350    0.331340
  H       3.895870    0.861270    1.086540
  H       3.910210    0.688730   -0.514300
  C       3.864510   -1.089830    0.485100
  H       3.438220   -1.660860   -0.336280
  H       4.939910   -1.276520    0.510880
  H       3.430040   -1.474240    1.404930
units angstrom
no_reorient
symmetry c1
}

set {
scf_type DF
mp2_type DF
e_convergence 7
reference rhf
}

energy('mp2/aug-cc-pv[tq]z', bsse_type='cp')
--------------------------------------------------------------------------

    Molecular point group: c1
  Charge       = 0
  Multiplicity = 1
  Basis Set: AUG-CC-PVTZ
    Blend: AUG-CC-PVTZ
  Basis Set: (AUG-CC-PVTZ AUX)
    Blend: AUG-CC-PVTZ-JKFIT
  @DF-RHF Final Energy:   -95.25539217491351
    Total Energy =                        -95.2553921749135100
  Basis Set: (AUG-CC-PVTZ AUX)
    Blend: AUG-CC-PVTZ-RI
	 Reference Energy          =     -95.2553921749135100 [Eh]
	 Singles Energy            =      -0.0000000000000000 [Eh]
	 Same-Spin Energy          =      -0.0953933557660913 [Eh]
	 Opposite-Spin Energy      =      -0.3517057941019669 [Eh]
	 Correlation Energy        =      -0.4470991498680582 [Eh]
	 Total Energy              =     -95.7024913247815618 [Eh]
	 SCS Total Energy          =     -95.7092369130912317 [Eh]
    Molecular point group: c1
  Basis Set: AUG-CC-PVQZ
    Blend: AUG-CC-PVQZ
  Basis Set: (AUG-CC-PVQZ AUX)
    Blend: AUG-CC-PVQZ-JKFIT
  @DF-RHF Final Energy:   -95.26137215664656
    Total Energy =                        -95.2613721566465586
  Basis Set: (AUG-CC-PVQZ AUX)
  @DF-RHF Final Energy:   -95.25541697006014
    Total Energy =                        -95.2554169700601392
  @DF-RHF Final Energy:   -95.26138413336749
    Total Energy =                        -95.2613841333674856
  @DF-RHF Final Energy:  -247.10259331470056
    Total Energy =                       -247.1025933147005276
  @DF-RHF Final Energy:  -247.11800152512293
    Total Energy =                       -247.1180015251229634
  @DF-RHF Final Energy:  -247.10255658624595
    Total Energy =                       -247.1025565862459530
  @DF-RHF Final Energy:  -247.11799366059768
    Total Energy =                       -247.1179936605976764
  Multiplicity = 1
  @DF-RHF Final Energy:  -342.36174458023191
    Total Energy =                       -342.3617445802319139
	 Singles Energy            =      -0.0000000000000000 [Eh]
	 Same-Spin Energy          =      -0.3424170683883426 [Eh]
	 Opposite-Spin Energy      =      -1.1631806849094444 [Eh]
	 Correlation Energy        =      -1.5055977532977871 [Eh]
	 Total Energy              =    -343.8673423335296775 [Eh]
	 SCS Total Energy          =    -343.8717004249193678 [Eh]
    Molecular point group: c1

    Geometry (in Angstrom), charge = 0, multiplicity = 1:

       Center              X                  Y                   Z               Mass
    ------------   -----------------  -----------------  -----------------  -----------------
         C           -0.874827643276    -0.097105074572     1.866549405849    12.000000000000
         H            0.128492356724     0.315264925428     1.789639405849     1.007825032230
         H           -0.818737643276    -1.120875074572     2.230749405849     1.007825032230
         H           -1.448167643276     0.477034925428     2.589839405849     1.007825032230
         C           -1.616757643276    -0.090415074572     0.548489405849    12.000000000000
         O           -2.797097643276    -0.417375074572     0.465759405849    15.994914619570
         N           -0.888207643276     0.296574925428    -0.523250594151    14.003074004430
         H            0.097852356724     0.511924925428    -0.420920594151     1.007825032230
         C           -1.494057643276     0.310134925428    -1.835160594151    12.000000000000
         H           -2.411187643276     0.895104925428    -1.823550594151     1.007825032230
         H           -0.795057643276     0.753474925428    -2.539210594151     1.007825032230
         H           -1.749237643276    -0.695315074572    -2.169270594151     1.007825032230
         N            3.395952356724     0.687564925428    -0.292500594151    14.003074004430
         H            3.799612356724     1.227484925428     0.462699405849     1.007825032230
         H            3.813952356724     1.054944925428    -1.138140594151     1.007825032230
         C            3.768252356724    -0.723615074572    -0.138740594151    12.000000000000
         H            3.341962356724    -1.294645074572    -0.960120594151     1.007825032230
         H            4.843652356724    -0.910305074572    -0.112960594151     1.007825032230
         H            3.333782356724    -1.108025074572     0.781089405849     1.007825032230

  Charge       = 0
  Multiplicity = 1
  Basis Set: AUG-CC-PVQZ
    Blend: AUG-CC-PVQZ
  Basis Set: (AUG-CC-PVQZ AUX)
    Blend: AUG-CC-PVQZ-JKFIT

    Orbital Energies [Eh]
    ---------------------

    Doubly Occupied:

       1A    -20.500311     2A    -15.575959     3A    -15.555582
       4A    -11.335823     5A    -11.253175     6A    -11.249371
       7A    -11.225465     8A     -1.363571     9A     -1.220920
      10A     -1.185996    11A     -1.009540    12A     -0.923750
      13A     -0.911042    14A     -0.781108    15A     -0.680894
      16A     -0.676946    17A     -0.643614    18A     -0.626371
      19A     -0.619339    20A     -0.576302    21A     -0.571434
      22A     -0.569694    23A     -0.549560    24A     -0.539670
      25A     -0.531681    26A     -0.491414    27A     -0.412602
      28A     -0.411594    29A     -0.384336

  @DF-RHF Final Energy:  -342.38311370685113

   => Energetics <=

    Nuclear Repulsion Energy =            294.7519751494296543
    One-Electron Energy =               -1049.5160509414552052
    Two-Electron Energy =                 412.3809620851744171
    Total Energy =                       -342.3831137068511339

  Dipole Moment: [D]
     X:     5.8836      Y:     1.0769      Z:    -0.6047     Total:     6.0118

  Basis Set: (AUG-CC-PVQZ AUX)
    Blend: AUG-CC-PVQZ-RI
	 Reference Energy          =    -342.3831137068511339 [Eh]
	 Singles Energy            =      -0.0000000000000000 [Eh]
	 Same-Spin Energy          =      -0.3629627350444277 [Eh]
	 Opposite-Spin Energy      =      -1.3035474425563609 [Eh]
	 Correlation Energy        =      -1.6665101776007885 [Eh]
	 Total Energy              =    -344.0496238844519326 [Eh]

	 ================> DF-SCS-MP2 Energies <==================
	-----------------------------------------------------------
	 SCS Same-Spin Scale       =       0.3333333333333333 [-]
	 SCS Opposite-Spin Scale   =       1.2000000000000000 [-]
	 SCS Same-Spin Energy      =      -0.1209875783481426 [Eh]
	 SCS Opposite-Spin Energy  =      -1.5642569310676331 [Eh]
	 SCS Correlation Energy    =      -1.6852445094157757 [Eh]
	 SCS Total Energy          =    -344.0683582162669154 [Eh]
	-----------------------------------------------------------

*** Psi4 exiting successfully. Buy a developer a beer!
