                               Psi4 1.4a2.dev224

  ==> Input File <==

--------------------------------------------------------------------------
#Generated by lconvert.py for cbs job

memory 40 GB

molecule  {
0 1
  C       -0.7785730    -0.4633210     2.4903880
  H        0.2247450    -0.0509530     2.4134840
  H       -0.7224800    -1.4870920     2.8545850
  H       -1.3519080     0.1108170     3.2136840
  C       -1.5205030    -0.4566280     1.1723250
  O       -2.7008350    -0.7835860     1.0895970
  N       -0.7919540    -0.0696400     0.1005890
  H        0.1941120     0.1457080     0.2029250
  C       -1.3977980    -0.0560820    -1.2113180
  H       -2.3149280     0.5288910    -1.1997100
  H       -0.6988040     0.3872610    -1.9153660
  H       -1.6529820    -1.0615290    -1.5454350
--
0 1
  N        1.8431080     0.2335280     0.2671320
  H        2.2467740     0.7734480     1.0223320
  H        2.2611110     0.6009090    -0.5785140
  C        2.2154100    -1.1776550     0.4208850
  H        1.7891230    -1.7486870    -0.4004910
  H        3.2908090    -1.3643440     0.4466680
  H        1.7809380    -1.5620620     1.3407210
units angstrom
no_reorient
symmetry c1
}

set {
scf_type DF
mp2_type DF
e_convergence 7
reference rhf
}

energy('mp2/aug-cc-pv[tq]z', bsse_type='cp')
--------------------------------------------------------------------------

    Molecular point group: c1
  Charge       = 0
  Multiplicity = 1
  Basis Set: AUG-CC-PVTZ
    Blend: AUG-CC-PVTZ
  Basis Set: (AUG-CC-PVTZ AUX)
    Blend: AUG-CC-PVTZ-JKFIT
  @DF-RHF Final Energy:   -95.25539190512977
    Total Energy =                        -95.2553919051297697
  Basis Set: (AUG-CC-PVTZ AUX)
    Blend: AUG-CC-PVTZ-RI
	 Reference Energy          =     -95.2553919051297697 [Eh]
	 Singles Energy            =      -0.0000000000000000 [Eh]
	 Same-Spin Energy          =      -0.0953933837385838 [Eh]
	 Opposite-Spin Energy      =      -0.3517059721418851 [Eh]
	 Correlation Energy        =      -0.4470993558804690 [Eh]
	 Total Energy              =     -95.7024912610102376 [Eh]
	 SCS Total Energy          =     -95.7092368662795536 [Eh]
    Molecular point group: c1
  Basis Set: AUG-CC-PVQZ
    Blend: AUG-CC-PVQZ
  Basis Set: (AUG-CC-PVQZ AUX)
    Blend: AUG-CC-PVQZ-JKFIT
  @DF-RHF Final Energy:   -95.26137187302375
    Total Energy =                        -95.2613718730237480
  Basis Set: (AUG-CC-PVQZ AUX)
  @DF-RHF Final Energy:   -95.25551690084536
    Total Energy =                        -95.2555169008453646
  @DF-RHF Final Energy:   -95.26141263936441
    Total Energy =                        -95.2614126393644085
  @DF-RHF Final Energy:  -247.10272113914925
    Total Energy =                       -247.1027211391492528
  @DF-RHF Final Energy:  -247.11802759464632
    Total Energy =                       -247.1180275946463212
  @DF-RHF Final Energy:  -247.10255721333499
    Total Energy =                       -247.1025572133349897
  @DF-RHF Final Energy:  -247.11799433986624
    Total Energy =                       -247.1179943398662431
  Multiplicity = 1
  @DF-RHF Final Energy:  -342.35246961335992
    Total Energy =                       -342.3524696133599150
	 Singles Energy            =      -0.0000000000000000 [Eh]
	 Same-Spin Energy          =      -0.3486770298464417 [Eh]
	 Opposite-Spin Energy      =      -1.1713234015353922 [Eh]
	 Correlation Energy        =      -1.5200004313818338 [Eh]
	 Total Energy              =    -343.8724700447417604 [Eh]
	 SCS Total Energy          =    -343.8742833718178531 [Eh]
    Molecular point group: c1

    Geometry (in Angstrom), charge = 0, multiplicity = 1:

       Center              X                  Y                   Z               Mass
    ------------   -----------------  -----------------  -----------------  -----------------
         C           -0.383051394741    -0.070916669646     1.885696944971    12.000000000000
         H            0.620266605259     0.341451330354     1.808792944971     1.007825032230
         H           -0.326958394741    -1.094687669646     2.249893944971     1.007825032230
         H           -0.956386394741     0.503221330354     2.608992944971     1.007825032230
         C           -1.124981394741    -0.064223669646     0.567633944971    12.000000000000
         O           -2.305313394741    -0.391181669646     0.484905944971    15.994914619570
         N           -0.396432394741     0.322764330354    -0.504102055029    14.003074004430
         H            0.589633605259     0.538112330354    -0.401766055029     1.007825032230
         C           -1.002276394741     0.336322330354    -1.816009055029    12.000000000000
         H           -1.919406394741     0.921295330354    -1.804401055029     1.007825032230
         H           -0.303282394741     0.779665330354    -2.520057055029     1.007825032230
         H           -1.257460394741    -0.669124669646    -2.150126055029     1.007825032230
         N            2.238629605259     0.625932330354    -0.337559055029    14.003074004430
         H            2.642295605259     1.165852330354     0.417640944971     1.007825032230
         H            2.656632605259     0.993313330354    -1.183205055029     1.007825032230
         C            2.610931605259    -0.785250669646    -0.183806055029    12.000000000000
         H            2.184644605259    -1.356282669646    -1.005182055029     1.007825032230
         H            3.686330605259    -0.971939669646    -0.158023055029     1.007825032230
         H            2.176459605259    -1.169657669646     0.736029944971     1.007825032230

  Charge       = 0
  Multiplicity = 1
  Basis Set: AUG-CC-PVQZ
    Blend: AUG-CC-PVQZ
  Basis Set: (AUG-CC-PVQZ AUX)
    Blend: AUG-CC-PVQZ-JKFIT

    Orbital Energies [Eh]
    ---------------------

    Doubly Occupied:

       1A    -20.484548     2A    -15.576616     3A    -15.538522
       4A    -11.319093     5A    -11.267442     6A    -11.236183
       7A    -11.219172     8A     -1.347840     9A     -1.220031
      10A     -1.194168    11A     -0.999683    12A     -0.929634
      13A     -0.910611    14A     -0.770345    15A     -0.702867
      16A     -0.673831    17A     -0.642182    18A     -0.625230
      19A     -0.611736    20A     -0.589943    21A     -0.567881
      22A     -0.559006    23A     -0.547717    24A     -0.540321
      25A     -0.528413    26A     -0.479180    27A     -0.432564
      28A     -0.395523    29A     -0.361900

  @DF-RHF Final Energy:  -342.37369227223400

   => Energetics <=

    Nuclear Repulsion Energy =            324.8234174894345188
    One-Electron Energy =               -1109.8498554973150476
    Two-Electron Energy =                 442.6527457356465334
    Total Energy =                       -342.3736922722339955

  Dipole Moment: [D]
     X:     6.8777      Y:     1.1670      Z:    -0.6570     Total:     7.0069

  Basis Set: (AUG-CC-PVQZ AUX)
    Blend: AUG-CC-PVQZ-RI
	 Reference Energy          =    -342.3736922722339955 [Eh]
	 Singles Energy            =      -0.0000000000000000 [Eh]
	 Same-Spin Energy          =      -0.3691418873682768 [Eh]
	 Opposite-Spin Energy      =      -1.3102241184244745 [Eh]
	 Correlation Energy        =      -1.6793660057927513 [Eh]
	 Total Energy              =    -344.0530582780267537 [Eh]

	 ================> DF-SCS-MP2 Energies <==================
	-----------------------------------------------------------
	 SCS Same-Spin Scale       =       0.3333333333333333 [-]
	 SCS Opposite-Spin Scale   =       1.2000000000000000 [-]
	 SCS Same-Spin Energy      =      -0.1230472957894256 [Eh]
	 SCS Opposite-Spin Energy  =      -1.5722689421093694 [Eh]
	 SCS Correlation Energy    =      -1.6953162378987949 [Eh]
	 SCS Total Energy          =    -344.0690085101327895 [Eh]
	-----------------------------------------------------------

*** Psi4 exiting successfully. Buy a developer a beer!
