                               Psi4 1.4a2.dev224

  ==> Input File <==

--------------------------------------------------------------------------
#Generated by lconvert.py for cbs job

memory 40 GB

molecule  {
0 1
  C       -0.7785730    -0.4633210     2.4903880
  H        0.2247450    -0.0509530     2.4134840
  H       -0.7224800    -1.4870920     2.8545850
  H       -1.3519080     0.1108170     3.2136840
  C       -1.5205030    -0.4566280     1.1723250
  O       -2.7008350    -0.7835860     1.0895970
  N       -0.7919540    -0.0696400     0.1005890
  H        0.1941120     0.1457080     0.2029250
  C       -1.3977980    -0.0560820    -1.2113180
  H       -2.3149280     0.5288910    -1.1997100
  H       -0.6988040     0.3872610    -1.9153660
  H       -1.6529820    -1.0615290    -1.5454350
--
0 1
  N        2.1523940     0.2500000     0.2791750
  H        2.5560600     0.7899190     1.0343750
  H        2.5703980     0.6173810    -0.5664710
  C        2.5246970    -1.1611830     0.4329280
  H        2.0984100    -1.7322160    -0.3884480
  H        3.6000960    -1.3478720     0.4587110
  H        2.0902240    -1.5455900     1.3527640
units angstrom
no_reorient
symmetry c1
}

set {
scf_type DF
mp2_type DF
e_convergence 7
reference rhf
}

energy('mp2/aug-cc-pv[tq]z', bsse_type='cp')
--------------------------------------------------------------------------

    Molecular point group: c1
  Charge       = 0
  Multiplicity = 1
  Basis Set: AUG-CC-PVTZ
    Blend: AUG-CC-PVTZ
  Basis Set: (AUG-CC-PVTZ AUX)
    Blend: AUG-CC-PVTZ-JKFIT
  @DF-RHF Final Energy:   -95.25539188811788
    Total Energy =                        -95.2553918881178845
  Basis Set: (AUG-CC-PVTZ AUX)
    Blend: AUG-CC-PVTZ-RI
	 Reference Energy          =     -95.2553918881178845 [Eh]
	 Singles Energy            =      -0.0000000000000000 [Eh]
	 Same-Spin Energy          =      -0.0953933836608774 [Eh]
	 Opposite-Spin Energy      =      -0.3517059823230406 [Eh]
	 Correlation Energy        =      -0.4470993659839180 [Eh]
	 Total Energy              =     -95.7024912541018011 [Eh]
	 SCS Total Energy          =     -95.7092368614591607 [Eh]
    Molecular point group: c1
  Basis Set: AUG-CC-PVQZ
    Blend: AUG-CC-PVQZ
  Basis Set: (AUG-CC-PVQZ AUX)
    Blend: AUG-CC-PVQZ-JKFIT
  @DF-RHF Final Energy:   -95.26137185507920
    Total Energy =                        -95.2613718550792044
  Basis Set: (AUG-CC-PVQZ AUX)
  @DF-RHF Final Energy:   -95.25548264866671
    Total Energy =                        -95.2554826486667139
  @DF-RHF Final Energy:   -95.26140516622705
    Total Energy =                        -95.2614051662270498
  @DF-RHF Final Energy:  -247.10268776816096
    Total Energy =                       -247.1026877681609335
  @DF-RHF Final Energy:  -247.11801978967588
    Total Energy =                       -247.1180197896758841
  @DF-RHF Final Energy:  -247.10255721340496
    Total Energy =                       -247.1025572134049639
  @DF-RHF Final Energy:  -247.11799434270739
    Total Energy =                       -247.1179943427073908
  Multiplicity = 1
  @DF-RHF Final Energy:  -342.36262864920673
    Total Energy =                       -342.3626286492067265
	 Singles Energy            =      -0.0000000000000000 [Eh]
	 Same-Spin Energy          =      -0.3460832442507893 [Eh]
	 Opposite-Spin Energy      =      -1.1683756237698240 [Eh]
	 Correlation Energy        =      -1.5144588680206132 [Eh]
	 Total Energy              =    -343.8770875172273236 [Eh]
	 SCS Total Energy          =    -343.8800404791474534 [Eh]
    Molecular point group: c1

    Geometry (in Angstrom), charge = 0, multiplicity = 1:

       Center              X                  Y                   Z               Mass
    ------------   -----------------  -----------------  -----------------  -----------------
         C           -0.475283836701    -0.075828771770     1.882105597285    12.000000000000
         H            0.528034163299     0.336539228230     1.805201597285     1.007825032230
         H           -0.419190836701    -1.099599771770     2.246302597285     1.007825032230
         H           -1.048618836701     0.498309228230     2.605401597285     1.007825032230
         C           -1.217213836701    -0.069135771770     0.564042597285    12.000000000000
         O           -2.397545836701    -0.396093771770     0.481314597285    15.994914619570
         N           -0.488664836701     0.317852228230    -0.507693402715    14.003074004430
         H            0.497401163299     0.533200228230    -0.405357402715     1.007825032230
         C           -1.094508836701     0.331410228230    -1.819600402715    12.000000000000
         H           -2.011638836701     0.916383228230    -1.807992402715     1.007825032230
         H           -0.395514836701     0.774753228230    -2.523648402715     1.007825032230
         H           -1.349692836701    -0.674036771770    -2.153717402715     1.007825032230
         N            2.455683163299     0.637492228230    -0.329107402715    14.003074004430
         H            2.859349163299     1.177411228230     0.426092597285     1.007825032230
         H            2.873687163299     1.004873228230    -1.174753402715     1.007825032230
         C            2.827986163299    -0.773690771770    -0.175354402715    12.000000000000
         H            2.401699163299    -1.344723771770    -0.996730402715     1.007825032230
         H            3.903385163299    -0.960379771770    -0.149571402715     1.007825032230
         H            2.393513163299    -1.158097771770     0.744481597285     1.007825032230

  Charge       = 0
  Multiplicity = 1
  Basis Set: AUG-CC-PVQZ
    Blend: AUG-CC-PVQZ
  Basis Set: (AUG-CC-PVQZ AUX)
    Blend: AUG-CC-PVQZ-JKFIT

    Orbital Energies [Eh]
    ---------------------

    Doubly Occupied:

       1A    -20.490167     2A    -15.570933     3A    -15.554112
       4A    -11.325098     5A    -11.263205     6A    -11.240682
       7A    -11.220623     8A     -1.353398     9A     -1.210324
      10A     -1.200263    11A     -1.002493    12A     -0.923431
      13A     -0.914853    14A     -0.769864    15A     -0.693818
      16A     -0.673740    17A     -0.639121    18A     -0.628768
      19A     -0.616517    20A     -0.584514    21A     -0.570185
      22A     -0.562013    23A     -0.543485    24A     -0.540971
      25A     -0.531771    26A     -0.483372    27A     -0.430393
      28A     -0.401803    29A     -0.370209

  @DF-RHF Final Energy:  -342.38389851099288

   => Energetics <=

    Nuclear Repulsion Energy =            317.5015707087659393
    One-Electron Energy =               -1095.1506860673550818
    Two-Electron Energy =                 435.2652168475962640
    Total Energy =                       -342.3838985109928785

  Dipole Moment: [D]
     X:     6.5263      Y:     1.1314      Z:    -0.6527     Total:     6.6557

  Basis Set: (AUG-CC-PVQZ AUX)
    Blend: AUG-CC-PVQZ-RI
	 Reference Energy          =    -342.3838985109928785 [Eh]
	 Singles Energy            =      -0.0000000000000000 [Eh]
	 Same-Spin Energy          =      -0.3665387012757423 [Eh]
	 Opposite-Spin Energy      =      -1.3074822542292908 [Eh]
	 Correlation Energy        =      -1.6740209555050329 [Eh]
	 Total Energy              =    -344.0579194664979354 [Eh]

	 ================> DF-SCS-MP2 Energies <==================
	-----------------------------------------------------------
	 SCS Same-Spin Scale       =       0.3333333333333333 [-]
	 SCS Opposite-Spin Scale   =       1.2000000000000000 [-]
	 SCS Same-Spin Energy      =      -0.1221795670919141 [Eh]
	 SCS Opposite-Spin Energy  =      -1.5689787050751489 [Eh]
	 SCS Correlation Energy    =      -1.6911582721670630 [Eh]
	 SCS Total Energy          =    -344.0750567831599369 [Eh]
	-----------------------------------------------------------

*** Psi4 exiting successfully. Buy a developer a beer!
