                               Psi4 1.4a2.dev224

  ==> Input File <==

--------------------------------------------------------------------------
#Generated by lconvert.py for cbs job

memory 40 GB

molecule  {
0 1
  C       -0.7785730    -0.4633210     2.4903880
  H        0.2247450    -0.0509530     2.4134840
  H       -0.7224800    -1.4870920     2.8545850
  H       -1.3519080     0.1108170     3.2136840
  C       -1.5205030    -0.4566280     1.1723250
  O       -2.7008350    -0.7835860     1.0895970
  N       -0.7919540    -0.0696400     0.1005890
  H        0.1941120     0.1457080     0.2029250
  C       -1.3977980    -0.0560820    -1.2113180
  H       -2.3149280     0.5288910    -1.1997100
  H       -0.6988040     0.3872610    -1.9153660
  H       -1.6529820    -1.0615290    -1.5454350
--
0 1
  N        2.2553570     0.2554830     0.2831840
  H        2.6590230     0.7954030     1.0383840
  H        2.6733600     0.6228650    -0.5624620
  C        2.6276590    -1.1557000     0.4369370
  H        2.2013720    -1.7267320    -0.3844390
  H        3.7030580    -1.3423890     0.4627200
  H        2.1931870    -1.5401070     1.3567730
units angstrom
no_reorient
symmetry c1
}

set {
scf_type DF
mp2_type DF
e_convergence 7
reference rhf
}

energy('mp2/aug-cc-pv[tq]z', bsse_type='cp')
--------------------------------------------------------------------------

    Molecular point group: c1
  Charge       = 0
  Multiplicity = 1
  Basis Set: AUG-CC-PVTZ
    Blend: AUG-CC-PVTZ
  Basis Set: (AUG-CC-PVTZ AUX)
    Blend: AUG-CC-PVTZ-JKFIT
  @DF-RHF Final Energy:   -95.25539189809436
    Total Energy =                        -95.2553918980943592
  Basis Set: (AUG-CC-PVTZ AUX)
    Blend: AUG-CC-PVTZ-RI
	 Reference Energy          =     -95.2553918980943592 [Eh]
	 Singles Energy            =      -0.0000000000000000 [Eh]
	 Same-Spin Energy          =      -0.0953933849909266 [Eh]
	 Opposite-Spin Energy      =      -0.3517059768198604 [Eh]
	 Correlation Energy        =      -0.4470993618107870 [Eh]
	 Total Energy              =     -95.7024912599051447 [Eh]
	 SCS Total Energy          =     -95.7092368652751730 [Eh]
    Molecular point group: c1
  Basis Set: AUG-CC-PVQZ
    Blend: AUG-CC-PVQZ
  Basis Set: (AUG-CC-PVQZ AUX)
    Blend: AUG-CC-PVQZ-JKFIT
  @DF-RHF Final Energy:   -95.26137186545640
    Total Energy =                        -95.2613718654563968
  Basis Set: (AUG-CC-PVQZ AUX)
  @DF-RHF Final Energy:   -95.25547252352114
    Total Energy =                        -95.2554725235211350
  @DF-RHF Final Energy:   -95.26140255930744
    Total Energy =                        -95.2614025593074416
  @DF-RHF Final Energy:  -247.10267806092602
    Total Energy =                       -247.1026780609259959
  @DF-RHF Final Energy:  -247.11801754337267
    Total Energy =                       -247.1180175433726731
  @DF-RHF Final Energy:  -247.10255721409624
    Total Energy =                       -247.1025572140962367
  @DF-RHF Final Energy:  -247.11799434172644
    Total Energy =                       -247.1179943417264440
  Multiplicity = 1
  @DF-RHF Final Energy:  -342.36381089053850
    Total Energy =                       -342.3638108905385025
	 Singles Energy            =      -0.0000000000000000 [Eh]
	 Same-Spin Energy          =      -0.3454637891691852 [Eh]
	 Opposite-Spin Energy      =      -1.1676092456149276 [Eh]
	 Correlation Energy        =      -1.5130730347841128 [Eh]
	 Total Energy              =    -343.8768839253226020 [Eh]
	 SCS Total Energy          =    -343.8800965816661233 [Eh]
    Molecular point group: c1

    Geometry (in Angstrom), charge = 0, multiplicity = 1:

       Center              X                  Y                   Z               Mass
    ------------   -----------------  -----------------  -----------------  -----------------
         C           -0.505988328414    -0.077463888365     1.880910071845    12.000000000000
         H            0.497329671586     0.334904111635     1.804006071845     1.007825032230
         H           -0.449895328414    -1.101234888365     2.245107071845     1.007825032230
         H           -1.079323328414     0.496674111635     2.604206071845     1.007825032230
         C           -1.247918328414    -0.070770888365     0.562847071845    12.000000000000
         O           -2.428250328414    -0.397728888365     0.480119071845    15.994914619570
         N           -0.519369328414     0.316217111635    -0.508888928155    14.003074004430
         H            0.466696671586     0.531565111635    -0.406552928155     1.007825032230
         C           -1.125213328414     0.329775111635    -1.820795928155    12.000000000000
         H           -2.042343328414     0.914748111635    -1.809187928155     1.007825032230
         H           -0.426219328414     0.773118111635    -2.524843928155     1.007825032230
         H           -1.380397328414    -0.675671888365    -2.154912928155     1.007825032230
         N            2.527941671586     0.641340111635    -0.326293928155    14.003074004430
         H            2.931607671586     1.181260111635     0.428906071845     1.007825032230
         H            2.945944671586     1.008722111635    -1.171939928155     1.007825032230
         C            2.900243671586    -0.769842888365    -0.172540928155    12.000000000000
         H            2.473956671586    -1.340874888365    -0.993916928155     1.007825032230
         H            3.975642671586    -0.956531888365    -0.146757928155     1.007825032230
         H            2.465771671586    -1.154249888365     0.747295071845     1.007825032230

  Charge       = 0
  Multiplicity = 1
  Basis Set: AUG-CC-PVQZ
    Blend: AUG-CC-PVQZ
  Basis Set: (AUG-CC-PVQZ AUX)
    Blend: AUG-CC-PVQZ-JKFIT

    Orbital Energies [Eh]
    ---------------------

    Doubly Occupied:

       1A    -20.491584     2A    -15.569316     3A    -15.557702
       4A    -11.326605     5A    -11.262060     6A    -11.241837
       7A    -11.221073     8A     -1.354811     9A     -1.210197
      10A     -1.199808    11A     -1.003294    12A     -0.921878
      13A     -0.915984    14A     -0.770647    15A     -0.691576
      16A     -0.674239    17A     -0.638489    18A     -0.629050
      19A     -0.617803    20A     -0.582918    21A     -0.570875
      22A     -0.562959    23A     -0.542733    24A     -0.541143
      25A     -0.532711    26A     -0.484443    27A     -0.428756
      28A     -0.403301    29A     -0.372268

  @DF-RHF Final Energy:  -342.38509720676217

   => Energetics <=

    Nuclear Repulsion Energy =            315.2824934130703696
    One-Electron Energy =               -1090.6950631936497302
    Two-Electron Energy =                 433.0274725738171924
    Total Energy =                       -342.3850972067621683

  Dipole Moment: [D]
     X:     6.4381      Y:     1.1224      Z:    -0.6494     Total:     6.5674

  Basis Set: (AUG-CC-PVQZ AUX)
    Blend: AUG-CC-PVQZ-RI
	 Reference Energy          =    -342.3850972067621683 [Eh]
	 Singles Energy            =      -0.0000000000000000 [Eh]
	 Same-Spin Energy          =      -0.3659194548808724 [Eh]
	 Opposite-Spin Energy      =      -1.3068221776603275 [Eh]
	 Correlation Energy        =      -1.6727416325411999 [Eh]
	 Total Energy              =    -344.0578388393033720 [Eh]

	 ================> DF-SCS-MP2 Energies <==================
	-----------------------------------------------------------
	 SCS Same-Spin Scale       =       0.3333333333333333 [-]
	 SCS Opposite-Spin Scale   =       1.2000000000000000 [-]
	 SCS Same-Spin Energy      =      -0.1219731516269575 [Eh]
	 SCS Opposite-Spin Energy  =      -1.5681866131923929 [Eh]
	 SCS Correlation Energy    =      -1.6901597648193505 [Eh]
	 SCS Total Energy          =    -344.0752569715814957 [Eh]
	-----------------------------------------------------------

*** Psi4 exiting successfully. Buy a developer a beer!
