                               Psi4 1.4a2.dev224

  ==> Input File <==

--------------------------------------------------------------------------
#Generated by lconvert.py for cbs job

memory 20 GB

molecule  {
0 1
  C      -0.778570   -0.463320    2.490390
  H       0.224750   -0.050950    2.413480
  H      -0.722480   -1.487090    2.854590
  H      -1.351910    0.110820    3.213680
  C      -1.520500   -0.456630    1.172330
  O      -2.700840   -0.783590    1.089600
  N      -0.791950   -0.069640    0.100590
  H       0.194110    0.145710    0.202920
  C      -1.397800   -0.056080   -1.211320
  H      -2.314930    0.528890   -1.199710
  H      -0.698800    0.387260   -1.915370
  H      -1.652980   -1.061530   -1.545430
--
0 1
  N       4.110580    0.354280    0.355420
  H       4.514250    0.894200    1.110620
  H       4.528580    0.721660   -0.490220
  C       4.482880   -1.056900    0.509170
  H       4.056600   -1.627930   -0.312200
  H       5.558280   -1.243590    0.534960
  H       4.048410   -1.441310    1.429010
units angstrom
no_reorient
symmetry c1
}

set {
scf_type DF
mp2_type DF
e_convergence 7
reference rhf
}

energy('mp2/aug-cc-pv[tq]z', bsse_type='cp')
--------------------------------------------------------------------------

    Molecular point group: c1
  Charge       = 0
  Multiplicity = 1
  Basis Set: AUG-CC-PVTZ
    Blend: AUG-CC-PVTZ
  Basis Set: (AUG-CC-PVTZ AUX)
    Blend: AUG-CC-PVTZ-JKFIT
  @DF-RHF Final Energy:   -95.25539208696406
    Total Energy =                        -95.2553920869640649
  Basis Set: (AUG-CC-PVTZ AUX)
    Blend: AUG-CC-PVTZ-RI
	 Reference Energy          =     -95.2553920869640649 [Eh]
	 Singles Energy            =      -0.0000000000000000 [Eh]
	 Same-Spin Energy          =      -0.0953933783458945 [Eh]
	 Opposite-Spin Energy      =      -0.3517058413296577 [Eh]
	 Correlation Energy        =      -0.4470992196755521 [Eh]
	 Total Energy              =     -95.7024913066396152 [Eh]
	 SCS Total Energy          =     -95.7092368893416250 [Eh]
    Molecular point group: c1
  Basis Set: AUG-CC-PVQZ
    Blend: AUG-CC-PVQZ
  Basis Set: (AUG-CC-PVQZ AUX)
    Blend: AUG-CC-PVQZ-JKFIT
  @DF-RHF Final Energy:   -95.26137206774455
    Total Energy =                        -95.2613720677445457
  Basis Set: (AUG-CC-PVQZ AUX)
  @DF-RHF Final Energy:   -95.25540642800486
    Total Energy =                        -95.2554064280048607
  @DF-RHF Final Energy:   -95.26137988336123
    Total Energy =                        -95.2613798833612293
  @DF-RHF Final Energy:  -247.10257750980506
    Total Energy =                       -247.1025775098050303
  @DF-RHF Final Energy:  -247.11799833095682
    Total Energy =                       -247.1179983309568229
  @DF-RHF Final Energy:  -247.10255658655808
    Total Energy =                       -247.1025565865580802
  @DF-RHF Final Energy:  -247.11799366142279
    Total Energy =                       -247.1179936614227586
  Multiplicity = 1
  @DF-RHF Final Energy:  -342.36038602028293
    Total Energy =                       -342.3603860202829310
	 Singles Energy            =      -0.0000000000000000 [Eh]
	 Same-Spin Energy          =      -0.3420712792241458 [Eh]
	 Opposite-Spin Energy      =      -1.1625700796115015 [Eh]
	 Correlation Energy        =      -1.5046413588356473 [Eh]
	 Total Energy              =    -343.8650273791186009 [Eh]
	 SCS Total Energy          =    -343.8694938755581347 [Eh]
    Molecular point group: c1

    Geometry (in Angstrom), charge = 0, multiplicity = 1:

       Center              X                  Y                   Z               Mass
    ------------   -----------------  -----------------  -----------------  -----------------
         C           -1.059232193684    -0.106925142603     1.859369652533    12.000000000000
         H           -0.055912193684     0.305444857397     1.782459652533     1.007825032230
         H           -1.003142193684    -1.130695142603     2.223569652533     1.007825032230
         H           -1.632572193684     0.467214857397     2.582659652533     1.007825032230
         C           -1.801162193684    -0.100235142603     0.541309652533    12.000000000000
         O           -2.981502193684    -0.427195142603     0.458579652533    15.994914619570
         N           -1.072612193684     0.286754857397    -0.530430347467    14.003074004430
         H           -0.086552193684     0.502104857397    -0.428100347467     1.007825032230
         C           -1.678462193684     0.300314857397    -1.842340347467    12.000000000000
         H           -2.595592193684     0.885284857397    -1.830730347467     1.007825032230
         H           -0.979462193684     0.743654857397    -2.546390347467     1.007825032230
         H           -1.933642193684    -0.705135142603    -2.176450347467     1.007825032230
         N            3.829917806316     0.710674857397    -0.275600347467    14.003074004430
         H            4.233587806316     1.250594857397     0.479599652533     1.007825032230
         H            4.247917806316     1.078054857397    -1.121240347467     1.007825032230
         C            4.202217806316    -0.700505142603    -0.121850347467    12.000000000000
         H            3.775937806316    -1.271535142603    -0.943220347467     1.007825032230
         H            5.277617806316    -0.887195142603    -0.096060347467     1.007825032230
         H            3.767747806316    -1.084915142603     0.797989652533     1.007825032230

  Charge       = 0
  Multiplicity = 1
  Basis Set: AUG-CC-PVQZ
    Blend: AUG-CC-PVQZ
  Basis Set: (AUG-CC-PVQZ AUX)
    Blend: AUG-CC-PVQZ-JKFIT

    Orbital Energies [Eh]
    ---------------------

    Doubly Occupied:

       1A    -20.502190     2A    -15.578981     3A    -15.551693
       4A    -11.337798     5A    -11.251129     6A    -11.250572
       7A    -11.226968     8A     -1.365463     9A     -1.223479
      10A     -1.182373    11A     -1.011264    12A     -0.925604
      13A     -0.908158    14A     -0.783895    15A     -0.682749
      16A     -0.673455    17A     -0.645557    18A     -0.628271
      19A     -0.616144    20A     -0.577822    21A     -0.572369
      22A     -0.567457    23A     -0.551568    24A     -0.541447
      25A     -0.528841    26A     -0.493060    27A     -0.413950
      28A     -0.407894    29A     -0.386714

  @DF-RHF Final Energy:  -342.38177577879003

   => Energetics <=

    Nuclear Repulsion Energy =            287.4673291165782416
    One-Electron Energy =               -1034.9244804026859583
    Two-Electron Energy =                 405.0753755073177445
    Total Energy =                       -342.3817757787900291

  Dipole Moment: [D]
     X:     5.7635      Y:     1.0707      Z:    -0.5914     Total:     5.8918

  Basis Set: (AUG-CC-PVQZ AUX)
    Blend: AUG-CC-PVQZ-RI
	 Reference Energy          =    -342.3817757787900291 [Eh]
	 Singles Energy            =      -0.0000000000000000 [Eh]
	 Same-Spin Energy          =      -0.3626448544184014 [Eh]
	 Opposite-Spin Energy      =      -1.3031648937391944 [Eh]
	 Correlation Energy        =      -1.6658097481575957 [Eh]
	 Total Energy              =    -344.0475855269476142 [Eh]

	 ================> DF-SCS-MP2 Energies <==================
	-----------------------------------------------------------
	 SCS Same-Spin Scale       =       0.3333333333333333 [-]
	 SCS Opposite-Spin Scale   =       1.2000000000000000 [-]
	 SCS Same-Spin Energy      =      -0.1208816181394671 [Eh]
	 SCS Opposite-Spin Energy  =      -1.5637978724870332 [Eh]
	 SCS Correlation Energy    =      -1.6846794906265004 [Eh]
	 SCS Total Energy          =    -344.0664552694165081 [Eh]
	-----------------------------------------------------------

*** Psi4 exiting successfully. Buy a developer a beer!
