                               Psi4 1.4a2.dev224

  ==> Input File <==

--------------------------------------------------------------------------
#Generated by lconvert.py for cbs job

memory 40 GB

molecule  {
0 1
  C       -0.7785730    -0.4633210     2.4903880
  H        0.2247450    -0.0509530     2.4134840
  H       -0.7224800    -1.4870920     2.8545850
  H       -1.3519080     0.1108170     3.2136840
  C       -1.5205030    -0.4566280     1.1723250
  O       -2.7008350    -0.7835860     1.0895970
  N       -0.7919540    -0.0696400     0.1005890
  H        0.1941120     0.1457080     0.2029250
  C       -1.3977980    -0.0560820    -1.2113180
  H       -2.3149280     0.5288910    -1.1997100
  H       -0.6988040     0.3872610    -1.9153660
  H       -1.6529820    -1.0615290    -1.5454350
--
0 1
  N        2.4615810     0.2664660     0.2912140
  H        2.8652470     0.8063860     1.0464140
  H        2.8795850     0.6338470    -0.5544320
  C        2.8338840    -1.1447170     0.4449660
  H        2.4075960    -1.7157490    -0.3764090
  H        3.9092820    -1.3314060     0.4707500
  H        2.3994110    -1.5291240     1.3648020
units angstrom
no_reorient
symmetry c1
}

set {
scf_type DF
mp2_type DF
e_convergence 7
reference rhf
}

energy('mp2/aug-cc-pv[tq]z', bsse_type='cp')
--------------------------------------------------------------------------

    Molecular point group: c1
  Charge       = 0
  Multiplicity = 1
  Basis Set: AUG-CC-PVTZ
    Blend: AUG-CC-PVTZ
  Basis Set: (AUG-CC-PVTZ AUX)
    Blend: AUG-CC-PVTZ-JKFIT
  @DF-RHF Final Energy:   -95.25539188805961
    Total Energy =                        -95.2553918880596058
  Basis Set: (AUG-CC-PVTZ AUX)
    Blend: AUG-CC-PVTZ-RI
	 Reference Energy          =     -95.2553918880596058 [Eh]
	 Singles Energy            =      -0.0000000000000000 [Eh]
	 Same-Spin Energy          =      -0.0953933877470289 [Eh]
	 Opposite-Spin Energy      =      -0.3517059805146769 [Eh]
	 Correlation Energy        =      -0.4470993682617059 [Eh]
	 Total Energy              =     -95.7024912563213093 [Eh]
	 SCS Total Energy          =     -95.7092368605928954 [Eh]
    Molecular point group: c1
  Basis Set: AUG-CC-PVQZ
    Blend: AUG-CC-PVQZ
  Basis Set: (AUG-CC-PVQZ AUX)
    Blend: AUG-CC-PVQZ-JKFIT
  @DF-RHF Final Energy:   -95.26137185588072
    Total Energy =                        -95.2613718558807250
  Basis Set: (AUG-CC-PVQZ AUX)
  @DF-RHF Final Energy:   -95.25545485518785
    Total Energy =                        -95.2554548551878497
  @DF-RHF Final Energy:   -95.26139819525854
    Total Energy =                        -95.2613981952585362
  @DF-RHF Final Energy:  -247.10265957941357
    Total Energy =                       -247.1026595794135687
  @DF-RHF Final Energy:  -247.11801385829105
    Total Energy =                       -247.1180138582910786
  @DF-RHF Final Energy:  -247.10255721386267
    Total Energy =                       -247.1025572138626671
  @DF-RHF Final Energy:  -247.11799434251418
    Total Energy =                       -247.1179943425141801
  Multiplicity = 1
  @DF-RHF Final Energy:  -342.36465165982651
    Total Energy =                       -342.3646516598265066
	 Singles Energy            =      -0.0000000000000000 [Eh]
	 Same-Spin Energy          =      -0.3444874525957548 [Eh]
	 Opposite-Spin Energy      =      -1.1663023154196861 [Eh]
	 Correlation Energy        =      -1.5107897680154410 [Eh]
	 Total Energy              =    -343.8754414278419631 [Eh]
	 SCS Total Energy          =    -343.8790435891953621 [Eh]
    Molecular point group: c1

    Geometry (in Angstrom), charge = 0, multiplicity = 1:

       Center              X                  Y                   Z               Mass
    ------------   -----------------  -----------------  -----------------  -----------------
         C           -0.567486592144    -0.080739123360     1.878515567401    12.000000000000
         H            0.435831407856     0.331628876640     1.801611567401     1.007825032230
         H           -0.511393592144    -1.104510123360     2.242712567401     1.007825032230
         H           -1.140821592144     0.493398876640     2.601811567401     1.007825032230
         C           -1.309416592144    -0.074046123360     0.560452567401    12.000000000000
         O           -2.489748592144    -0.401004123360     0.477724567401    15.994914619570
         N           -0.580867592144     0.312941876640    -0.511283432599    14.003074004430
         H            0.405198407856     0.528289876640    -0.408947432599     1.007825032230
         C           -1.186711592144     0.326499876640    -1.823190432599    12.000000000000
         H           -2.103841592144     0.911472876640    -1.811582432599     1.007825032230
         H           -0.487717592144     0.769842876640    -2.527238432599     1.007825032230
         H           -1.441895592144    -0.678947123360    -2.157307432599     1.007825032230
         N            2.672667407856     0.649047876640    -0.320658432599    14.003074004430
         H            3.076333407856     1.188967876640     0.434541567401     1.007825032230
         H            3.090671407856     1.016428876640    -1.166304432599     1.007825032230
         C            3.044970407856    -0.762135123360    -0.166906432599    12.000000000000
         H            2.618682407856    -1.333167123360    -0.988281432599     1.007825032230
         H            4.120368407856    -0.948824123360    -0.141122432599     1.007825032230
         H            2.610497407856    -1.146542123360     0.752929567401     1.007825032230

  Charge       = 0
  Multiplicity = 1
  Basis Set: AUG-CC-PVQZ
    Blend: AUG-CC-PVQZ
  Basis Set: (AUG-CC-PVQZ AUX)
    Blend: AUG-CC-PVQZ-JKFIT

    Orbital Energies [Eh]
    ---------------------

    Doubly Occupied:

       1A    -20.493930     2A    -15.566351     3A    -15.563292
       4A    -11.329092     5A    -11.260042     6A    -11.243781
       7A    -11.221936     8A     -1.357158     9A     -1.212208
      10A     -1.197006    11A     -1.004728    12A     -0.919300
      13A     -0.917873    14A     -0.772632    15A     -0.687849
      16A     -0.675488    17A     -0.638532    18A     -0.628124
      19A     -0.619980    20A     -0.580075    21A     -0.572116
      22A     -0.564679    23A     -0.543705    24A     -0.539427
      25A     -0.534362    26A     -0.486241    27A     -0.425214
      28A     -0.405724    29A     -0.375633

  @DF-RHF Final Energy:  -342.38596147706278

   => Energetics <=

    Nuclear Repulsion Energy =            311.1232376612394432
    One-Electron Energy =               -1082.3454442229617598
    Two-Electron Energy =                 428.8362450846594811
    Total Energy =                       -342.3859614770627786

  Dipole Moment: [D]
     X:     6.2917      Y:     1.1080      Z:    -0.6416     Total:     6.4207

  Basis Set: (AUG-CC-PVQZ AUX)
    Blend: AUG-CC-PVQZ-RI
	 Reference Energy          =    -342.3859614770627786 [Eh]
	 Singles Energy            =      -0.0000000000000000 [Eh]
	 Same-Spin Energy          =      -0.3649532203341279 [Eh]
	 Opposite-Spin Energy      =      -1.3057903202420116 [Eh]
	 Correlation Energy        =      -1.6707435405761395 [Eh]
	 Total Energy              =    -344.0567050176389330 [Eh]

	 ================> DF-SCS-MP2 Energies <==================
	-----------------------------------------------------------
	 SCS Same-Spin Scale       =       0.3333333333333333 [-]
	 SCS Opposite-Spin Scale   =       1.2000000000000000 [-]
	 SCS Same-Spin Energy      =      -0.1216510734447093 [Eh]
	 SCS Opposite-Spin Energy  =      -1.5669483842904139 [Eh]
	 SCS Correlation Energy    =      -1.6885994577351233 [Eh]
	 SCS Total Energy          =    -344.0745609347978871 [Eh]
	-----------------------------------------------------------

*** Psi4 exiting successfully. Buy a developer a beer!
