                               Psi4 1.4a2.dev224

  ==> Input File <==

--------------------------------------------------------------------------
#Generated by lconvert.py for cbs job

memory 20 GB

molecule  {
0 1
  C      -0.778570   -0.463320    2.490390
  H       0.224750   -0.050950    2.413480
  H      -0.722480   -1.487090    2.854590
  H      -1.351910    0.110820    3.213680
  C      -1.520500   -0.456630    1.172330
  O      -2.700840   -0.783590    1.089600
  N      -0.791950   -0.069640    0.100590
  H       0.194110    0.145710    0.202920
  C      -1.397800   -0.056080   -1.211320
  H      -2.314930    0.528890   -1.199710
  H      -0.698800    0.387260   -1.915370
  H      -1.652980   -1.061530   -1.545430
--
0 1
  N       2.873830    0.288420    0.307270
  H       3.277500    0.828340    1.062470
  H       3.291830    0.655800   -0.538380
  C       3.246130   -1.122760    0.461020
  H       2.819850   -1.693790   -0.360360
  H       4.321530   -1.309450    0.486800
  H       2.811660   -1.507170    1.380850
units angstrom
no_reorient
symmetry c1
}

set {
scf_type DF
mp2_type DF
e_convergence 7
reference rhf
}

energy('mp2/aug-cc-pv[tq]z', bsse_type='cp')
--------------------------------------------------------------------------

    Molecular point group: c1
  Charge       = 0
  Multiplicity = 1
  Basis Set: AUG-CC-PVTZ
    Blend: AUG-CC-PVTZ
  Basis Set: (AUG-CC-PVTZ AUX)
    Blend: AUG-CC-PVTZ-JKFIT
  @DF-RHF Final Energy:   -95.25539192815104
    Total Energy =                        -95.2553919281510417
  Basis Set: (AUG-CC-PVTZ AUX)
    Blend: AUG-CC-PVTZ-RI
	 Reference Energy          =     -95.2553919281510417 [Eh]
	 Singles Energy            =      -0.0000000000000000 [Eh]
	 Same-Spin Energy          =      -0.0953934089571704 [Eh]
	 Opposite-Spin Energy      =      -0.3517059595415873 [Eh]
	 Correlation Energy        =      -0.4470993684987578 [Eh]
	 Total Energy              =     -95.7024912966497965 [Eh]
	 SCS Total Energy          =     -95.7092368825866657 [Eh]
    Molecular point group: c1
  Basis Set: AUG-CC-PVQZ
    Blend: AUG-CC-PVQZ
  Basis Set: (AUG-CC-PVQZ AUX)
    Blend: AUG-CC-PVQZ-JKFIT
  @DF-RHF Final Energy:   -95.26137190000026
    Total Energy =                        -95.2613719000002561
  Basis Set: (AUG-CC-PVQZ AUX)
  @DF-RHF Final Energy:   -95.25543493408092
    Total Energy =                        -95.2554349340809239
  @DF-RHF Final Energy:   -95.26139163737898
    Total Energy =                        -95.2613916373789777
  @DF-RHF Final Energy:  -247.10262493902974
    Total Energy =                       -247.1026249390297380
  @DF-RHF Final Energy:  -247.11800780835597
    Total Energy =                       -247.1180078083559692
  @DF-RHF Final Energy:  -247.10255658623660
    Total Energy =                       -247.1025565862365738
  @DF-RHF Final Energy:  -247.11799366032153
    Total Energy =                       -247.1179936603215310
  Multiplicity = 1
  @DF-RHF Final Energy:  -342.36380685133884
    Total Energy =                       -342.3638068513388362
	 Singles Energy            =      -0.0000000000000000 [Eh]
	 Same-Spin Energy          =      -0.3432628477313275 [Eh]
	 Opposite-Spin Energy      =      -1.1645017887953195 [Eh]
	 Correlation Energy        =      -1.5077646365266471 [Eh]
	 Total Energy              =    -343.8715714878654808 [Eh]
	 SCS Total Energy          =    -343.8756299471369857 [Eh]
    Molecular point group: c1

    Geometry (in Angstrom), charge = 0, multiplicity = 1:

       Center              X                  Y                   Z               Mass
    ------------   -----------------  -----------------  -----------------  -----------------
         C           -0.690420498036    -0.087285006540     1.873728869920    12.000000000000
         H            0.312899501964     0.325084993460     1.796818869920     1.007825032230
         H           -0.634330498036    -1.111055006540     2.237928869920     1.007825032230
         H           -1.263760498036     0.486854993460     2.597018869920     1.007825032230
         C           -1.432350498036    -0.080595006540     0.555668869920    12.000000000000
         O           -2.612690498036    -0.407555006540     0.472938869920    15.994914619570
         N           -0.703800498036     0.306394993460    -0.516071130080    14.003074004430
         H            0.282259501964     0.521744993460    -0.413741130080     1.007825032230
         C           -1.309650498036     0.319954993460    -1.827981130080    12.000000000000
         H           -2.226780498036     0.904924993460    -1.816371130080     1.007825032230
         H           -0.610650498036     0.763294993460    -2.532031130080     1.007825032230
         H           -1.564830498036    -0.685495006540    -2.162091130080     1.007825032230
         N            2.961979501964     0.664454993460    -0.309391130080    14.003074004430
         H            3.365649501964     1.204374993460     0.445808869920     1.007825032230
         H            3.379979501964     1.031834993460    -1.155041130080     1.007825032230
         C            3.334279501964    -0.746725006540    -0.155641130080    12.000000000000
         H            2.907999501964    -1.317755006540    -0.977021130080     1.007825032230
         H            4.409679501964    -0.933415006540    -0.129861130080     1.007825032230
         H            2.899809501964    -1.131135006540     0.764188869920     1.007825032230

  Charge       = 0
  Multiplicity = 1
  Basis Set: AUG-CC-PVQZ
    Blend: AUG-CC-PVQZ
  Basis Set: (AUG-CC-PVQZ AUX)
    Blend: AUG-CC-PVQZ-JKFIT

    Orbital Energies [Eh]
    ---------------------

    Doubly Occupied:

       1A    -20.497254     2A    -15.570369     3A    -15.561288
       4A    -11.332604     5A    -11.256788     6A    -11.246626
       7A    -11.223508     8A     -1.360492     9A     -1.216624
      10A     -1.191556    11A     -1.007045    12A     -0.920885
      13A     -0.915209    14A     -0.776656    15A     -0.682427
      16A     -0.677966    17A     -0.640698    18A     -0.624518
      19A     -0.622915    20A     -0.575591    21A     -0.574122
      22A     -0.567414    23A     -0.546488    24A     -0.537107
      25A     -0.535623    26A     -0.488868    27A     -0.418823
      28A     -0.409052    29A     -0.380267

  @DF-RHF Final Energy:  -342.38514690820404

   => Energetics <=

    Nuclear Repulsion Energy =            303.7937118918863462
    One-Electron Energy =               -1067.6401547108075647
    Two-Electron Energy =                 421.4612959107171832
    Total Energy =                       -342.3851469082040353

  Dipole Moment: [D]
     X:     6.0813      Y:     1.0899      Z:    -0.6250     Total:     6.2097

  Basis Set: (AUG-CC-PVQZ AUX)
    Blend: AUG-CC-PVQZ-RI
	 Reference Energy          =    -342.3851469082040353 [Eh]
	 Singles Energy            =      -0.0000000000000000 [Eh]
	 Same-Spin Energy          =      -0.3637670406924037 [Eh]
	 Opposite-Spin Energy      =      -1.3044876037331279 [Eh]
	 Correlation Energy        =      -1.6682546444255317 [Eh]
	 Total Energy              =    -344.0534015526295661 [Eh]

	 ================> DF-SCS-MP2 Energies <==================
	-----------------------------------------------------------
	 SCS Same-Spin Scale       =       0.3333333333333333 [-]
	 SCS Opposite-Spin Scale   =       1.2000000000000000 [-]
	 SCS Same-Spin Energy      =      -0.1212556802308012 [Eh]
	 SCS Opposite-Spin Energy  =      -1.5653851244797534 [Eh]
	 SCS Correlation Energy    =      -1.6866408047105548 [Eh]
	 SCS Total Energy          =    -344.0717877129146132 [Eh]
	-----------------------------------------------------------

*** Psi4 exiting successfully. Buy a developer a beer!
