                               Psi4 1.4a2.dev224

  ==> Input File <==

--------------------------------------------------------------------------
#Generated by lconvert.py for cbs job

memory 40 GB

molecule  {
0 1
  C       -0.7015030    -0.2906280     2.4068840
  H       -1.1832960     0.3956480     3.0988740
  H        0.3495620    -0.0303220     2.3078330
  H       -0.7940570    -1.2916050     2.8240390
  C       -1.4485460    -0.2448770     1.0918150
  O       -2.6604500    -0.4284790     1.0343460
  N       -0.6700570     0.0059170     0.0097770
  H        0.3266750     0.1225640     0.1415930
  C       -1.2270550     0.0897940    -1.3199680
  H       -2.2920240    -0.1065010    -1.2408780
  H       -1.0778020     1.0799400    -1.7485440
  H       -0.7766280    -0.6479990    -1.9833730
--
0 1
  C        1.4760130    -2.3171210     0.6421320
  H        2.0342380    -3.2271250     0.4362240
  H        0.5473210    -2.3236510     0.0778060
  H        1.2167940    -2.2936750     1.6990730
  C        2.2436490    -1.0627090     0.3058950
  O        1.6984620     0.0387270     0.2489230
  N        3.5704070    -1.2315230     0.0921470
  H        3.9467290    -2.1587690     0.1689040
  C        4.4576450    -0.1250570    -0.1968010
  H        3.8434530     0.7657530    -0.2766250
  H        5.1850600     0.0144080     0.6006020
  H        4.9826360    -0.2850390    -1.1359440
units angstrom
no_reorient
symmetry c1
}

set {
scf_type DF
mp2_type DF
e_convergence 7
reference rhf
}

energy('mp2/aug-cc-pv[tq]z', bsse_type='cp')
--------------------------------------------------------------------------

    Molecular point group: c1
  Charge       = 0
  Multiplicity = 1
  Basis Set: AUG-CC-PVTZ
    Blend: AUG-CC-PVTZ
  Basis Set: (AUG-CC-PVTZ AUX)
    Blend: AUG-CC-PVTZ-JKFIT
  @DF-RHF Final Energy:  -247.10247337963705
    Total Energy =                       -247.1024733796370469
  Basis Set: (AUG-CC-PVTZ AUX)
    Blend: AUG-CC-PVTZ-RI
	 Reference Energy          =    -247.1024733796370469 [Eh]
	 Singles Energy            =      -0.0000000000000000 [Eh]
	 Same-Spin Energy          =      -0.2464973197464401 [Eh]
	 Opposite-Spin Energy      =      -0.8098660481987606 [Eh]
	 Correlation Energy        =      -1.0563633679452007 [Eh]
	 Total Energy              =    -248.1588367475822565 [Eh]
	 SCS Total Energy          =    -248.1564784107243611 [Eh]
    Molecular point group: c1
  Basis Set: AUG-CC-PVQZ
    Blend: AUG-CC-PVQZ
  Basis Set: (AUG-CC-PVQZ AUX)
    Blend: AUG-CC-PVQZ-JKFIT
  @DF-RHF Final Energy:  -247.11790861464826
    Total Energy =                       -247.1179086146482291
  Basis Set: (AUG-CC-PVQZ AUX)
  @DF-RHF Final Energy:  -247.10275012111887
    Total Energy =                       -247.1027501211189019
  @DF-RHF Final Energy:  -247.11798530081342
    Total Energy =                       -247.1179853008134160
  @DF-RHF Final Energy:  -247.10233158324991
    Total Energy =                       -247.1023315832499065
  @DF-RHF Final Energy:  -247.11759877540061
    Total Energy =                       -247.1175987754006087
  @DF-RHF Final Energy:  -247.10211095073760
    Total Energy =                       -247.1021109507375968
  @DF-RHF Final Energy:  -247.11754817770094
    Total Energy =                       -247.1175481777009395
  @DF-RHF Final Energy:  -494.18407407909348
    Total Energy =                       -494.1840740790935342
  @DF-RHF Final Energy:  -494.21466204334047
    Total Energy =                       -494.2146620433404678
*** Psi4 exiting successfully. Buy a developer a beer!
                               Psi4 1.4a2.dev224
  @DF-RHF Final Energy:  -247.10247330671109
    Total Energy =                       -247.1024733067110901
  @DF-RHF Final Energy:  -247.11790853763210
    Total Energy =                       -247.1179085376321041
  @DF-RHF Final Energy:  -247.10270452080368
    Total Energy =                       -247.1027045208036839
  @DF-RHF Final Energy:  -247.11797428240499
    Total Energy =                       -247.1179742824049868
  @DF-RHF Final Energy:  -247.10230354983696
    Total Energy =                       -247.1023035498369609
  @DF-RHF Final Energy:  -247.11759168652014
    Total Energy =                       -247.1175916865201430
  @DF-RHF Final Energy:  -247.10211095111890
    Total Energy =                       -247.1021109511189024
  @DF-RHF Final Energy:  -247.11754817715129
    Total Energy =                       -247.1175481771512636
  @DF-RHF Final Energy:  -494.20164936523861
    Total Energy =                       -494.2016493652386089
  @DF-RHF Final Energy:  -494.23226098179896
    Total Energy =                       -494.2322609817989587
*** Psi4 exiting successfully. Buy a developer a beer!
                               Psi4 1.4a2.dev224
                               Psi4 1.4a2.dev224
                               Psi4 1.4a2.dev224
                               Psi4 1.4a2.dev224
                               Psi4 1.4a2.dev224
                               Psi4 1.4a2.dev224
                               Psi4 1.4a2.dev224
  @DF-RHF Final Energy:  -247.10247291711985
    Total Energy =                       -247.1024729171198828
  @DF-RHF Final Energy:  -247.11790813250815
    Total Energy =                       -247.1179081325081484
  @DF-RHF Final Energy:  -247.10251861465352
    Total Energy =                       -247.1025186146535475
  @DF-RHF Final Energy:  -247.11792648408942
    Total Energy =                       -247.1179264840894234
  @DF-RHF Final Energy:  -247.10215510412081
    Total Energy =                       -247.1021551041208113
  @DF-RHF Final Energy:  -247.11756146253725
    Total Energy =                       -247.1175614625372532
  @DF-RHF Final Energy:  -247.10211159656518
    Total Energy =                       -247.1021115965651802
  @DF-RHF Final Energy:  -247.11754885700776
    Total Energy =                       -247.1175488570077619
  @DF-RHF Final Energy:  -494.20953077264363
    Total Energy =                       -494.2095307726435749
  @DF-RHF Final Energy:  -494.24033943682508
    Total Energy =                       -494.2403394368250247
*** Psi4 exiting successfully. Buy a developer a beer!
                               Psi4 1.4a2.dev224
  @DF-RHF Final Energy:  -247.10247287780885
    Total Energy =                       -247.1024728778088502
  @DF-RHF Final Energy:  -247.11790809497720
    Total Energy =                       -247.1179080949772242
  @DF-RHF Final Energy:  -247.10250005622220
    Total Energy =                       -247.1025000562221976
  @DF-RHF Final Energy:  -247.11791956312766
    Total Energy =                       -247.1179195631276571
  @DF-RHF Final Energy:  -247.10213809433384
    Total Energy =                       -247.1021380943338386
  @DF-RHF Final Energy:  -247.11755693482607
    Total Energy =                       -247.1175569348260410
  @DF-RHF Final Energy:  -247.10211159698909
    Total Energy =                       -247.1021115969890616
  @DF-RHF Final Energy:  -247.11754885780834
    Total Energy =                       -247.1175488578083446
  Multiplicity = 1
  @DF-RHF Final Energy:  -494.20789588957598
    Total Energy =                       -494.2078958895759797
	 Singles Energy            =      -0.0000000000000000 [Eh]
	 Same-Spin Energy          =      -0.4934476533669410 [Eh]
	 Opposite-Spin Energy      =      -1.6207928364697761 [Eh]
	 Correlation Energy        =      -2.1142404898367171 [Eh]
	 Total Energy              =    -496.3221363794127114 [Eh]
	 SCS Total Energy          =    -496.3173298444620514 [Eh]
    Molecular point group: c1

    Geometry (in Angstrom), charge = 0, multiplicity = 1:

       Center              X                  Y                   Z               Mass
    ------------   -----------------  -----------------  -----------------  -----------------
         C           -2.556778951671     0.334725414327     1.889699750471    12.000000000000
         H           -3.038578951671     1.021005414327     2.581689750471     1.007825032230
         H           -1.505718951671     0.595035414327     1.790649750471     1.007825032230
         H           -2.649338951671    -0.666244585673     2.306859750471     1.007825032230
         C           -3.303828951671     0.380475414327     0.574629750471    12.000000000000
         O           -4.515728951671     0.196875414327     0.517169750471    15.994914619570
         N           -2.525338951671     0.631275414327    -0.507400249529    14.003074004430
         H           -1.528608951671     0.747915414327    -0.375590249529     1.007825032230
         C           -3.082338951671     0.715145414327    -1.837150249529    12.000000000000
         H           -4.147298951671     0.518855414327    -1.758060249529     1.007825032230
         H           -2.933078951671     1.705295414327    -2.265720249529     1.007825032230
         H           -2.631908951671    -0.022644585673    -2.500550249529     1.007825032230
         C            1.972471048329    -1.835494585673     0.308949750471    12.000000000000
         H            2.530701048329    -2.745494585673     0.103049750471     1.007825032230
         H            1.043781048329    -1.842024585673    -0.255370249529     1.007825032230
         H            1.713251048329    -1.812044585673     1.365899750471     1.007825032230
         C            2.740111048329    -0.581084585673    -0.027280249529    12.000000000000
         O            2.194921048329     0.520355414327    -0.084250249529    15.994914619570
         N            4.066871048329    -0.749894585673    -0.241030249529    14.003074004430
         H            4.443191048329    -1.677144585673    -0.164270249529     1.007825032230
         C            4.954101048329     0.356565414327    -0.529980249529    12.000000000000
         H            4.339911048329     1.247375414327    -0.609800249529     1.007825032230
         H            5.681521048329     0.496035414327     0.267419750471     1.007825032230
         H            5.479091048329     0.196585414327    -1.469120249529     1.007825032230

  Charge       = 0
  Multiplicity = 1
  Basis Set: AUG-CC-PVQZ
    Blend: AUG-CC-PVQZ
  Basis Set: (AUG-CC-PVQZ AUX)
    Blend: AUG-CC-PVQZ-JKFIT

    Orbital Energies [Eh]
    ---------------------

    Doubly Occupied:

       1A    -20.517825     2A    -20.499224     3A    -15.594611
       4A    -15.576384     5A    -11.356797     6A    -11.337431
       7A    -11.262975     8A    -11.246684     9A    -11.244465
      10A    -11.224226    11A     -1.380805    12A     -1.362727
      13A     -1.240024    14A     -1.221653    15A     -1.029255
      16A     -1.009021    17A     -0.942112    18A     -0.922819
      19A     -0.799602    20A     -0.779833    21A     -0.700646
      22A     -0.680891    23A     -0.662070    24A     -0.643991
      25A     -0.643116    26A     -0.624629    27A     -0.596918
      28A     -0.589194    29A     -0.578118    30A     -0.570510
      31A     -0.565706    32A     -0.553288    33A     -0.545610
      34A     -0.536222    35A     -0.514261    36A     -0.495430
      37A     -0.431484    38A     -0.411336    39A     -0.401384
      40A     -0.382980

  @DF-RHF Final Energy:  -494.23873020741951

   => Energetics <=

    Nuclear Repulsion Energy =            492.3474466344868006
    One-Electron Energy =               -1649.8198323450765201
    Two-Electron Energy =                 663.2336555031700982
    Total Energy =                       -494.2387302074195077

  Dipole Moment: [D]
     X:     7.0282      Y:    -2.6421      Z:    -0.5496     Total:     7.5285

  Basis Set: (AUG-CC-PVQZ AUX)
    Blend: AUG-CC-PVQZ-RI
	 Reference Energy          =    -494.2387302074195077 [Eh]
	 Singles Energy            =      -0.0000000000000000 [Eh]
	 Same-Spin Energy          =      -0.5231981389614906 [Eh]
	 Opposite-Spin Energy      =      -1.8210194551602088 [Eh]
	 Correlation Energy        =      -2.3442175941216994 [Eh]
	 Total Energy              =    -496.5829478015411951 [Eh]

	 ================> DF-SCS-MP2 Energies <==================
	-----------------------------------------------------------
	 SCS Same-Spin Scale       =       0.3333333333333333 [-]
	 SCS Opposite-Spin Scale   =       1.2000000000000000 [-]
	 SCS Same-Spin Energy      =      -0.1743993796538302 [Eh]
	 SCS Opposite-Spin Energy  =      -2.1852233461922506 [Eh]
	 SCS Correlation Energy    =      -2.3596227258460809 [Eh]
	 SCS Total Energy          =    -496.5983529332655735 [Eh]
	-----------------------------------------------------------

*** Psi4 exiting successfully. Buy a developer a beer!
