                               Psi4 1.4a2.dev224

  ==> Input File <==

--------------------------------------------------------------------------
#Generated by lconvert.py for cbs job

memory 40 GB

molecule  {
0 1
  C       -0.7015030    -0.2906280     2.4068840
  H       -1.1832960     0.3956480     3.0988740
  H        0.3495620    -0.0303220     2.3078330
  H       -0.7940570    -1.2916050     2.8240390
  C       -1.4485460    -0.2448770     1.0918150
  O       -2.6604500    -0.4284790     1.0343460
  N       -0.6700570     0.0059170     0.0097770
  H        0.3266750     0.1225640     0.1415930
  C       -1.2270550     0.0897940    -1.3199680
  H       -2.2920240    -0.1065010    -1.2408780
  H       -1.0778020     1.0799400    -1.7485440
  H       -0.7766280    -0.6479990    -1.9833730
--
0 1
  C        1.9660370    -2.3470690     0.6804720
  H        2.5242610    -3.2570720     0.4745640
  H        1.0373450    -2.3535990     0.1161460
  H        1.7068180    -2.3236230     1.7374130
  C        2.7336730    -1.0926570     0.3442350
  O        2.1884860     0.0087800     0.2872630
  N        4.0604310    -1.2614710     0.1304870
  H        4.4367520    -2.1887170     0.2072440
  C        4.9476690    -0.1550050    -0.1584610
  H        4.3334770     0.7358050    -0.2382850
  H        5.6750830    -0.0155390     0.6389420
  H        5.4726590    -0.3149870    -1.0976040
units angstrom
no_reorient
symmetry c1
}

set {
scf_type DF
mp2_type DF
e_convergence 7
reference rhf
}

energy('mp2/aug-cc-pv[tq]z', bsse_type='cp')
--------------------------------------------------------------------------

    Molecular point group: c1
  Charge       = 0
  Multiplicity = 1
  Basis Set: AUG-CC-PVTZ
    Blend: AUG-CC-PVTZ
  Basis Set: (AUG-CC-PVTZ AUX)
    Blend: AUG-CC-PVTZ-JKFIT
  @DF-RHF Final Energy:  -247.10247331305317
    Total Energy =                       -247.1024733130531672
  Basis Set: (AUG-CC-PVTZ AUX)
    Blend: AUG-CC-PVTZ-RI
	 Reference Energy          =    -247.1024733130531672 [Eh]
	 Singles Energy            =      -0.0000000000000000 [Eh]
	 Same-Spin Energy          =      -0.2464973397050316 [Eh]
	 Opposite-Spin Energy      =      -0.8098660794639188 [Eh]
	 Correlation Energy        =      -1.0563634191689504 [Eh]
	 Total Energy              =    -248.1588367322221131 [Eh]
	 SCS Total Energy          =    -248.1564783883115410 [Eh]
    Molecular point group: c1
  Basis Set: AUG-CC-PVQZ
    Blend: AUG-CC-PVQZ
  Basis Set: (AUG-CC-PVQZ AUX)
    Blend: AUG-CC-PVQZ-JKFIT
  @DF-RHF Final Energy:  -247.11790854660322
    Total Energy =                       -247.1179085466032461
  Basis Set: (AUG-CC-PVQZ AUX)
  @DF-RHF Final Energy:  -247.10264667982608
    Total Energy =                       -247.1026466798260799
  @DF-RHF Final Energy:  -247.11796021335437
    Total Energy =                       -247.1179602133543654
  @DF-RHF Final Energy:  -247.10226853051572
    Total Energy =                       -247.1022685305157438
  @DF-RHF Final Energy:  -247.11758308733121
    Total Energy =                       -247.1175830873312407
  @DF-RHF Final Energy:  -247.10211095045798
    Total Energy =                       -247.1021109504579840
  @DF-RHF Final Energy:  -247.11754817764046
    Total Energy =                       -247.1175481776404581
  Multiplicity = 1
  @DF-RHF Final Energy:  -494.21130794911511
    Total Energy =                       -494.2113079491150529
	 Singles Energy            =      -0.0000000000000000 [Eh]
	 Same-Spin Energy          =      -0.4974883953982308 [Eh]
	 Opposite-Spin Energy      =      -1.6268638762527892 [Eh]
	 Correlation Energy        =      -2.1243522716510199 [Eh]
	 Total Energy              =    -496.3356602207661581 [Eh]
	 SCS Total Energy          =    -496.3293740657512103 [Eh]
    Molecular point group: c1

    Geometry (in Angstrom), charge = 0, multiplicity = 1:

       Center              X                  Y                   Z               Mass
    ------------   -----------------  -----------------  -----------------  -----------------
         C           -1.625925355608     0.277836189143     1.962535134169    12.000000000000
         H           -2.107718355608     0.964112189143     2.654525134169     1.007825032230
         H           -0.574860355608     0.538142189143     1.863484134169     1.007825032230
         H           -1.718479355608    -0.723140810857     2.379690134169     1.007825032230
         C           -2.372968355608     0.323587189143     0.647466134169    12.000000000000
         O           -3.584872355608     0.139985189143     0.589997134169    15.994914619570
         N           -1.594479355608     0.574381189143    -0.434571865831    14.003074004430
         H           -0.597747355608     0.691028189143    -0.302755865831     1.007825032230
         C           -2.151477355608     0.658258189143    -1.764316865831    12.000000000000
         H           -3.216446355608     0.461963189143    -1.685226865831     1.007825032230
         H           -2.002224355608     1.648404189143    -2.192892865831     1.007825032230
         H           -1.701050355608    -0.079534810857    -2.427721865831     1.007825032230
         C            1.041614644392    -1.778604810857     0.236123134169    12.000000000000
         H            1.599838644392    -2.688607810857     0.030215134169     1.007825032230
         H            0.112922644392    -1.785134810857    -0.328202865831     1.007825032230
         H            0.782395644392    -1.755158810857     1.293064134169     1.007825032230
         C            1.809250644392    -0.524192810857    -0.100113865831    12.000000000000
         O            1.264063644392     0.577244189143    -0.157085865831    15.994914619570
         N            3.136008644392    -0.693006810857    -0.313861865831    14.003074004430
         H            3.512329644392    -1.620252810857    -0.237104865831     1.007825032230
         C            4.023246644392     0.413459189143    -0.602809865831    12.000000000000
         H            3.409054644392     1.304269189143    -0.682633865831     1.007825032230
         H            4.750660644392     0.552925189143     0.194593134169     1.007825032230
         H            4.548236644392     0.253477189143    -1.541952865831     1.007825032230

  Charge       = 0
  Multiplicity = 1
  Basis Set: AUG-CC-PVQZ
    Blend: AUG-CC-PVQZ
  Basis Set: (AUG-CC-PVQZ AUX)
    Blend: AUG-CC-PVQZ-JKFIT

    Orbital Energies [Eh]
    ---------------------

    Doubly Occupied:

       1A    -20.534906     2A    -20.485705     3A    -15.606689
       4A    -15.550451     5A    -11.372566     6A    -11.322933
       7A    -11.271499     8A    -11.251018     9A    -11.234295
      10A    -11.213955    11A     -1.400835    12A     -1.349212
      13A     -1.253414    14A     -1.202921    15A     -1.038827
      16A     -0.997394    17A     -0.951119    18A     -0.909968
      19A     -0.815657    20A     -0.761860    21A     -0.712001
      22A     -0.678329    23A     -0.668507    24A     -0.653684
      25A     -0.632025    26A     -0.612565    27A     -0.606003
      28A     -0.604021    29A     -0.574138    30A     -0.567608
      31A     -0.563255    32A     -0.556301    33A     -0.534042
      34A     -0.527355    35A     -0.522365    36A     -0.484003
      37A     -0.447993    38A     -0.416396    39A     -0.398179
      40A     -0.365042

  @DF-RHF Final Energy:  -494.24199137991047

   => Energetics <=

    Nuclear Repulsion Energy =            543.1959981881202566
    One-Electron Energy =               -1751.5779223753038423
    Two-Electron Energy =                 714.1399328072731123
    Total Energy =                       -494.2419913799104734

  Dipole Moment: [D]
     X:     7.9474      Y:    -2.7186      Z:    -0.6219     Total:     8.4225

  Basis Set: (AUG-CC-PVQZ AUX)
    Blend: AUG-CC-PVQZ-RI
	 Reference Energy          =    -494.2419913799104734 [Eh]
	 Singles Energy            =      -0.0000000000000000 [Eh]
	 Same-Spin Energy          =      -0.5271051730272982 [Eh]
	 Opposite-Spin Energy      =      -1.8250628965832494 [Eh]
	 Correlation Energy        =      -2.3521680696105474 [Eh]
	 Total Energy              =    -496.5941594495210438 [Eh]

	 ================> DF-SCS-MP2 Energies <==================
	-----------------------------------------------------------
	 SCS Same-Spin Scale       =       0.3333333333333333 [-]
	 SCS Opposite-Spin Scale   =       1.2000000000000000 [-]
	 SCS Same-Spin Energy      =      -0.1757017243424327 [Eh]
	 SCS Opposite-Spin Energy  =      -2.1900754758998993 [Eh]
	 SCS Correlation Energy    =      -2.3657772002423321 [Eh]
	 SCS Total Energy          =    -496.6077685801528219 [Eh]
	-----------------------------------------------------------

*** Psi4 exiting successfully. Buy a developer a beer!
