                               Psi4 1.4a2.dev224

  ==> Input File <==

--------------------------------------------------------------------------
#Generated by lconvert.py for cbs job

memory 40 GB

molecule  {
0 1
  C       -0.7015030    -0.2906280     2.4068840
  H       -1.1832960     0.3956480     3.0988740
  H        0.3495620    -0.0303220     2.3078330
  H       -0.7940570    -1.2916050     2.8240390
  C       -1.4485460    -0.2448770     1.0918150
  O       -2.6604500    -0.4284790     1.0343460
  N       -0.6700570     0.0059170     0.0097770
  H        0.3266750     0.1225640     0.1415930
  C       -1.2270550     0.0897940    -1.3199680
  H       -2.2920240    -0.1065010    -1.2408780
  H       -1.0778020     1.0799400    -1.7485440
  H       -0.7766280    -0.6479990    -1.9833730
--
0 1
  C        1.8680520    -2.3410810     0.6728050
  H        2.4262770    -3.2510840     0.4668970
  H        0.9393600    -2.3476100     0.1084800
  H        1.6088330    -2.3176340     1.7297460
  C        2.6356880    -1.0866690     0.3365690
  O        2.0905010     0.0147680     0.2795960
  N        3.9624460    -1.2554830     0.1228210
  H        4.3387670    -2.1827280     0.1995780
  C        4.8496840    -0.1490170    -0.1661280
  H        4.2354920     0.7417930    -0.2459520
  H        5.5770990    -0.0095510     0.6312750
  H        5.3746740    -0.3089980    -1.1052700
units angstrom
no_reorient
symmetry c1
}

set {
scf_type DF
mp2_type DF
e_convergence 7
reference rhf
}

energy('mp2/aug-cc-pv[tq]z', bsse_type='cp')
--------------------------------------------------------------------------

    Molecular point group: c1
  Charge       = 0
  Multiplicity = 1
  Basis Set: AUG-CC-PVTZ
    Blend: AUG-CC-PVTZ
  Basis Set: (AUG-CC-PVTZ AUX)
    Blend: AUG-CC-PVTZ-JKFIT
  @DF-RHF Final Energy:  -247.10247333792117
    Total Energy =                       -247.1024733379211966
  Basis Set: (AUG-CC-PVTZ AUX)
    Blend: AUG-CC-PVTZ-RI
	 Reference Energy          =    -247.1024733379211682 [Eh]
	 Singles Energy            =      -0.0000000000000000 [Eh]
	 Same-Spin Energy          =      -0.2464973348872255 [Eh]
	 Opposite-Spin Energy      =      -0.8098660608936687 [Eh]
	 Correlation Energy        =      -1.0563633957808942 [Eh]
	 Total Energy              =    -248.1588367337020600 [Eh]
	 SCS Total Energy          =    -248.1564783892893047 [Eh]
    Molecular point group: c1
  Basis Set: AUG-CC-PVQZ
    Blend: AUG-CC-PVQZ
  Basis Set: (AUG-CC-PVQZ AUX)
    Blend: AUG-CC-PVQZ-JKFIT
  @DF-RHF Final Energy:  -247.11790857079222
    Total Energy =                       -247.1179085707922241
  Basis Set: (AUG-CC-PVQZ AUX)
  @DF-RHF Final Energy:  -247.10266540220297
    Total Energy =                       -247.1026654022029447
  @DF-RHF Final Energy:  -247.11796469032234
    Total Energy =                       -247.1179646903223102
  @DF-RHF Final Energy:  -247.10227975317230
    Total Energy =                       -247.1022797531722972
  @DF-RHF Final Energy:  -247.11758575894530
    Total Energy =                       -247.1175857589453244
  @DF-RHF Final Energy:  -247.10211095095286
    Total Energy =                       -247.1021109509528628
  @DF-RHF Final Energy:  -247.11754817796458
    Total Energy =                       -247.1175481779645793
  Multiplicity = 1
  @DF-RHF Final Energy:  -494.20942695557079
    Total Energy =                       -494.2094269555707342
	 Singles Energy            =      -0.0000000000000000 [Eh]
	 Same-Spin Energy          =      -0.4981749922572012 [Eh]
	 Opposite-Spin Energy      =      -1.6276739377762837 [Eh]
	 Correlation Energy        =      -2.1258489300334849 [Eh]
	 Total Energy              =    -496.3352758856042897 [Eh]
	 SCS Total Energy          =    -496.3286940116547044 [Eh]
    Molecular point group: c1

    Geometry (in Angstrom), charge = 0, multiplicity = 1:

       Center              X                  Y                   Z               Mass
    ------------   -----------------  -----------------  -----------------  -----------------
         C           -1.576932869403     0.274842161551     1.966368435501    12.000000000000
         H           -2.058725869403     0.961118161551     2.658358435501     1.007825032230
         H           -0.525867869403     0.535148161551     1.867317435501     1.007825032230
         H           -1.669486869403    -0.726134838449     2.383523435501     1.007825032230
         C           -2.323975869403     0.320593161551     0.651299435501    12.000000000000
         O           -3.535879869403     0.136991161551     0.593830435501    15.994914619570
         N           -1.545486869403     0.571387161551    -0.430738564499    14.003074004430
         H           -0.548754869403     0.688034161551    -0.298922564499     1.007825032230
         C           -2.102484869403     0.655264161551    -1.760483564499    12.000000000000
         H           -3.167453869403     0.458969161551    -1.681393564499     1.007825032230
         H           -1.953231869403     1.645410161551    -2.189059564499     1.007825032230
         H           -1.652057869403    -0.082528838449    -2.423888564499     1.007825032230
         C            0.992622130597    -1.775610838449     0.232289435501    12.000000000000
         H            1.550847130597    -2.685613838449     0.026381435501     1.007825032230
         H            0.063930130597    -1.782139838449    -0.332035564499     1.007825032230
         H            0.733403130597    -1.752163838449     1.289230435501     1.007825032230
         C            1.760258130597    -0.521198838449    -0.103946564499    12.000000000000
         O            1.215071130597     0.580238161551    -0.160919564499    15.994914619570
         N            3.087016130597    -0.690012838449    -0.317694564499    14.003074004430
         H            3.463337130597    -1.617257838449    -0.240937564499     1.007825032230
         C            3.974254130597     0.416453161551    -0.606643564499    12.000000000000
         H            3.360062130597     1.307263161551    -0.686467564499     1.007825032230
         H            4.701669130597     0.555919161551     0.190759435501     1.007825032230
         H            4.499244130597     0.256472161551    -1.545785564499     1.007825032230

  Charge       = 0
  Multiplicity = 1
  Basis Set: AUG-CC-PVQZ
    Blend: AUG-CC-PVQZ
  Basis Set: (AUG-CC-PVQZ AUX)
    Blend: AUG-CC-PVQZ-JKFIT

    Orbital Energies [Eh]
    ---------------------

    Doubly Occupied:

       1A    -20.536651     2A    -20.483935     3A    -15.608190
       4A    -15.546099     5A    -11.374554     6A    -11.321013
       7A    -11.272512     8A    -11.251603     9A    -11.232719
      10A    -11.213044    11A     -1.403804    12A     -1.347442
      13A     -1.255234    14A     -1.200431    15A     -1.039929
      16A     -0.996190    17A     -0.952161    18A     -0.908487
      19A     -0.818505    20A     -0.760444    21A     -0.713431
      22A     -0.680379    23A     -0.667793    24A     -0.654822
      25A     -0.631227    26A     -0.611443    27A     -0.606963
      28A     -0.604687    29A     -0.574812    30A     -0.566627
      31A     -0.564146    32A     -0.554858    33A     -0.534372
      34A     -0.527450    35A     -0.520772    36A     -0.482606
      37A     -0.448896    38A     -0.418236    39A     -0.396474
      40A     -0.362477

  @DF-RHF Final Energy:  -494.24008862161782

   => Energetics <=

    Nuclear Repulsion Energy =            546.9062806954900680
    One-Electron Energy =               -1759.0019143170268308
    Two-Electron Energy =                 717.8555449999189477
    Total Energy =                       -494.2400886216178151

  Dipole Moment: [D]
     X:     8.0756      Y:    -2.7322      Z:    -0.6262     Total:     8.5482

  Basis Set: (AUG-CC-PVQZ AUX)
    Blend: AUG-CC-PVQZ-RI
	 Reference Energy          =    -494.2400886216178151 [Eh]
	 Singles Energy            =      -0.0000000000000000 [Eh]
	 Same-Spin Energy          =      -0.5277886699018692 [Eh]
	 Opposite-Spin Energy      =      -1.8257240136510358 [Eh]
	 Correlation Energy        =      -2.3535126835529052 [Eh]
	 Total Energy              =    -496.5936013051706936 [Eh]

	 ================> DF-SCS-MP2 Energies <==================
	-----------------------------------------------------------
	 SCS Same-Spin Scale       =       0.3333333333333333 [-]
	 SCS Opposite-Spin Scale   =       1.2000000000000000 [-]
	 SCS Same-Spin Energy      =      -0.1759295566339564 [Eh]
	 SCS Opposite-Spin Energy  =      -2.1908688163812426 [Eh]
	 SCS Correlation Energy    =      -2.3667983730151989 [Eh]
	 SCS Total Energy          =    -496.6068869946329869 [Eh]
	-----------------------------------------------------------

*** Psi4 exiting successfully. Buy a developer a beer!
