                               Psi4 1.4a2.dev224

  ==> Input File <==

--------------------------------------------------------------------------
#Generated by lconvert.py for cbs job

memory 40 GB

molecule  {
0 1
  C       -0.7015030    -0.2906280     2.4068840
  H       -1.1832960     0.3956480     3.0988740
  H        0.3495620    -0.0303220     2.3078330
  H       -0.7940570    -1.2916050     2.8240390
  C       -1.4485460    -0.2448770     1.0918150
  O       -2.6604500    -0.4284790     1.0343460
  N       -0.6700570     0.0059170     0.0097770
  H        0.3266750     0.1225640     0.1415930
  C       -1.2270550     0.0897940    -1.3199680
  H       -2.2920240    -0.1065010    -1.2408780
  H       -1.0778020     1.0799400    -1.7485440
  H       -0.7766280    -0.6479990    -1.9833730
--
0 1
  C        2.2599910    -2.3650340     0.7034710
  H        2.8182160    -3.2750370     0.4975630
  H        1.3312990    -2.3715640     0.1391460
  H        2.0007720    -2.3415880     1.7604120
  C        3.0276270    -1.1106220     0.3672340
  O        2.4824400    -0.0091850     0.3102620
  N        4.3543850    -1.2794360     0.1534860
  H        4.7307060    -2.2066820     0.2302440
  C        5.2416230    -0.1729700    -0.1354620
  H        4.6274310     0.7178400    -0.2152860
  H        5.9690380    -0.0335040     0.6619410
  H        5.7666140    -0.3329520    -1.0746050
units angstrom
no_reorient
symmetry c1
}

set {
scf_type DF
mp2_type DF
e_convergence 7
reference rhf
}

energy('mp2/aug-cc-pv[tq]z', bsse_type='cp')
--------------------------------------------------------------------------

    Molecular point group: c1
  Charge       = 0
  Multiplicity = 1
  Basis Set: AUG-CC-PVTZ
    Blend: AUG-CC-PVTZ
  Basis Set: (AUG-CC-PVTZ AUX)
    Blend: AUG-CC-PVTZ-JKFIT
  @DF-RHF Final Energy:  -247.10247330357910
    Total Energy =                       -247.1024733035791314
  Basis Set: (AUG-CC-PVTZ AUX)
    Blend: AUG-CC-PVTZ-RI
	 Reference Energy          =    -247.1024733035791030 [Eh]
	 Singles Energy            =      -0.0000000000000000 [Eh]
	 Same-Spin Energy          =      -0.2464973391420898 [Eh]
	 Opposite-Spin Energy      =      -0.8098660852035477 [Eh]
	 Correlation Energy        =      -1.0563634243456375 [Eh]
	 Total Energy              =    -248.1588367279247507 [Eh]
	 SCS Total Energy          =    -248.1564783855373832 [Eh]
    Molecular point group: c1
  Basis Set: AUG-CC-PVQZ
    Blend: AUG-CC-PVQZ
  Basis Set: (AUG-CC-PVQZ AUX)
    Blend: AUG-CC-PVQZ-JKFIT
  @DF-RHF Final Energy:  -247.11790853475418
    Total Energy =                       -247.1179085347541786
  Basis Set: (AUG-CC-PVQZ AUX)
  @DF-RHF Final Energy:  -247.10260364867349
    Total Energy =                       -247.1026036486734938
  @DF-RHF Final Energy:  -247.11795146836386
    Total Energy =                       -247.1179514683638558
  @DF-RHF Final Energy:  -247.10223659428695
    Total Energy =                       -247.1022365942869783
  @DF-RHF Final Energy:  -247.11757615684957
    Total Energy =                       -247.1175761568495659
  @DF-RHF Final Energy:  -247.10211095092347
    Total Energy =                       -247.1021109509234748
  @DF-RHF Final Energy:  -247.11754817701171
    Total Energy =                       -247.1175481770117131
  Multiplicity = 1
  @DF-RHF Final Energy:  -494.21305497825858
    Total Energy =                       -494.2130549782585831
	 Singles Energy            =      -0.0000000000000000 [Eh]
	 Same-Spin Energy          =      -0.4959602406878003 [Eh]
	 Opposite-Spin Energy      =      -1.6248524132036737 [Eh]
	 Correlation Energy        =      -2.1208126538914742 [Eh]
	 Total Energy              =    -496.3338676321500316 [Eh]
	 SCS Total Energy          =    -496.3281979543322677 [Eh]
    Molecular point group: c1

    Geometry (in Angstrom), charge = 0, multiplicity = 1:

       Center              X                  Y                   Z               Mass
    ------------   -----------------  -----------------  -----------------  -----------------
         C           -1.772902376301     0.286818689143     1.951035620374    12.000000000000
         H           -2.254695376301     0.973094689143     2.643025620374     1.007825032230
         H           -0.721837376301     0.547124689143     1.851984620374     1.007825032230
         H           -1.865456376301    -0.714158310857     2.368190620374     1.007825032230
         C           -2.519945376301     0.332569689143     0.635966620374    12.000000000000
         O           -3.731849376301     0.148967689143     0.578497620374    15.994914619570
         N           -1.741456376301     0.583363689143    -0.446071379626    14.003074004430
         H           -0.744724376301     0.700010689143    -0.314255379626     1.007825032230
         C           -2.298454376301     0.667240689143    -1.775816379626    12.000000000000
         H           -3.363423376301     0.470945689143    -1.696726379626     1.007825032230
         H           -2.149201376301     1.657386689143    -2.204392379626     1.007825032230
         H           -1.848027376301    -0.070552310857    -2.439221379626     1.007825032230
         C            1.188591623699    -1.787587310857     0.247622620374    12.000000000000
         H            1.746816623699    -2.697590310857     0.041714620374     1.007825032230
         H            0.259899623699    -1.794117310857    -0.316702379626     1.007825032230
         H            0.929372623699    -1.764141310857     1.304563620374     1.007825032230
         C            1.956227623699    -0.533175310857    -0.088614379626    12.000000000000
         O            1.411040623699     0.568261689143    -0.145586379626    15.994914619570
         N            3.282985623699    -0.701989310857    -0.302362379626    14.003074004430
         H            3.659306623699    -1.629235310857    -0.225604379626     1.007825032230
         C            4.170223623699     0.404476689143    -0.591310379626    12.000000000000
         H            3.556031623699     1.295286689143    -0.671134379626     1.007825032230
         H            4.897638623699     0.543942689143     0.206092620374     1.007825032230
         H            4.695214623699     0.244494689143    -1.530453379626     1.007825032230

  Charge       = 0
  Multiplicity = 1
  Basis Set: AUG-CC-PVQZ
    Blend: AUG-CC-PVQZ
  Basis Set: (AUG-CC-PVQZ AUX)
    Blend: AUG-CC-PVQZ-JKFIT

    Orbital Energies [Eh]
    ---------------------

    Doubly Occupied:

       1A    -20.530480     2A    -20.489821     3A    -15.603203
       4A    -15.559760     5A    -11.367940     6A    -11.327372
       7A    -11.269107     8A    -11.249592     9A    -11.237970
      10A    -11.216376    11A     -1.394394    12A     -1.353324
      13A     -1.249340    14A     -1.208730    15A     -1.036253
      16A     -1.000431    17A     -0.948654    18A     -0.913591
      19A     -0.809906    20A     -0.766382    21A     -0.708726
      22A     -0.674182    23A     -0.670435    24A     -0.650818
      25A     -0.634762    26A     -0.615668    27A     -0.603255
      28A     -0.601046    29A     -0.572509    30A     -0.570056
      31A     -0.561910    32A     -0.558939    33A     -0.536197
      34A     -0.526570    35A     -0.524306    36A     -0.487300
      37A     -0.444329    38A     -0.412057    39A     -0.402112
      40A     -0.370851

  @DF-RHF Final Energy:  -494.24377187241413

   => Energetics <=

    Nuclear Repulsion Energy =            532.8579013187007831
    One-Electron Energy =               -1730.8860553162553515
    Two-Electron Energy =                 703.7843821251402687
    Total Energy =                       -494.2437718724141860

  Dipole Moment: [D]
     X:     7.6565      Y:    -2.6901      Z:    -0.6068     Total:     8.1380

  Basis Set: (AUG-CC-PVQZ AUX)
    Blend: AUG-CC-PVQZ-RI
	 Reference Energy          =    -494.2437718724141291 [Eh]
	 Singles Energy            =      -0.0000000000000000 [Eh]
	 Same-Spin Energy          =      -0.5255998596171919 [Eh]
	 Opposite-Spin Energy      =      -1.8235827970910350 [Eh]
	 Correlation Energy        =      -2.3491826567082268 [Eh]
	 Total Energy              =    -496.5929545291223803 [Eh]

	 ================> DF-SCS-MP2 Energies <==================
	-----------------------------------------------------------
	 SCS Same-Spin Scale       =       0.3333333333333333 [-]
	 SCS Opposite-Spin Scale   =       1.2000000000000000 [-]
	 SCS Same-Spin Energy      =      -0.1751999532057306 [Eh]
	 SCS Opposite-Spin Energy  =      -2.1882993565092419 [Eh]
	 SCS Correlation Energy    =      -2.3634993097149724 [Eh]
	 SCS Total Energy          =    -496.6072711821291250 [Eh]
	-----------------------------------------------------------

*** Psi4 exiting successfully. Buy a developer a beer!
