                               Psi4 1.4a2.dev224

  ==> Input File <==

--------------------------------------------------------------------------
#Generated by lconvert.py for cbs job

memory 20 GB

molecule  {
0 1
  C      -0.701500   -0.290630    2.406880
  H      -1.183300    0.395650    3.098870
  H       0.349560   -0.030320    2.307830
  H      -0.794060   -1.291600    2.824040
  C      -1.448550   -0.244880    1.091810
  O      -2.660450   -0.428480    1.034350
  N      -0.670060    0.005920    0.009780
  H       0.326670    0.122560    0.141590
  C      -1.227060    0.089790   -1.319970
  H      -2.292020   -0.106500   -1.240880
  H      -1.077800    1.079940   -1.748540
  H      -0.776630   -0.648000   -1.983370
--
0 1
  C       3.239840   -2.424920    0.780140
  H       3.798070   -3.334920    0.574230
  H       2.311150   -2.431450    0.215810
  H       2.980620   -2.401470    1.837080
  C       4.007480   -1.170510    0.443900
  O       3.462290   -0.069070    0.386930
  N       5.334230   -1.339320    0.230150
  H       5.710560   -2.266570    0.306910
  C       6.221470   -0.232860   -0.058800
  H       5.607280    0.657950   -0.138620
  H       6.948890   -0.093390    0.738610
  H       6.746460   -0.392840   -0.997940
units angstrom
no_reorient
symmetry c1
}

set {
scf_type DF
mp2_type DF
e_convergence 7
reference rhf
}

energy('mp2/aug-cc-pv[tq]z', bsse_type='cp')
--------------------------------------------------------------------------

    Molecular point group: c1
  Charge       = 0
  Multiplicity = 1
  Basis Set: AUG-CC-PVTZ
    Blend: AUG-CC-PVTZ
  Basis Set: (AUG-CC-PVTZ AUX)
    Blend: AUG-CC-PVTZ-JKFIT
  @DF-RHF Final Energy:  -247.10247291711985
    Total Energy =                       -247.1024729171198828
  Basis Set: (AUG-CC-PVTZ AUX)
    Blend: AUG-CC-PVTZ-RI
	 Reference Energy          =    -247.1024729171198544 [Eh]
	 Singles Energy            =      -0.0000000000000000 [Eh]
	 Same-Spin Energy          =      -0.2464974423408105 [Eh]
	 Opposite-Spin Energy      =      -0.8098662635196049 [Eh]
	 Correlation Energy        =      -1.0563637058604154 [Eh]
	 Total Energy              =    -248.1588366229802602 [Eh]
	 SCS Total Energy          =    -248.1564782474569881 [Eh]
    Molecular point group: c1
  Basis Set: AUG-CC-PVQZ
    Blend: AUG-CC-PVQZ
  Basis Set: (AUG-CC-PVQZ AUX)
    Blend: AUG-CC-PVQZ-JKFIT
  @DF-RHF Final Energy:  -247.11790813250815
    Total Energy =                       -247.1179081325081484
  Basis Set: (AUG-CC-PVQZ AUX)
  @DF-RHF Final Energy:  -247.10251861465352
    Total Energy =                       -247.1025186146535475
  @DF-RHF Final Energy:  -247.11792648408942
    Total Energy =                       -247.1179264840894234
  @DF-RHF Final Energy:  -247.10215510412081
    Total Energy =                       -247.1021551041208113
  @DF-RHF Final Energy:  -247.11756146253725
    Total Energy =                       -247.1175614625372532
  @DF-RHF Final Energy:  -247.10211159656518
    Total Energy =                       -247.1021115965651802
  @DF-RHF Final Energy:  -247.11754885700776
    Total Energy =                       -247.1175488570077619
  Multiplicity = 1
  @DF-RHF Final Energy:  -494.20953077264363
    Total Energy =                       -494.2095307726435749
	 Singles Energy            =      -0.0000000000000000 [Eh]
	 Same-Spin Energy          =      -0.4938449574188394 [Eh]
	 Opposite-Spin Energy      =      -1.6214992344437957 [Eh]
	 Correlation Energy        =      -2.1153441918626350 [Eh]
	 Total Energy              =    -496.3248749645062503 [Eh]
	 SCS Total Energy          =    -496.3199448397824654 [Eh]
    Molecular point group: c1

    Geometry (in Angstrom), charge = 0, multiplicity = 1:

       Center              X                  Y                   Z               Mass
    ------------   -----------------  -----------------  -----------------  -----------------
         C           -2.262822993249     0.316760414327     1.912698860168    12.000000000000
         H           -2.744622993249     1.003040414327     2.604688860168     1.007825032230
         H           -1.211762993249     0.577070414327     1.813648860168     1.007825032230
         H           -2.355382993249    -0.684209585673     2.329858860168     1.007825032230
         C           -3.009872993249     0.362510414327     0.597628860168    12.000000000000
         O           -4.221772993249     0.178910414327     0.540168860168    15.994914619570
         N           -2.231382993249     0.613310414327    -0.484401139832    14.003074004430
         H           -1.234652993249     0.729950414327    -0.352591139832     1.007825032230
         C           -2.788382993249     0.697180414327    -1.814151139832    12.000000000000
         H           -3.853342993249     0.500890414327    -1.735061139832     1.007825032230
         H           -2.639122993249     1.687330414327    -2.242721139832     1.007825032230
         H           -2.337952993249    -0.040609585673    -2.477551139832     1.007825032230
         C            1.678517006751    -1.817529585673     0.285958860168    12.000000000000
         H            2.236747006751    -2.727529585673     0.080048860168     1.007825032230
         H            0.749827006751    -1.824059585673    -0.278371139832     1.007825032230
         H            1.419297006751    -1.794079585673     1.342898860168     1.007825032230
         C            2.446157006751    -0.563119585673    -0.050281139832    12.000000000000
         O            1.900967006751     0.538320414327    -0.107251139832    15.994914619570
         N            3.772907006751    -0.731929585673    -0.264031139832    14.003074004430
         H            4.149237006751    -1.659179585673    -0.187271139832     1.007825032230
         C            4.660147006751     0.374530414327    -0.552981139832    12.000000000000
         H            4.045957006751     1.265340414327    -0.632801139832     1.007825032230
         H            5.387567006751     0.514000414327     0.244428860168     1.007825032230
         H            5.185137006751     0.214550414327    -1.492121139832     1.007825032230

  Charge       = 0
  Multiplicity = 1
  Basis Set: AUG-CC-PVQZ
    Blend: AUG-CC-PVQZ
  Basis Set: (AUG-CC-PVQZ AUX)
    Blend: AUG-CC-PVQZ-JKFIT

    Orbital Energies [Eh]
    ---------------------

    Doubly Occupied:

       1A    -20.521070     2A    -20.496987     3A    -15.596785
       4A    -15.572980     5A    -11.359551     6A    -11.335046
       7A    -11.264565     8A    -11.246145     9A    -11.244542
      10A    -11.222034    11A     -1.383974    12A     -1.360491
      13A     -1.242314    14A     -1.218693    15A     -1.031201
      16A     -1.006760    17A     -0.943867    18A     -0.920513
      19A     -0.801909    20A     -0.776596    21A     -0.702740
      22A     -0.678569    23A     -0.664570    24A     -0.645128
      25A     -0.641601    26A     -0.622329    27A     -0.598651
      28A     -0.592100    29A     -0.576129    30A     -0.568443
      31A     -0.567237    32A     -0.555070    33A     -0.543149
      34A     -0.533889    35A     -0.516833    36A     -0.493393
      37A     -0.434731    38A     -0.409186    39A     -0.403920
      40A     -0.380259

  @DF-RHF Final Energy:  -494.24033943682508

   => Energetics <=

    Nuclear Repulsion Energy =            505.1989411349834427
    One-Electron Energy =               -1675.5306615511826749
    Two-Electron Energy =                 676.0913809793742075
    Total Energy =                       -494.2403394368250247

  Dipole Moment: [D]
     X:     7.1722      Y:    -2.6504      Z:    -0.5640     Total:     7.6670

  Basis Set: (AUG-CC-PVQZ AUX)
    Blend: AUG-CC-PVQZ-RI
	 Reference Energy          =    -494.2403394368250815 [Eh]
	 Singles Energy            =      -0.0000000000000000 [Eh]
	 Same-Spin Energy          =      -0.5235697261403012 [Eh]
	 Opposite-Spin Energy      =      -1.8214301352860658 [Eh]
	 Correlation Energy        =      -2.3449998614263672 [Eh]
	 Total Energy              =    -496.5853392982514265 [Eh]

	 ================> DF-SCS-MP2 Energies <==================
	-----------------------------------------------------------
	 SCS Same-Spin Scale       =       0.3333333333333333 [-]
	 SCS Opposite-Spin Scale   =       1.2000000000000000 [-]
	 SCS Same-Spin Energy      =      -0.1745232420467671 [Eh]
	 SCS Opposite-Spin Energy  =      -2.1857161623432790 [Eh]
	 SCS Correlation Energy    =      -2.3602394043900459 [Eh]
	 SCS Total Energy          =    -496.6005788412151105 [Eh]
	-----------------------------------------------------------

*** Psi4 exiting successfully. Buy a developer a beer!
