                               Psi4 1.4a2.dev224

  ==> Input File <==

--------------------------------------------------------------------------
#Generated by lconvert.py for cbs job

memory 40 GB

molecule  {
0 1
  C       -0.7015030    -0.2906280     2.4068840
  H       -1.1832960     0.3956480     3.0988740
  H        0.3495620    -0.0303220     2.3078330
  H       -0.7940570    -1.2916050     2.8240390
  C       -1.4485460    -0.2448770     1.0918150
  O       -2.6604500    -0.4284790     1.0343460
  N       -0.6700570     0.0059170     0.0097770
  H        0.3266750     0.1225640     0.1415930
  C       -1.2270550     0.0897940    -1.3199680
  H       -2.2920240    -0.1065010    -1.2408780
  H       -1.0778020     1.0799400    -1.7485440
  H       -0.7766280    -0.6479990    -1.9833730
--
0 1
  C        1.4760130    -2.3171210     0.6421320
  H        2.0342380    -3.2271250     0.4362240
  H        0.5473210    -2.3236510     0.0778060
  H        1.2167940    -2.2936750     1.6990730
  C        2.2436490    -1.0627090     0.3058950
  O        1.6984620     0.0387270     0.2489230
  N        3.5704070    -1.2315230     0.0921470
  H        3.9467290    -2.1587690     0.1689040
  C        4.4576450    -0.1250570    -0.1968010
  H        3.8434530     0.7657530    -0.2766250
  H        5.1850600     0.0144080     0.6006020
  H        4.9826360    -0.2850390    -1.1359440
units angstrom
no_reorient
symmetry c1
}

set {
scf_type DF
mp2_type DF
e_convergence 7
reference rhf
}

energy('mp2/aug-cc-pv[tq]z', bsse_type='cp')
--------------------------------------------------------------------------

    Molecular point group: c1
  Charge       = 0
  Multiplicity = 1
  Basis Set: AUG-CC-PVTZ
    Blend: AUG-CC-PVTZ
  Basis Set: (AUG-CC-PVTZ AUX)
    Blend: AUG-CC-PVTZ-JKFIT
  @DF-RHF Final Energy:  -247.10247337963705
    Total Energy =                       -247.1024733796370469
  Basis Set: (AUG-CC-PVTZ AUX)
    Blend: AUG-CC-PVTZ-RI
	 Reference Energy          =    -247.1024733796370469 [Eh]
	 Singles Energy            =      -0.0000000000000000 [Eh]
	 Same-Spin Energy          =      -0.2464973197464401 [Eh]
	 Opposite-Spin Energy      =      -0.8098660481987606 [Eh]
	 Correlation Energy        =      -1.0563633679452007 [Eh]
	 Total Energy              =    -248.1588367475822565 [Eh]
	 SCS Total Energy          =    -248.1564784107243611 [Eh]
    Molecular point group: c1
  Basis Set: AUG-CC-PVQZ
    Blend: AUG-CC-PVQZ
  Basis Set: (AUG-CC-PVQZ AUX)
    Blend: AUG-CC-PVQZ-JKFIT
  @DF-RHF Final Energy:  -247.11790861464826
    Total Energy =                       -247.1179086146482291
  Basis Set: (AUG-CC-PVQZ AUX)
  @DF-RHF Final Energy:  -247.10275012111887
    Total Energy =                       -247.1027501211189019
  @DF-RHF Final Energy:  -247.11798530081342
    Total Energy =                       -247.1179853008134160
  @DF-RHF Final Energy:  -247.10233158324991
    Total Energy =                       -247.1023315832499065
  @DF-RHF Final Energy:  -247.11759877540061
    Total Energy =                       -247.1175987754006087
  @DF-RHF Final Energy:  -247.10211095073760
    Total Energy =                       -247.1021109507375968
  @DF-RHF Final Energy:  -247.11754817770094
    Total Energy =                       -247.1175481777009395
  Multiplicity = 1
  @DF-RHF Final Energy:  -494.18407407909348
    Total Energy =                       -494.1840740790935342
	 Singles Energy            =      -0.0000000000000000 [Eh]
	 Same-Spin Energy          =      -0.5022065273420731 [Eh]
	 Opposite-Spin Energy      =      -1.6319982672142368 [Eh]
	 Correlation Energy        =      -2.1342047945563101 [Eh]
	 Total Energy              =    -496.3182788736497741 [Eh]
	 SCS Total Energy          =    -496.3098741755312631 [Eh]
    Molecular point group: c1

    Geometry (in Angstrom), charge = 0, multiplicity = 1:

       Center              X                  Y                   Z               Mass
    ------------   -----------------  -----------------  -----------------  -----------------
         C           -1.380913383199     0.262862312414     1.981705134169    12.000000000000
         H           -1.862706383199     0.949138312414     2.673695134169     1.007825032230
         H           -0.329848383199     0.523168312414     1.882654134169     1.007825032230
         H           -1.473467383199    -0.738114687586     2.398860134169     1.007825032230
         C           -2.127956383199     0.308613312414     0.666636134169    12.000000000000
         O           -3.339860383199     0.125011312414     0.609167134169    15.994914619570
         N           -1.349467383199     0.559407312414    -0.415401865831    14.003074004430
         H           -0.352735383199     0.676054312414    -0.283585865831     1.007825032230
         C           -1.906465383199     0.643284312414    -1.745146865831    12.000000000000
         H           -2.971434383199     0.446989312414    -1.666056865831     1.007825032230
         H           -1.757212383199     1.633430312414    -2.173722865831     1.007825032230
         H           -1.456038383199    -0.094508687586    -2.408551865831     1.007825032230
         C            0.796602616801    -1.763630687586     0.216953134169    12.000000000000
         H            1.354827616801    -2.673634687586     0.011045134169     1.007825032230
         H           -0.132089383199    -1.770160687586    -0.347372865831     1.007825032230
         H            0.537383616801    -1.740184687586     1.273894134169     1.007825032230
         C            1.564238616801    -0.509218687586    -0.119283865831    12.000000000000
         O            1.019051616801     0.592217312414    -0.176255865831    15.994914619570
         N            2.890996616801    -0.678032687586    -0.333031865831    14.003074004430
         H            3.267318616801    -1.605278687586    -0.256274865831     1.007825032230
         C            3.778234616801     0.428433312414    -0.621979865831    12.000000000000
         H            3.164042616801     1.319243312414    -0.701803865831     1.007825032230
         H            4.505649616801     0.567898312414     0.175423134169     1.007825032230
         H            4.303225616801     0.268451312414    -1.561122865831     1.007825032230

  Charge       = 0
  Multiplicity = 1
  Basis Set: AUG-CC-PVQZ
    Blend: AUG-CC-PVQZ
  Basis Set: (AUG-CC-PVQZ AUX)
    Blend: AUG-CC-PVQZ-JKFIT

    Orbital Energies [Eh]
    ---------------------

    Doubly Occupied:

       1A    -20.545908     2A    -20.473682     3A    -15.617217
       4A    -15.517802     5A    -11.386330     6A    -11.309783
       7A    -11.278435     8A    -11.255022     9A    -11.223570
      10A    -11.208727    11A     -1.424495    12A     -1.337192
      13A     -1.266951    14A     -1.186323    15A     -1.046585
      16A     -0.990094    17A     -0.958203    18A     -0.901287
      19A     -0.839911    20A     -0.760269    21A     -0.722262
      22A     -0.689940    23A     -0.668944    24A     -0.660139
      25A     -0.629265    26A     -0.611045    27A     -0.604981
      28A     -0.602951    29A     -0.577570    30A     -0.570177
      31A     -0.560902    32A     -0.547591    33A     -0.543494
      34A     -0.522243    35A     -0.515418    36A     -0.474633
      37A     -0.443914    38A     -0.428304    39A     -0.386293
      40A     -0.347164

  @DF-RHF Final Energy:  -494.21466204334047

   => Energetics <=

    Nuclear Repulsion Energy =            563.3078187482525436
    One-Electron Energy =               -1791.7749439369274569
    Two-Electron Energy =                 734.2524631453343318
    Total Energy =                       -494.2146620433404678

  Dipole Moment: [D]
     X:     8.8484      Y:    -2.8261      Z:    -0.6318     Total:     9.3102

  Basis Set: (AUG-CC-PVQZ AUX)
    Blend: AUG-CC-PVQZ-RI
	 Reference Energy          =    -494.2146620433404678 [Eh]
	 Singles Energy            =      -0.0000000000000000 [Eh]
	 Same-Spin Energy          =      -0.5318477488009512 [Eh]
	 Opposite-Spin Energy      =      -1.8296455087572052 [Eh]
	 Correlation Energy        =      -2.3614932575581564 [Eh]
	 Total Energy              =    -496.5761553008986198 [Eh]

	 ================> DF-SCS-MP2 Energies <==================
	-----------------------------------------------------------
	 SCS Same-Spin Scale       =       0.3333333333333333 [-]
	 SCS Opposite-Spin Scale   =       1.2000000000000000 [-]
	 SCS Same-Spin Energy      =      -0.1772825829336504 [Eh]
	 SCS Opposite-Spin Energy  =      -2.1955746105086460 [Eh]
	 SCS Correlation Energy    =      -2.3728571934422966 [Eh]
	 SCS Total Energy          =    -496.5875192367827822 [Eh]
	-----------------------------------------------------------

*** Psi4 exiting successfully. Buy a developer a beer!
