                               Psi4 1.4a2.dev224

  ==> Input File <==

--------------------------------------------------------------------------
#Generated by lconvert.py for cbs job

memory 40 GB

molecule  {
0 1
  C       -0.7015030    -0.2906280     2.4068840
  H       -1.1832960     0.3956480     3.0988740
  H        0.3495620    -0.0303220     2.3078330
  H       -0.7940570    -1.2916050     2.8240390
  C       -1.4485460    -0.2448770     1.0918150
  O       -2.6604500    -0.4284790     1.0343460
  N       -0.6700570     0.0059170     0.0097770
  H        0.3266750     0.1225640     0.1415930
  C       -1.2270550     0.0897940    -1.3199680
  H       -2.2920240    -0.1065010    -1.2408780
  H       -1.0778020     1.0799400    -1.7485440
  H       -0.7766280    -0.6479990    -1.9833730
--
0 1
  C        2.0639220    -2.3530510     0.6881300
  H        2.6221470    -3.2630550     0.4822220
  H        1.1352300    -2.3595810     0.1238050
  H        1.8047030    -2.3296050     1.7450710
  C        2.8315580    -1.0986390     0.3518940
  O        2.2863710     0.0027970     0.2949210
  N        4.1583160    -1.2674530     0.1381460
  H        4.5346370    -2.1946990     0.2149030
  C        5.0455540    -0.1609870    -0.1508030
  H        4.4313620     0.7298230    -0.2306270
  H        5.7729690    -0.0215210     0.6466000
  H        5.5705450    -0.3209690    -1.0899450
units angstrom
no_reorient
symmetry c1
}

set {
scf_type DF
mp2_type DF
e_convergence 7
reference rhf
}

energy('mp2/aug-cc-pv[tq]z', bsse_type='cp')
--------------------------------------------------------------------------

    Molecular point group: c1
  Charge       = 0
  Multiplicity = 1
  Basis Set: AUG-CC-PVTZ
    Blend: AUG-CC-PVTZ
  Basis Set: (AUG-CC-PVTZ AUX)
    Blend: AUG-CC-PVTZ-JKFIT
  @DF-RHF Final Energy:  -247.10247339179378
    Total Energy =                       -247.1024733917938079
  Basis Set: (AUG-CC-PVTZ AUX)
    Blend: AUG-CC-PVTZ-RI
	 Reference Energy          =    -247.1024733917937795 [Eh]
	 Singles Energy            =      -0.0000000000000000 [Eh]
	 Same-Spin Energy          =      -0.2464973193578611 [Eh]
	 Opposite-Spin Energy      =      -0.8098660359628810 [Eh]
	 Correlation Energy        =      -1.0563633553207421 [Eh]
	 Total Energy              =    -248.1588367471145204 [Eh]
	 SCS Total Energy          =    -248.1564784080685229 [Eh]
    Molecular point group: c1
  Basis Set: AUG-CC-PVQZ
    Blend: AUG-CC-PVQZ
  Basis Set: (AUG-CC-PVQZ AUX)
    Blend: AUG-CC-PVQZ-JKFIT
  @DF-RHF Final Energy:  -247.11790862742856
    Total Energy =                       -247.1179086274285623
  Basis Set: (AUG-CC-PVQZ AUX)
  @DF-RHF Final Energy:  -247.10262983264738
    Total Energy =                       -247.1026298326473807
  @DF-RHF Final Energy:  -247.11795684826745
    Total Energy =                       -247.1179568482674540
  @DF-RHF Final Energy:  -247.10225773612567
    Total Energy =                       -247.1022577361256936
  @DF-RHF Final Energy:  -247.11758059650913
    Total Energy =                       -247.1175805965091286
  @DF-RHF Final Energy:  -247.10211095106536
    Total Energy =                       -247.1021109510653559
  @DF-RHF Final Energy:  -247.11754817674898
    Total Energy =                       -247.1175481767489828
  Multiplicity = 1
  @DF-RHF Final Energy:  -494.21238152593895
    Total Energy =                       -494.2123815259388948
	 Singles Energy            =      -0.0000000000000000 [Eh]
	 Same-Spin Energy          =      -0.4968998024921188 [Eh]
	 Opposite-Spin Energy      =      -1.6261269958172702 [Eh]
	 Correlation Energy        =      -2.1230267983093891 [Eh]
	 Total Energy              =    -496.3354083242483625 [Eh]
	 SCS Total Energy          =    -496.3293671884170521 [Eh]
    Molecular point group: c1

    Geometry (in Angstrom), charge = 0, multiplicity = 1:

       Center              X                  Y                   Z               Mass
    ------------   -----------------  -----------------  -----------------  -----------------
         C           -1.674867876301     0.280827305516     1.958705935501    12.000000000000
         H           -2.156660876301     0.967103305516     2.650695935501     1.007825032230
         H           -0.623802876301     0.541133305516     1.859654935501     1.007825032230
         H           -1.767421876301    -0.720149694484     2.375860935501     1.007825032230
         C           -2.421910876301     0.326578305516     0.643636935501    12.000000000000
         O           -3.633814876301     0.142976305516     0.586167935501    15.994914619570
         N           -1.643421876301     0.577372305516    -0.438401064499    14.003074004430
         H           -0.646689876301     0.694019305516    -0.306585064499     1.007825032230
         C           -2.200419876301     0.661249305516    -1.768146064499    12.000000000000
         H           -3.265388876301     0.464954305516    -1.689056064499     1.007825032230
         H           -2.051166876301     1.651395305516    -2.196722064499     1.007825032230
         H           -1.749992876301    -0.076543694484    -2.431551064499     1.007825032230
         C            1.090557123699    -1.781595694484     0.239951935501    12.000000000000
         H            1.648782123699    -2.691599694484     0.034043935501     1.007825032230
         H            0.161865123699    -1.788125694484    -0.324373064499     1.007825032230
         H            0.831338123699    -1.758149694484     1.296892935501     1.007825032230
         C            1.858193123699    -0.527183694484    -0.096284064499    12.000000000000
         O            1.313006123699     0.574252305516    -0.153257064499    15.994914619570
         N            3.184951123699    -0.695997694484    -0.310032064499    14.003074004430
         H            3.561272123699    -1.623243694484    -0.233275064499     1.007825032230
         C            4.072189123699     0.410468305516    -0.598981064499    12.000000000000
         H            3.457997123699     1.301278305516    -0.678805064499     1.007825032230
         H            4.799604123699     0.549934305516     0.198421935501     1.007825032230
         H            4.597180123699     0.250486305516    -1.538123064499     1.007825032230

  Charge       = 0
  Multiplicity = 1
  Basis Set: AUG-CC-PVQZ
    Blend: AUG-CC-PVQZ
  Basis Set: (AUG-CC-PVQZ AUX)
    Blend: AUG-CC-PVQZ-JKFIT

    Orbital Energies [Eh]
    ---------------------

    Doubly Occupied:

       1A    -20.533312     2A    -20.487252     3A    -15.605382
       4A    -15.554089     5A    -11.370832     6A    -11.324606
       7A    -11.270608     8A    -11.250497     9A    -11.235673
      10A    -11.214810    11A     -1.398348    12A     -1.350758
      13A     -1.251862    14A     -1.205103    15A     -1.037866
      16A     -0.998494    17A     -0.950202    18A     -0.911300
      19A     -0.813360    20A     -0.763376    21A     -0.710766
      22A     -0.676575    23A     -0.669282    24A     -0.652640
      25A     -0.632915    26A     -0.613655    27A     -0.604987
      28A     -0.603171    29A     -0.573514    30A     -0.568539
      31A     -0.562488    32A     -0.557540    33A     -0.534495
      34A     -0.526610    35A     -0.523820    36A     -0.485232
      37A     -0.446849    38A     -0.414776    39A     -0.399662
      40A     -0.367253

  @DF-RHF Final Energy:  -494.24308070212351

   => Energetics <=

    Nuclear Repulsion Energy =            539.6263811605665524
    One-Electron Energy =               -1744.4339374720634623
    Two-Electron Energy =                 710.5644756093734031
    Total Energy =                       -494.2430807021235069

  Dipole Moment: [D]
     X:     7.8368      Y:    -2.7074      Z:    -0.6171     Total:     8.3142

  Basis Set: (AUG-CC-PVQZ AUX)
    Blend: AUG-CC-PVQZ-RI
	 Reference Energy          =    -494.2430807021235069 [Eh]
	 Singles Energy            =      -0.0000000000000000 [Eh]
	 Same-Spin Energy          =      -0.5265226972874149 [Eh]
	 Opposite-Spin Energy      =      -1.8244958093247563 [Eh]
	 Correlation Energy        =      -2.3510185066121712 [Eh]
	 Total Energy              =    -496.5940992087356562 [Eh]

	 ================> DF-SCS-MP2 Energies <==================
	-----------------------------------------------------------
	 SCS Same-Spin Scale       =       0.3333333333333333 [-]
	 SCS Opposite-Spin Scale   =       1.2000000000000000 [-]
	 SCS Same-Spin Energy      =      -0.1755075657624716 [Eh]
	 SCS Opposite-Spin Energy  =      -2.1893949711897074 [Eh]
	 SCS Correlation Energy    =      -2.3649025369521790 [Eh]
	 SCS Total Energy          =    -496.6079832390756792 [Eh]
	-----------------------------------------------------------

*** Psi4 exiting successfully. Buy a developer a beer!
