                               Psi4 1.4a2.dev224

  ==> Input File <==

--------------------------------------------------------------------------
#Generated by lconvert.py for cbs job

memory 40 GB

molecule  {
0 1
  C       -0.7015030    -0.2906280     2.4068840
  H       -1.1832960     0.3956480     3.0988740
  H        0.3495620    -0.0303220     2.3078330
  H       -0.7940570    -1.2916050     2.8240390
  C       -1.4485460    -0.2448770     1.0918150
  O       -2.6604500    -0.4284790     1.0343460
  N       -0.6700570     0.0059170     0.0097770
  H        0.3266750     0.1225640     0.1415930
  C       -1.2270550     0.0897940    -1.3199680
  H       -2.2920240    -0.1065010    -1.2408780
  H       -1.0778020     1.0799400    -1.7485440
  H       -0.7766280    -0.6479990    -1.9833730
--
0 1
  C        1.6719830    -2.3290980     0.6574650
  H        2.2302080    -3.2391010     0.4515570
  H        0.7432910    -2.3356280     0.0931390
  H        1.4127640    -2.3056510     1.7144060
  C        2.4396190    -1.0746860     0.3212280
  O        1.8944320     0.0267510     0.2642560
  N        3.7663770    -1.2435000     0.1074800
  H        4.1426980    -2.1707460     0.1842370
  C        4.6536150    -0.1370340    -0.1814690
  H        4.0394230     0.7537760    -0.2612920
  H        5.3810300     0.0024320     0.6159350
  H        5.1786050    -0.2970160    -1.1206110
units angstrom
no_reorient
symmetry c1
}

set {
scf_type DF
mp2_type DF
e_convergence 7
reference rhf
}

energy('mp2/aug-cc-pv[tq]z', bsse_type='cp')
--------------------------------------------------------------------------

    Molecular point group: c1
  Charge       = 0
  Multiplicity = 1
  Basis Set: AUG-CC-PVTZ
    Blend: AUG-CC-PVTZ
  Basis Set: (AUG-CC-PVTZ AUX)
    Blend: AUG-CC-PVTZ-JKFIT
  @DF-RHF Final Energy:  -247.10247330671109
    Total Energy =                       -247.1024733067110901
  Basis Set: (AUG-CC-PVTZ AUX)
    Blend: AUG-CC-PVTZ-RI
	 Reference Energy          =    -247.1024733067110901 [Eh]
	 Singles Energy            =      -0.0000000000000000 [Eh]
	 Same-Spin Energy          =      -0.2464973380382795 [Eh]
	 Opposite-Spin Energy      =      -0.8098660849128376 [Eh]
	 Correlation Energy        =      -1.0563634229511172 [Eh]
	 Total Energy              =    -248.1588367296621982 [Eh]
	 SCS Total Energy          =    -248.1564783879525748 [Eh]
    Molecular point group: c1
  Basis Set: AUG-CC-PVQZ
    Blend: AUG-CC-PVQZ
  Basis Set: (AUG-CC-PVQZ AUX)
    Blend: AUG-CC-PVQZ-JKFIT
  @DF-RHF Final Energy:  -247.11790853763210
    Total Energy =                       -247.1179085376321041
  Basis Set: (AUG-CC-PVQZ AUX)
  @DF-RHF Final Energy:  -247.10270452080368
    Total Energy =                       -247.1027045208036839
  @DF-RHF Final Energy:  -247.11797428240499
    Total Energy =                       -247.1179742824049868
  @DF-RHF Final Energy:  -247.10230354983696
    Total Energy =                       -247.1023035498369609
  @DF-RHF Final Energy:  -247.11759168652014
    Total Energy =                       -247.1175916865201430
  @DF-RHF Final Energy:  -247.10211095111890
    Total Energy =                       -247.1021109511189024
  @DF-RHF Final Energy:  -247.11754817715129
    Total Energy =                       -247.1175481771512636
  Multiplicity = 1
  @DF-RHF Final Energy:  -494.20164936523861
    Total Energy =                       -494.2016493652386089
	 Singles Energy            =      -0.0000000000000000 [Eh]
	 Same-Spin Energy          =      -0.4999035079943913 [Eh]
	 Opposite-Spin Energy      =      -1.6295747371048579 [Eh]
	 Correlation Energy        =      -2.1294782450992491 [Eh]
	 Total Energy              =    -496.3311276103378304 [Eh]
	 SCS Total Energy          =    -496.3237735524292589 [Eh]
    Molecular point group: c1

    Geometry (in Angstrom), charge = 0, multiplicity = 1:

       Center              X                  Y                   Z               Mass
    ------------   -----------------  -----------------  -----------------  -----------------
         C           -1.478898369403     0.268850682245     1.974038716302    12.000000000000
         H           -1.960691369403     0.955126682245     2.666028716302     1.007825032230
         H           -0.427833369403     0.529156682245     1.874987716302     1.007825032230
         H           -1.571452369403    -0.732126317755     2.391193716302     1.007825032230
         C           -2.225941369403     0.314601682245     0.658969716302    12.000000000000
         O           -3.437845369403     0.130999682245     0.601500716302    15.994914619570
         N           -1.447452369403     0.565395682245    -0.423068283698    14.003074004430
         H           -0.450720369403     0.682042682245    -0.291252283698     1.007825032230
         C           -2.004450369403     0.649272682245    -1.752813283698    12.000000000000
         H           -3.069419369403     0.452977682245    -1.673723283698     1.007825032230
         H           -1.855197369403     1.639418682245    -2.181389283698     1.007825032230
         H           -1.554023369403    -0.088520317755    -2.416218283698     1.007825032230
         C            0.894587630597    -1.769619317755     0.224619716302    12.000000000000
         H            1.452812630597    -2.679622317755     0.018711716302     1.007825032230
         H           -0.034104369403    -1.776149317755    -0.339706283698     1.007825032230
         H            0.635368630597    -1.746172317755     1.281560716302     1.007825032230
         C            1.662223630597    -0.515207317755    -0.111617283698    12.000000000000
         O            1.117036630597     0.586229682245    -0.168589283698    15.994914619570
         N            2.988981630597    -0.684021317755    -0.325365283698    14.003074004430
         H            3.365302630597    -1.611267317755    -0.248608283698     1.007825032230
         C            3.876219630597     0.422444682245    -0.614314283698    12.000000000000
         H            3.262027630597     1.313254682245    -0.694137283698     1.007825032230
         H            4.603634630597     0.561910682245     0.183089716302     1.007825032230
         H            4.401209630597     0.262462682245    -1.553456283698     1.007825032230

  Charge       = 0
  Multiplicity = 1
  Basis Set: AUG-CC-PVQZ
    Blend: AUG-CC-PVQZ
  Basis Set: (AUG-CC-PVQZ AUX)
    Blend: AUG-CC-PVQZ-JKFIT

    Orbital Energies [Eh]
    ---------------------

    Doubly Occupied:

       1A    -20.540731     2A    -20.479546     3A    -15.611967
       4A    -15.534565     5A    -11.379523     6A    -11.316228
       7A    -11.275025     8A    -11.253047     9A    -11.228812
      10A    -11.211032    11A     -1.411844    12A     -1.343053
      13A     -1.259985    14A     -1.194315    15A     -1.042703
      16A     -0.993417    17A     -0.954736    18A     -0.905058
      19A     -0.826639    20A     -0.758627    21A     -0.717086
      22A     -0.685173    23A     -0.667174    24A     -0.657340
      25A     -0.630090    26A     -0.609635    27A     -0.608032
      28A     -0.604878    29A     -0.576235    30A     -0.567036
      31A     -0.563716    32A     -0.551483    33A     -0.537794
      34A     -0.525385    35A     -0.517564    36A     -0.479179
      37A     -0.448964    38A     -0.422733    39A     -0.392196
      40A     -0.355999

  @DF-RHF Final Energy:  -494.23226098179896

   => Energetics <=

    Nuclear Repulsion Energy =            554.7768388318955886
    One-Electron Energy =               -1774.7411221272091097
    Two-Electron Energy =                 725.7320223135146762
    Total Energy =                       -494.2322609817989587

  Dipole Moment: [D]
     X:     8.4006      Y:    -2.7694      Z:    -0.6320     Total:     8.8678

  Basis Set: (AUG-CC-PVQZ AUX)
    Blend: AUG-CC-PVQZ-RI
	 Reference Energy          =    -494.2322609817989587 [Eh]
	 Singles Energy            =      -0.0000000000000000 [Eh]
	 Same-Spin Energy          =      -0.5295235537851797 [Eh]
	 Opposite-Spin Energy      =      -1.8274022508150152 [Eh]
	 Correlation Energy        =      -2.3569258046001949 [Eh]
	 Total Energy              =    -496.5891867863991820 [Eh]

	 ================> DF-SCS-MP2 Energies <==================
	-----------------------------------------------------------
	 SCS Same-Spin Scale       =       0.3333333333333333 [-]
	 SCS Opposite-Spin Scale   =       1.2000000000000000 [-]
	 SCS Same-Spin Energy      =      -0.1765078512617266 [Eh]
	 SCS Opposite-Spin Energy  =      -2.1928827009780183 [Eh]
	 SCS Correlation Energy    =      -2.3693905522397447 [Eh]
	 SCS Total Energy          =    -496.6016515340386945 [Eh]
	-----------------------------------------------------------

*** Psi4 exiting successfully. Buy a developer a beer!
