                               Psi4 1.4a2.dev224

  ==> Input File <==

--------------------------------------------------------------------------
#Generated by lconvert.py for cbs job

memory 40 GB

molecule  {
0 1
  C       -0.7015030    -0.2906280     2.4068840
  H       -1.1832960     0.3956480     3.0988740
  H        0.3495620    -0.0303220     2.3078330
  H       -0.7940570    -1.2916050     2.8240390
  C       -1.4485460    -0.2448770     1.0918150
  O       -2.6604500    -0.4284790     1.0343460
  N       -0.6700570     0.0059170     0.0097770
  H        0.3266750     0.1225640     0.1415930
  C       -1.2270550     0.0897940    -1.3199680
  H       -2.2920240    -0.1065010    -1.2408780
  H       -1.0778020     1.0799400    -1.7485440
  H       -0.7766280    -0.6479990    -1.9833730
--
0 1
  C        2.1620060    -2.3590460     0.6958050
  H        2.7202310    -3.2690490     0.4898970
  H        1.2333140    -2.3655750     0.1314790
  H        1.9027870    -2.3355990     1.7527460
  C        2.9296420    -1.1046340     0.3595680
  O        2.3844550    -0.0031970     0.3025950
  N        4.2564000    -1.2734480     0.1458200
  H        4.6327220    -2.2006930     0.2225770
  C        5.1436390    -0.1669820    -0.1431290
  H        4.5294460     0.7238280    -0.2229520
  H        5.8710530    -0.0275160     0.6542750
  H        5.6686290    -0.3269630    -1.0822710
units angstrom
no_reorient
symmetry c1
}

set {
scf_type DF
mp2_type DF
e_convergence 7
reference rhf
}

energy('mp2/aug-cc-pv[tq]z', bsse_type='cp')
--------------------------------------------------------------------------

    Molecular point group: c1
  Charge       = 0
  Multiplicity = 1
  Basis Set: AUG-CC-PVTZ
    Blend: AUG-CC-PVTZ
  Basis Set: (AUG-CC-PVTZ AUX)
    Blend: AUG-CC-PVTZ-JKFIT
  @DF-RHF Final Energy:  -247.10247331393006
    Total Energy =                       -247.1024733139300906
  Basis Set: (AUG-CC-PVTZ AUX)
    Blend: AUG-CC-PVTZ-RI
	 Reference Energy          =    -247.1024733139300622 [Eh]
	 Singles Energy            =      -0.0000000000000000 [Eh]
	 Same-Spin Energy          =      -0.2464973331647391 [Eh]
	 Opposite-Spin Energy      =      -0.8098660805929793 [Eh]
	 Correlation Energy        =      -1.0563634137577183 [Eh]
	 Total Energy              =    -248.1588367276877705 [Eh]
	 SCS Total Energy          =    -248.1564783883632117 [Eh]
    Molecular point group: c1
  Basis Set: AUG-CC-PVQZ
    Blend: AUG-CC-PVQZ
  Basis Set: (AUG-CC-PVQZ AUX)
    Blend: AUG-CC-PVQZ-JKFIT
  @DF-RHF Final Energy:  -247.11790854436234
    Total Energy =                       -247.1179085443623080
  Basis Set: (AUG-CC-PVQZ AUX)
  @DF-RHF Final Energy:  -247.10261557186507
    Total Energy =                       -247.1026155718651012
  @DF-RHF Final Energy:  -247.11795402232002
    Total Energy =                       -247.1179540223200206
  @DF-RHF Final Energy:  -247.10224716904270
    Total Energy =                       -247.1022471690426983
  @DF-RHF Final Energy:  -247.11757828201672
    Total Energy =                       -247.1175782820167228
  @DF-RHF Final Energy:  -247.10211095095318
    Total Energy =                       -247.1021109509531470
  @DF-RHF Final Energy:  -247.11754817765663
    Total Energy =                       -247.1175481776566585
  Multiplicity = 1
  @DF-RHF Final Energy:  -494.21290506661126
    Total Energy =                       -494.2129050666112562
	 Singles Energy            =      -0.0000000000000000 [Eh]
	 Same-Spin Energy          =      -0.4963939496310594 [Eh]
	 Opposite-Spin Energy      =      -1.6254565865282651 [Eh]
	 Correlation Energy        =      -2.1218505361593243 [Eh]
	 Total Energy              =    -496.3347556027705991 [Eh]
	 SCS Total Energy          =    -496.3289176203222155 [Eh]
    Molecular point group: c1

    Geometry (in Angstrom), charge = 0, multiplicity = 1:

       Center              X                  Y                   Z               Mass
    ------------   -----------------  -----------------  -----------------  -----------------
         C           -1.723909965332     0.283824661551     1.954868825777    12.000000000000
         H           -2.205702965332     0.970100661551     2.646858825777     1.007825032230
         H           -0.672844965332     0.544130661551     1.855817825777     1.007825032230
         H           -1.816463965332    -0.717152338449     2.372023825777     1.007825032230
         C           -2.470952965332     0.329575661551     0.639799825777    12.000000000000
         O           -3.682856965332     0.145973661551     0.582330825777    15.994914619570
         N           -1.692463965332     0.580369661551    -0.442238174223    14.003074004430
         H           -0.695731965332     0.697016661551    -0.310422174223     1.007825032230
         C           -2.249461965332     0.664246661551    -1.771983174223    12.000000000000
         H           -3.314430965332     0.467951661551    -1.692893174223     1.007825032230
         H           -2.100208965332     1.654392661551    -2.200559174223     1.007825032230
         H           -1.799034965332    -0.073546338449    -2.435388174223     1.007825032230
         C            1.139599034668    -1.784593338449     0.243789825777    12.000000000000
         H            1.697824034668    -2.694596338449     0.037881825777     1.007825032230
         H            0.210907034668    -1.791122338449    -0.320536174223     1.007825032230
         H            0.880380034668    -1.761146338449     1.300730825777     1.007825032230
         C            1.907235034668    -0.530181338449    -0.092447174223    12.000000000000
         O            1.362048034668     0.571255661551    -0.149420174223    15.994914619570
         N            3.233993034668    -0.698995338449    -0.306195174223    14.003074004430
         H            3.610315034668    -1.626240338449    -0.229438174223     1.007825032230
         C            4.121232034668     0.407470661551    -0.595144174223    12.000000000000
         H            3.507039034668     1.298280661551    -0.674967174223     1.007825032230
         H            4.848646034668     0.546936661551     0.202259825777     1.007825032230
         H            4.646222034668     0.247489661551    -1.534286174223     1.007825032230

  Charge       = 0
  Multiplicity = 1
  Basis Set: AUG-CC-PVQZ
    Blend: AUG-CC-PVQZ
  Basis Set: (AUG-CC-PVQZ AUX)
    Blend: AUG-CC-PVQZ-JKFIT

    Orbital Energies [Eh]
    ---------------------

    Doubly Occupied:

       1A    -20.531841     2A    -20.488616     3A    -15.604228
       4A    -15.557158     5A    -11.369300     6A    -11.326076
       7A    -11.269816     8A    -11.250026     9A    -11.236891
      10A    -11.215617    11A     -1.396225    12A     -1.352120
      13A     -1.250516    14A     -1.207028    15A     -1.037014
      16A     -0.999504    17A     -0.949386    18A     -0.912504
      19A     -0.811475    20A     -0.764903    21A     -0.709683
      22A     -0.675152    23A     -0.669987    24A     -0.651686
      25A     -0.633842    26A     -0.614694    27A     -0.604050
      28A     -0.602165    29A     -0.572956    30A     -0.569370
      31A     -0.561973    32A     -0.558486    33A     -0.535297
      34A     -0.525841    35A     -0.524898    36A     -0.486325
      37A     -0.445600    38A     -0.413337    39A     -0.400965
      40A     -0.369176

  @DF-RHF Final Energy:  -494.24361444467297

   => Energetics <=

    Nuclear Repulsion Energy =            536.1790523227178937
    One-Electron Energy =               -1737.5339006203694225
    Two-Electron Energy =                 707.1112338529786712
    Total Energy =                       -494.2436144446729713

  Dipole Moment: [D]
     X:     7.7406      Y:    -2.6980      Z:    -0.6120     Total:     8.2202

  Basis Set: (AUG-CC-PVQZ AUX)
    Blend: AUG-CC-PVQZ-RI
	 Reference Energy          =    -494.2436144446729713 [Eh]
	 Singles Energy            =      -0.0000000000000000 [Eh]
	 Same-Spin Energy          =      -0.5260248191001400 [Eh]
	 Opposite-Spin Energy      =      -1.8240065920183954 [Eh]
	 Correlation Energy        =      -2.3500314111185352 [Eh]
	 Total Energy              =    -496.5936458557915216 [Eh]

	 ================> DF-SCS-MP2 Energies <==================
	-----------------------------------------------------------
	 SCS Same-Spin Scale       =       0.3333333333333333 [-]
	 SCS Opposite-Spin Scale   =       1.2000000000000000 [-]
	 SCS Same-Spin Energy      =      -0.1753416063667133 [Eh]
	 SCS Opposite-Spin Energy  =      -2.1888079104220743 [Eh]
	 SCS Correlation Energy    =      -2.3641495167887876 [Eh]
	 SCS Total Energy          =    -496.6077639614617851 [Eh]
	-----------------------------------------------------------

*** Psi4 exiting successfully. Buy a developer a beer!
