                               Psi4 1.4a2.dev224

  ==> Input File <==

--------------------------------------------------------------------------
#Generated by lconvert.py for cbs job

memory 20 GB

molecule  {
0 1
  C      -0.701500   -0.290630    2.406880
  H      -1.183300    0.395650    3.098870
  H       0.349560   -0.030320    2.307830
  H      -0.794060   -1.291600    2.824040
  C      -1.448550   -0.244880    1.091810
  O      -2.660450   -0.428480    1.034350
  N      -0.670060    0.005920    0.009780
  H       0.326670    0.122560    0.141590
  C      -1.227060    0.089790   -1.319970
  H      -2.292020   -0.106500   -1.240880
  H      -1.077800    1.079940   -1.748540
  H      -0.776630   -0.648000   -1.983370
--
0 1
  C       2.651930   -2.388990    0.734140
  H       3.210160   -3.298990    0.528230
  H       1.723240   -2.395520    0.169810
  H       2.392710   -2.365540    1.791080
  C       3.419570   -1.134580    0.397900
  O       2.874380   -0.033140    0.340930
  N       4.746320   -1.303390    0.184150
  H       5.122650   -2.230640    0.260910
  C       5.633560   -0.196920   -0.104800
  H       5.019370    0.693890   -0.184620
  H       6.360980   -0.057460    0.692610
  H       6.158550   -0.356910   -1.043940
units angstrom
no_reorient
symmetry c1
}

set {
scf_type DF
mp2_type DF
e_convergence 7
reference rhf
}

energy('mp2/aug-cc-pv[tq]z', bsse_type='cp')
--------------------------------------------------------------------------

    Molecular point group: c1
  Charge       = 0
  Multiplicity = 1
  Basis Set: AUG-CC-PVTZ
    Blend: AUG-CC-PVTZ
  Basis Set: (AUG-CC-PVTZ AUX)
    Blend: AUG-CC-PVTZ-JKFIT
  @DF-RHF Final Energy:  -247.10247289641009
    Total Energy =                       -247.1024728964100632
  Basis Set: (AUG-CC-PVTZ AUX)
    Blend: AUG-CC-PVTZ-RI
	 Reference Energy          =    -247.1024728964100916 [Eh]
	 Singles Energy            =      -0.0000000000000000 [Eh]
	 Same-Spin Energy          =      -0.2464973855877390 [Eh]
	 Opposite-Spin Energy      =      -0.8098662848620555 [Eh]
	 Correlation Energy        =      -1.0563636704497945 [Eh]
	 Total Energy              =    -248.1588365668598897 [Eh]
	 SCS Total Energy          =    -248.1564782334404811 [Eh]
    Molecular point group: c1
  Basis Set: AUG-CC-PVQZ
    Blend: AUG-CC-PVQZ
  Basis Set: (AUG-CC-PVQZ AUX)
    Blend: AUG-CC-PVQZ-JKFIT
  @DF-RHF Final Energy:  -247.11790810391528
    Total Energy =                       -247.1179081039152834
  Basis Set: (AUG-CC-PVQZ AUX)
  @DF-RHF Final Energy:  -247.10256195346733
    Total Energy =                       -247.1025619534673297
  @DF-RHF Final Energy:  -247.11793958918497
    Total Energy =                       -247.1179395891849708
  @DF-RHF Final Energy:  -247.10219525664598
    Total Energy =                       -247.1021952566459845
  @DF-RHF Final Energy:  -247.11756982427261
    Total Energy =                       -247.1175698242726071
  @DF-RHF Final Energy:  -247.10211159688259
    Total Energy =                       -247.1021115968825939
  @DF-RHF Final Energy:  -247.11754885677522
    Total Energy =                       -247.1175488567752154
  Multiplicity = 1
  @DF-RHF Final Energy:  -494.21194211557804
    Total Energy =                       -494.2119421155780401
	 Singles Energy            =      -0.0000000000000000 [Eh]
	 Same-Spin Energy          =      -0.4947478514534302 [Eh]
	 Opposite-Spin Energy      =      -1.6230099896709120 [Eh]
	 Correlation Energy        =      -2.1177578411243423 [Eh]
	 Total Energy              =    -496.3296999567023704 [Eh]
	 SCS Total Energy          =    -496.3244700536675964 [Eh]
    Molecular point group: c1

    Geometry (in Angstrom), charge = 0, multiplicity = 1:

       Center              X                  Y                   Z               Mass
    ------------   -----------------  -----------------  -----------------  -----------------
         C           -1.968867993249     0.298794524023     1.935698860168    12.000000000000
         H           -2.450667993249     0.985074524023     2.627688860168     1.007825032230
         H           -0.917807993249     0.559104524023     1.836648860168     1.007825032230
         H           -2.061427993249    -0.702175475977     2.352858860168     1.007825032230
         C           -2.715917993249     0.344544524023     0.620628860168    12.000000000000
         O           -3.927817993249     0.160944524023     0.563168860168    15.994914619570
         N           -1.937427993249     0.595344524023    -0.461401139832    14.003074004430
         H           -0.940697993249     0.711984524023    -0.329591139832     1.007825032230
         C           -2.494427993249     0.679214524023    -1.791151139832    12.000000000000
         H           -3.559387993249     0.482924524023    -1.712061139832     1.007825032230
         H           -2.345167993249     1.669364524023    -2.219721139832     1.007825032230
         H           -2.043997993249    -0.058575475977    -2.454551139832     1.007825032230
         C            1.384562006751    -1.799565475977     0.262958860168    12.000000000000
         H            1.942792006751    -2.709565475977     0.057048860168     1.007825032230
         H            0.455872006751    -1.806095475977    -0.301371139832     1.007825032230
         H            1.125342006751    -1.776115475977     1.319898860168     1.007825032230
         C            2.152202006751    -0.545155475977    -0.073281139832    12.000000000000
         O            1.607012006751     0.556284524023    -0.130251139832    15.994914619570
         N            3.478952006751    -0.713965475977    -0.287031139832    14.003074004430
         H            3.855282006751    -1.641215475977    -0.210271139832     1.007825032230
         C            4.366192006751     0.392504524023    -0.575981139832    12.000000000000
         H            3.752002006751     1.283314524023    -0.655801139832     1.007825032230
         H            5.093612006751     0.531964524023     0.221428860168     1.007825032230
         H            4.891182006751     0.232514524023    -1.515121139832     1.007825032230

  Charge       = 0
  Multiplicity = 1
  Basis Set: AUG-CC-PVQZ
    Blend: AUG-CC-PVQZ
  Basis Set: (AUG-CC-PVQZ AUX)
    Blend: AUG-CC-PVQZ-JKFIT

    Orbital Energies [Eh]
    ---------------------

    Doubly Occupied:

       1A    -20.525915     2A    -20.493501     3A    -15.600001
       4A    -15.567023     5A    -11.363712     6A    -11.331315
       7A    -11.266865     8A    -11.248083     9A    -11.241301
      10A    -11.219017    11A     -1.388979    12A     -1.357003
      13A     -1.245769    14A     -1.213903    15A     -1.033819
      16A     -1.003497    17A     -0.946318    18A     -0.917048
      19A     -0.805590    20A     -0.771450    21A     -0.705749
      22A     -0.675281    23A     -0.668301    24A     -0.648020
      25A     -0.638047    26A     -0.618922    27A     -0.600978
      28A     -0.596679    29A     -0.573385    30A     -0.569889
      31A     -0.564506    32A     -0.557536    33A     -0.539529
      34A     -0.530280    35A     -0.520652    36A     -0.490355
      37A     -0.439704    38A     -0.408170    39A     -0.405505
      40A     -0.375810

  @DF-RHF Final Energy:  -494.24269870966998

   => Energetics <=

    Nuclear Repulsion Energy =            520.6795704034411756
    One-Electron Energy =               -1706.5097412352026822
    Two-Electron Energy =                 691.5874721220915262
    Total Energy =                       -494.2426987096699804

  Dipole Moment: [D]
     X:     7.4044      Y:    -2.6680      Z:    -0.5869     Total:     7.8923

  Basis Set: (AUG-CC-PVQZ AUX)
    Blend: AUG-CC-PVQZ-RI
	 Reference Energy          =    -494.2426987096699804 [Eh]
	 Singles Energy            =      -0.0000000000000000 [Eh]
	 Same-Spin Energy          =      -0.5244240045789634 [Eh]
	 Opposite-Spin Energy      =      -1.8223543360892158 [Eh]
	 Correlation Energy        =      -2.3467783406681795 [Eh]
	 Total Energy              =    -496.5894770503381324 [Eh]

	 ================> DF-SCS-MP2 Energies <==================
	-----------------------------------------------------------
	 SCS Same-Spin Scale       =       0.3333333333333333 [-]
	 SCS Opposite-Spin Scale   =       1.2000000000000000 [-]
	 SCS Same-Spin Energy      =      -0.1748080015263211 [Eh]
	 SCS Opposite-Spin Energy  =      -2.1868252033070590 [Eh]
	 SCS Correlation Energy    =      -2.3616332048333799 [Eh]
	 SCS Total Energy          =    -496.6043319145033479 [Eh]
	-----------------------------------------------------------

*** Psi4 exiting successfully. Buy a developer a beer!
