                               Psi4 1.4a2.dev224

  ==> Input File <==

--------------------------------------------------------------------------
#Generated by lconvert.py for cbs job

memory 40 GB

molecule  {
0 1
  C       -0.7243050    -0.7049360     2.2838680
  H        0.3353180    -0.6299430     2.0531820
  H       -0.9516970    -1.7119900     2.6256510
  H       -0.9696280    -0.0220800     3.0937650
  C       -1.6149350    -0.3874290     1.1040690
  O       -2.8373240    -0.4150220     1.1941330
  N       -0.9534200    -0.0764040    -0.0408200
  H        0.0538090    -0.0755670    -0.0366400
  C       -1.6581240     0.2500940    -1.2585530
  H       -2.7203720     0.1769440    -1.0466530
  H       -1.4303050     1.2629630    -1.5880940
  H       -1.4056260    -0.4443350    -2.0585840
--
0 1
  O        2.2351050    -0.0572990    -0.1627260
  H        2.8000820    -0.7702570    -0.4679250
  H        2.8148570     0.7068950    -0.1388270
units angstrom
no_reorient
symmetry c1
}

set {
scf_type DF
mp2_type DF
e_convergence 7
reference rhf
}

energy('mp2/aug-cc-pv[tq]z', bsse_type='cp')
--------------------------------------------------------------------------

    Molecular point group: c1
  Charge       = 0
  Multiplicity = 1
  Basis Set: AUG-CC-PVTZ
    Blend: AUG-CC-PVTZ
  Basis Set: (AUG-CC-PVTZ AUX)
    Blend: AUG-CC-PVTZ-JKFIT
  @DF-RHF Final Energy:   -76.06041808342241
    Total Energy =                        -76.0604180834224053
  Basis Set: (AUG-CC-PVTZ AUX)
    Blend: AUG-CC-PVTZ-RI
	 Reference Energy          =     -76.0604180834224053 [Eh]
	 Singles Energy            =      -0.0000000000000000 [Eh]
	 Same-Spin Energy          =      -0.0683820208213973 [Eh]
	 Opposite-Spin Energy      =      -0.2152903908454430 [Eh]
	 Correlation Energy        =      -0.2836724116668403 [Eh]
	 Total Energy              =     -76.3440904950892474 [Eh]
	 SCS Total Energy          =     -76.3415605593773989 [Eh]
    Molecular point group: c1
  Basis Set: AUG-CC-PVQZ
    Blend: AUG-CC-PVQZ
  Basis Set: (AUG-CC-PVQZ AUX)
    Blend: AUG-CC-PVQZ-JKFIT
  @DF-RHF Final Energy:   -76.06580018270066
    Total Energy =                        -76.0658001827006558
  Basis Set: (AUG-CC-PVQZ AUX)
  @DF-RHF Final Energy:   -76.06050603215452
    Total Energy =                        -76.0605060321545068
  @DF-RHF Final Energy:   -76.06584094814662
    Total Energy =                        -76.0658409481466151
  @DF-RHF Final Energy:  -247.10252369408943
    Total Energy =                       -247.1025236940894274
  @DF-RHF Final Energy:  -247.11790832313071
    Total Energy =                       -247.1179083231307345
  @DF-RHF Final Energy:  -247.10245262110743
    Total Energy =                       -247.1024526211074317
  @DF-RHF Final Energy:  -247.11789885192840
    Total Energy =                       -247.1178988519284303
  Multiplicity = 1
  @DF-RHF Final Energy:  -323.16882886913345
    Total Energy =                       -323.1688288691334492
	 Singles Energy            =      -0.0000000000000000 [Eh]
	 Same-Spin Energy          =      -0.3163144312676275 [Eh]
	 Opposite-Spin Energy      =      -1.0276517513815415 [Eh]
	 Correlation Energy        =      -1.3439661826491691 [Eh]
	 Total Energy              =    -324.5127950517826321 [Eh]
	 SCS Total Energy          =    -324.5074491145471711 [Eh]
    Molecular point group: c1

    Geometry (in Angstrom), charge = 0, multiplicity = 1:

       Center              X                  Y                   Z               Mass
    ------------   -----------------  -----------------  -----------------  -----------------
         C            0.071149263985    -0.482551836372     1.801421268368    12.000000000000
         H            1.130772263985    -0.407558836372     1.570735268368     1.007825032230
         H           -0.156242736015    -1.489605836372     2.143204268368     1.007825032230
         H           -0.174173736015     0.200304163628     2.611318268368     1.007825032230
         C           -0.819480736015    -0.165044836372     0.621622268368    12.000000000000
         O           -2.041869736015    -0.192637836372     0.711686268368    15.994914619570
         N           -0.157965736015     0.145980163628    -0.523266731632    14.003074004430
         H            0.849263263985     0.146817163628    -0.519086731632     1.007825032230
         C           -0.862669736015     0.472478163628    -1.740999731632    12.000000000000
         H           -1.924917736015     0.399328163628    -1.529099731632     1.007825032230
         H           -0.634850736015     1.485347163628    -2.070540731632     1.007825032230
         H           -0.610171736015    -0.221950836372    -2.541030731632     1.007825032230
         O            3.030559263985     0.165085163628    -0.645172731632    15.994914619570
         H            3.595536263985    -0.547872836372    -0.950371731632     1.007825032230
         H            3.610311263985     0.929279163628    -0.621273731632     1.007825032230

  Charge       = 0
  Multiplicity = 1
  Basis Set: AUG-CC-PVQZ
    Blend: AUG-CC-PVQZ
  Basis Set: (AUG-CC-PVQZ AUX)
    Blend: AUG-CC-PVQZ-JKFIT

    Orbital Energies [Eh]
    ---------------------

    Doubly Occupied:

       1A    -20.595819     2A    -20.493221     3A    -15.564850
       4A    -11.330990     5A    -11.241614     6A    -11.219030
       7A     -1.384007     8A     -1.357360     9A     -1.213158
      10A     -1.003657    11A     -0.917340    12A     -0.773398
      13A     -0.746937    14A     -0.676373    15A     -0.639688
      16A     -0.620926    17A     -0.618724    18A     -0.573797
      19A     -0.564057    20A     -0.545358    21A     -0.537018
      22A     -0.529234    23A     -0.490372    24A     -0.405862
      25A     -0.375278

  @DF-RHF Final Energy:  -323.18956986816704

   => Energetics <=

    Nuclear Repulsion Energy =            241.8178415606190867
    One-Electron Energy =                -921.1786899073731547
    Two-Electron Energy =                 356.1712784785870554
    Total Energy =                       -323.1895698681670410

  Dipole Moment: [D]
     X:     6.6251      Y:     0.4148      Z:    -1.6671     Total:     6.8442

  Basis Set: (AUG-CC-PVQZ AUX)
    Blend: AUG-CC-PVQZ-RI
	 Reference Energy          =    -323.1895698681670410 [Eh]
	 Singles Energy            =      -0.0000000000000000 [Eh]
	 Same-Spin Energy          =      -0.3354626620241939 [Eh]
	 Opposite-Spin Energy      =      -1.1557315897670142 [Eh]
	 Correlation Energy        =      -1.4911942517912080 [Eh]
	 Total Energy              =    -324.6807641199582690 [Eh]

	 ================> DF-SCS-MP2 Energies <==================
	-----------------------------------------------------------
	 SCS Same-Spin Scale       =       0.3333333333333333 [-]
	 SCS Opposite-Spin Scale   =       1.2000000000000000 [-]
	 SCS Same-Spin Energy      =      -0.1118208873413980 [Eh]
	 SCS Opposite-Spin Energy  =      -1.3868779077204170 [Eh]
	 SCS Correlation Energy    =      -1.4986987950618149 [Eh]
	 SCS Total Energy          =    -324.6882686632288824 [Eh]
	-----------------------------------------------------------

*** Psi4 exiting successfully. Buy a developer a beer!
