                               Psi4 1.4a2.dev224

  ==> Input File <==

--------------------------------------------------------------------------
#Generated by lconvert.py for cbs job

memory 40 GB

molecule  {
0 1
  C       -0.7243050    -0.7049360     2.2838680
  H        0.3353180    -0.6299430     2.0531820
  H       -0.9516970    -1.7119900     2.6256510
  H       -0.9696280    -0.0220800     3.0937650
  C       -1.6149350    -0.3874290     1.1040690
  O       -2.8373240    -0.4150220     1.1941330
  N       -0.9534200    -0.0764040    -0.0408200
  H        0.0538090    -0.0755670    -0.0366400
  C       -1.6581240     0.2500940    -1.2585530
  H       -2.7203720     0.1769440    -1.0466530
  H       -1.4303050     1.2629630    -1.5880940
  H       -1.4056260    -0.4443350    -2.0585840
--
0 1
  O        1.5079400    -0.0633890    -0.1206930
  H        2.0729170    -0.7763470    -0.4258930
  H        2.0876910     0.7008050    -0.0967950
units angstrom
no_reorient
symmetry c1
}

set {
scf_type DF
mp2_type DF
e_convergence 7
reference rhf
}

energy('mp2/aug-cc-pv[tq]z', bsse_type='cp')
--------------------------------------------------------------------------

    Molecular point group: c1
  Charge       = 0
  Multiplicity = 1
  Basis Set: AUG-CC-PVTZ
    Blend: AUG-CC-PVTZ
  Basis Set: (AUG-CC-PVTZ AUX)
    Blend: AUG-CC-PVTZ-JKFIT
  @DF-RHF Final Energy:   -76.06041809661785
    Total Energy =                        -76.0604180966178376
  Basis Set: (AUG-CC-PVTZ AUX)
    Blend: AUG-CC-PVTZ-RI
	 Reference Energy          =     -76.0604180966178518 [Eh]
	 Singles Energy            =      -0.0000000000000000 [Eh]
	 Same-Spin Energy          =      -0.0683820176522421 [Eh]
	 Opposite-Spin Energy      =      -0.2152903813133749 [Eh]
	 Correlation Energy        =      -0.2836723989656170 [Eh]
	 Total Energy              =     -76.3440904955834725 [Eh]
	 SCS Total Energy          =     -76.3415605600779799 [Eh]
    Molecular point group: c1
  Basis Set: AUG-CC-PVQZ
    Blend: AUG-CC-PVQZ
  Basis Set: (AUG-CC-PVQZ AUX)
    Blend: AUG-CC-PVQZ-JKFIT
  @DF-RHF Final Energy:   -76.06580019668594
    Total Energy =                        -76.0658001966859274
  Basis Set: (AUG-CC-PVQZ AUX)
  @DF-RHF Final Energy:   -76.06060178236937
    Total Energy =                        -76.0606017823693747
  @DF-RHF Final Energy:   -76.06586803579880
    Total Energy =                        -76.0658680357988004
  @DF-RHF Final Energy:  -247.10257911529814
    Total Energy =                       -247.1025791152981128
  @DF-RHF Final Energy:  -247.11792060747780
    Total Energy =                       -247.1179206074777994
  @DF-RHF Final Energy:  -247.10245262143476
    Total Energy =                       -247.1024526214347361
  @DF-RHF Final Energy:  -247.11789885113785
    Total Energy =                       -247.1178988511378520
  @DF-RHF Final Energy:  -323.14751346467432
    Total Energy =                       -323.1475134646743186
  @DF-RHF Final Energy:  -323.16815146444861
    Total Energy =                       -323.1681514644486128
*** Psi4 exiting successfully. Buy a developer a beer!
                               Psi4 1.4a2.dev224
  @DF-RHF Final Energy:   -76.06041810914924
    Total Energy =                        -76.0604181091492393
  @DF-RHF Final Energy:   -76.06580020991490
    Total Energy =                        -76.0658002099148973
  @DF-RHF Final Energy:   -76.06056912262288
    Total Energy =                        -76.0605691226228942
  @DF-RHF Final Energy:   -76.06585920445144
    Total Energy =                        -76.0658592044514421
  @DF-RHF Final Energy:  -247.10255988242463
    Total Energy =                       -247.1025598824246572
  @DF-RHF Final Energy:  -247.11791521908185
    Total Energy =                       -247.1179152190818513
  @DF-RHF Final Energy:  -247.10245262199990
    Total Energy =                       -247.1024526219998734
  @DF-RHF Final Energy:  -247.11789885138916
    Total Energy =                       -247.1178988513891568
  @DF-RHF Final Energy:  -323.16116879583268
    Total Energy =                       -323.1611687958326797
  @DF-RHF Final Energy:  -323.18184387500139
    Total Energy =                       -323.1818438750013911
*** Psi4 exiting successfully. Buy a developer a beer!
                               Psi4 1.4a2.dev224
                               Psi4 1.4a2.dev224
                               Psi4 1.4a2.dev224
                               Psi4 1.4a2.dev224
                               Psi4 1.4a2.dev224
                               Psi4 1.4a2.dev224
                               Psi4 1.4a2.dev224
  @DF-RHF Final Energy:   -76.06041809420903
    Total Energy =                        -76.0604180942090267
  @DF-RHF Final Energy:   -76.06580018939300
    Total Energy =                        -76.0658001893930020
  @DF-RHF Final Energy:   -76.06043741554423
    Total Energy =                        -76.0604374155442287
  @DF-RHF Final Energy:   -76.06581266618605
    Total Energy =                        -76.0658126661860479
  @DF-RHF Final Energy:  -247.10247003269998
    Total Energy =                       -247.1024700327000119
  @DF-RHF Final Energy:  -247.11790265681054
    Total Energy =                       -247.1179026568105428
  @DF-RHF Final Energy:  -247.10245326228912
    Total Energy =                       -247.1024532622891456
  @DF-RHF Final Energy:  -247.11789954153363
    Total Energy =                       -247.1178995415336317
  @DF-RHF Final Energy:  -323.16605111511922
    Total Energy =                       -323.1660511151192168
  @DF-RHF Final Energy:  -323.18685060907654
    Total Energy =                       -323.1868506090765436
*** Psi4 exiting successfully. Buy a developer a beer!
                               Psi4 1.4a2.dev224
  @DF-RHF Final Energy:   -76.06041809421211
    Total Energy =                        -76.0604180942121104
  @DF-RHF Final Energy:   -76.06580018941139
    Total Energy =                        -76.0658001894113909
  @DF-RHF Final Energy:   -76.06042772981000
    Total Energy =                        -76.0604277298099873
  @DF-RHF Final Energy:   -76.06580570706856
    Total Energy =                        -76.0658057070685629
  @DF-RHF Final Energy:  -247.10246366603002
    Total Energy =                       -247.1024636660300189
  @DF-RHF Final Energy:  -247.11790123938002
    Total Energy =                       -247.1179012393799894
  @DF-RHF Final Energy:  -247.10245326194081
    Total Energy =                       -247.1024532619408092
  @DF-RHF Final Energy:  -247.11789954125095
    Total Energy =                       -247.1178995412509494
  Multiplicity = 1
  @DF-RHF Final Energy:  -323.16499284742792
    Total Energy =                       -323.1649928474279250
	 Singles Energy            =      -0.0000000000000000 [Eh]
	 Same-Spin Energy          =      -0.3149819686055810 [Eh]
	 Opposite-Spin Energy      =      -1.0253842851125934 [Eh]
	 Correlation Energy        =      -1.3403662537181744 [Eh]
	 Total Energy              =    -324.5053591011460981 [Eh]
	 SCS Total Energy          =    -324.5004479790982259 [Eh]
    Molecular point group: c1

    Geometry (in Angstrom), charge = 0, multiplicity = 1:

       Center              X                  Y                   Z               Mass
    ------------   -----------------  -----------------  -----------------  -----------------
         C           -0.278075100475    -0.485480616997     1.821609256129    12.000000000000
         H            0.781544899525    -0.410480616997     1.590919256129     1.007825032230
         H           -0.505475100475    -1.492530616997     2.163389256129     1.007825032230
         H           -0.523405100475     0.197379383003     2.631499256129     1.007825032230
         C           -1.168715100475    -0.167970616997     0.641809256129    12.000000000000
         O           -2.391095100475    -0.195560616997     0.731869256129    15.994914619570
         N           -0.507195100475     0.143059383003    -0.503080743871    14.003074004430
         H            0.500034899525     0.143889383003    -0.498900743871     1.007825032230
         C           -1.211895100475     0.469549383003    -1.720810743871    12.000000000000
         H           -2.274145100475     0.396399383003    -1.508910743871     1.007825032230
         H           -0.984075100475     1.482419383003    -2.050350743871     1.007825032230
         H           -0.959405100475    -0.224870616997    -2.520840743871     1.007825032230
         O            4.447064899525     0.176949383003    -0.727050743871    15.994914619570
         H            5.012034899525    -0.536010616997    -1.032250743871     1.007825032230
         H            5.026814899525     0.941149383003    -0.703150743871     1.007825032230

  Charge       = 0
  Multiplicity = 1
  Basis Set: AUG-CC-PVQZ
    Blend: AUG-CC-PVQZ
  Basis Set: (AUG-CC-PVQZ AUX)
    Blend: AUG-CC-PVQZ-JKFIT

    Orbital Energies [Eh]
    ---------------------

    Doubly Occupied:

       1A    -20.578221     2A    -20.501310     3A    -15.578241
       4A    -11.339640     5A    -11.248624     6A    -11.226306
       7A     -1.365467     8A     -1.364968     9A     -1.223835
      10A     -1.011330    11A     -0.925103    12A     -0.783108
      13A     -0.728735    14A     -0.683416    15A     -0.646079
      16A     -0.626787    17A     -0.599308    18A     -0.580461
      19A     -0.573153    20A     -0.548022    21A     -0.538077
      22A     -0.523639    23A     -0.497565    24A     -0.413652
      25A     -0.385220

  @DF-RHF Final Energy:  -323.18580351502544

   => Energetics <=

    Nuclear Repulsion Energy =            226.3338874264062213
    One-Electron Energy =                -890.0588531097290570
    Two-Electron Energy =                 340.5391621682973664
    Total Energy =                       -323.1858035150254409

  Dipole Moment: [D]
     X:     6.1421      Y:     0.3884      Z:    -1.5701     Total:     6.3515

  Basis Set: (AUG-CC-PVQZ AUX)
    Blend: AUG-CC-PVQZ-RI
	 Reference Energy          =    -323.1858035150254409 [Eh]
	 Singles Energy            =      -0.0000000000000000 [Eh]
	 Same-Spin Energy          =      -0.3342007283441926 [Eh]
	 Opposite-Spin Energy      =      -1.1544936118951739 [Eh]
	 Correlation Energy        =      -1.4886943402393664 [Eh]
	 Total Energy              =    -324.6744978552648035 [Eh]

	 ================> DF-SCS-MP2 Energies <==================
	-----------------------------------------------------------
	 SCS Same-Spin Scale       =       0.3333333333333333 [-]
	 SCS Opposite-Spin Scale   =       1.2000000000000000 [-]
	 SCS Same-Spin Energy      =      -0.1114002427813975 [Eh]
	 SCS Opposite-Spin Energy  =      -1.3853923342742085 [Eh]
	 SCS Correlation Energy    =      -1.4967925770556061 [Eh]
	 SCS Total Energy          =    -324.6825960920810417 [Eh]
	-----------------------------------------------------------

*** Psi4 exiting successfully. Buy a developer a beer!
