                               Psi4 1.4a2.dev224

  ==> Input File <==

--------------------------------------------------------------------------
#Generated by lconvert.py for cbs job

memory 40 GB

molecule  {
0 1
  C       -0.7243050    -0.7049360     2.2838680
  H        0.3353180    -0.6299430     2.0531820
  H       -0.9516970    -1.7119900     2.6256510
  H       -0.9696280    -0.0220800     3.0937650
  C       -1.6149350    -0.3874290     1.1040690
  O       -2.8373240    -0.4150220     1.1941330
  N       -0.9534200    -0.0764040    -0.0408200
  H        0.0538090    -0.0755670    -0.0366400
  C       -1.6581240     0.2500940    -1.2585530
  H       -2.7203720     0.1769440    -1.0466530
  H       -1.4303050     1.2629630    -1.5880940
  H       -1.4056260    -0.4443350    -2.0585840
--
0 1
  O        1.7156730    -0.0616490    -0.1327010
  H        2.2806500    -0.7746070    -0.4379000
  H        2.2954240     0.7025450    -0.1088020
units angstrom
no_reorient
symmetry c1
}

set {
scf_type DF
mp2_type DF
e_convergence 7
reference rhf
}

energy('mp2/aug-cc-pv[tq]z', bsse_type='cp')
--------------------------------------------------------------------------

    Molecular point group: c1
  Charge       = 0
  Multiplicity = 1
  Basis Set: AUG-CC-PVTZ
    Blend: AUG-CC-PVTZ
  Basis Set: (AUG-CC-PVTZ AUX)
    Blend: AUG-CC-PVTZ-JKFIT
  @DF-RHF Final Energy:   -76.06041810914924
    Total Energy =                        -76.0604181091492393
  Basis Set: (AUG-CC-PVTZ AUX)
    Blend: AUG-CC-PVTZ-RI
	 Reference Energy          =     -76.0604181091492393 [Eh]
	 Singles Energy            =      -0.0000000000000000 [Eh]
	 Same-Spin Energy          =      -0.0683820146470616 [Eh]
	 Opposite-Spin Energy      =      -0.2152903722790715 [Eh]
	 Correlation Energy        =      -0.2836723869261331 [Eh]
	 Total Energy              =     -76.3440904960753670 [Eh]
	 SCS Total Energy          =     -76.3415605607664816 [Eh]
    Molecular point group: c1
  Basis Set: AUG-CC-PVQZ
    Blend: AUG-CC-PVQZ
  Basis Set: (AUG-CC-PVQZ AUX)
    Blend: AUG-CC-PVQZ-JKFIT
  @DF-RHF Final Energy:   -76.06580020991490
    Total Energy =                        -76.0658002099148973
  Basis Set: (AUG-CC-PVQZ AUX)
  @DF-RHF Final Energy:   -76.06056912262288
    Total Energy =                        -76.0605691226228942
  @DF-RHF Final Energy:   -76.06585920445144
    Total Energy =                        -76.0658592044514421
  @DF-RHF Final Energy:  -247.10255988242463
    Total Energy =                       -247.1025598824246572
  @DF-RHF Final Energy:  -247.11791521908185
    Total Energy =                       -247.1179152190818513
  @DF-RHF Final Energy:  -247.10245262199990
    Total Energy =                       -247.1024526219998734
  @DF-RHF Final Energy:  -247.11789885138916
    Total Energy =                       -247.1178988513891568
  Multiplicity = 1
  @DF-RHF Final Energy:  -323.16116879583268
    Total Energy =                       -323.1611687958326797
	 Singles Energy            =      -0.0000000000000000 [Eh]
	 Same-Spin Energy          =      -0.3184446953406150 [Eh]
	 Opposite-Spin Energy      =      -1.0299818318153777 [Eh]
	 Correlation Energy        =      -1.3484265271559928 [Eh]
	 Total Energy              =    -324.5095953229886732 [Eh]
	 SCS Total Energy          =    -324.5032952257913621 [Eh]
    Molecular point group: c1

    Geometry (in Angstrom), charge = 0, multiplicity = 1:

       Center              X                  Y                   Z               Mass
    ------------   -----------------  -----------------  -----------------  -----------------
         C            0.173882875785    -0.481691490527     1.795482904228    12.000000000000
         H            1.233505875785    -0.406698490527     1.564796904228     1.007825032230
         H           -0.053509124215    -1.488745490527     2.137265904228     1.007825032230
         H           -0.071440124215     0.201164509473     2.605379904228     1.007825032230
         C           -0.716747124215    -0.164184490527     0.615683904228    12.000000000000
         O           -1.939136124215    -0.191777490527     0.705747904228    15.994914619570
         N           -0.055232124215     0.146840509473    -0.529205095772    14.003074004430
         H            0.951996875785     0.147677509473    -0.525025095772     1.007825032230
         C           -0.759936124215     0.473338509473    -1.746938095772    12.000000000000
         H           -1.822184124215     0.400188509473    -1.535038095772     1.007825032230
         H           -0.532117124215     1.486207509473    -2.076479095772     1.007825032230
         H           -0.507438124215    -0.221090490527    -2.546969095772     1.007825032230
         O            2.613860875785     0.161595509473    -0.621086095772    15.994914619570
         H            3.178837875785    -0.551362490527    -0.926285095772     1.007825032230
         H            3.193611875785     0.925789509473    -0.597187095772     1.007825032230

  Charge       = 0
  Multiplicity = 1
  Basis Set: AUG-CC-PVQZ
    Blend: AUG-CC-PVQZ
  Basis Set: (AUG-CC-PVQZ AUX)
    Blend: AUG-CC-PVQZ-JKFIT

    Orbital Energies [Eh]
    ---------------------

    Doubly Occupied:

       1A    -20.608627     2A    -20.486121     3A    -15.548490
       4A    -11.323311     5A    -11.235769     6A    -11.214858
       7A     -1.402833     8A     -1.350216     9A     -1.203777
      10A     -0.998413    11A     -0.911590    12A     -0.777051
      13A     -0.762872    14A     -0.678770    15A     -0.644084
      16A     -0.621129    17A     -0.612146    18A     -0.569271
      19A     -0.563681    20A     -0.554787    21A     -0.530443
      22A     -0.516795    23A     -0.484632    24A     -0.399144
      25A     -0.365761

  @DF-RHF Final Energy:  -323.18184387500139

   => Energetics <=

    Nuclear Repulsion Energy =            249.1708235213760645
    One-Electron Energy =                -935.9761987532932608
    Two-Electron Energy =                 363.6235313569158052
    Total Energy =                       -323.1818438750013911

  Dipole Moment: [D]
     X:     7.1105      Y:     0.4378      Z:    -1.7516     Total:     7.3362

  Basis Set: (AUG-CC-PVQZ AUX)
    Blend: AUG-CC-PVQZ-RI
	 Reference Energy          =    -323.1818438750013911 [Eh]
	 Singles Energy            =      -0.0000000000000000 [Eh]
	 Same-Spin Energy          =      -0.3376102393447039 [Eh]
	 Opposite-Spin Energy      =      -1.1577440572376294 [Eh]
	 Correlation Energy        =      -1.4953542965823332 [Eh]
	 Total Energy              =    -324.6771981715837114 [Eh]

	 ================> DF-SCS-MP2 Energies <==================
	-----------------------------------------------------------
	 SCS Same-Spin Scale       =       0.3333333333333333 [-]
	 SCS Opposite-Spin Scale   =       1.2000000000000000 [-]
	 SCS Same-Spin Energy      =      -0.1125367464482346 [Eh]
	 SCS Opposite-Spin Energy  =      -1.3892928686851553 [Eh]
	 SCS Correlation Energy    =      -1.5018296151333899 [Eh]
	 SCS Total Energy          =    -324.6836734901347654 [Eh]
	-----------------------------------------------------------

*** Psi4 exiting successfully. Buy a developer a beer!
