                               Psi4 1.4a2.dev224

  ==> Input File <==

--------------------------------------------------------------------------
#Generated by lconvert.py for cbs job

memory 40 GB

molecule  {
0 1
  C       -0.7243050    -0.7049360     2.2838680
  H        0.3353180    -0.6299430     2.0531820
  H       -0.9516970    -1.7119900     2.6256510
  H       -0.9696280    -0.0220800     3.0937650
  C       -1.6149350    -0.3874290     1.1040690
  O       -2.8373240    -0.4150220     1.1941330
  N       -0.9534200    -0.0764040    -0.0408200
  H        0.0538090    -0.0755670    -0.0366400
  C       -1.6581240     0.2500940    -1.2585530
  H       -2.7203720     0.1769440    -1.0466530
  H       -1.4303050     1.2629630    -1.5880940
  H       -1.4056260    -0.4443350    -2.0585840
--
0 1
  O        2.3389720    -0.0564290    -0.1687290
  H        2.9039490    -0.7693880    -0.4739290
  H        2.9187230     0.7077650    -0.1448310
units angstrom
no_reorient
symmetry c1
}

set {
scf_type DF
mp2_type DF
e_convergence 7
reference rhf
}

energy('mp2/aug-cc-pv[tq]z', bsse_type='cp')
--------------------------------------------------------------------------

    Molecular point group: c1
  Charge       = 0
  Multiplicity = 1
  Basis Set: AUG-CC-PVTZ
    Blend: AUG-CC-PVTZ
  Basis Set: (AUG-CC-PVTZ AUX)
    Blend: AUG-CC-PVTZ-JKFIT
  @DF-RHF Final Energy:   -76.06041807260206
    Total Energy =                        -76.0604180726020616
  Basis Set: (AUG-CC-PVTZ AUX)
    Blend: AUG-CC-PVTZ-RI
	 Reference Energy          =     -76.0604180726020616 [Eh]
	 Singles Energy            =      -0.0000000000000000 [Eh]
	 Same-Spin Energy          =      -0.0683820233658171 [Eh]
	 Opposite-Spin Energy      =      -0.2152903989354368 [Eh]
	 Correlation Energy        =      -0.2836724223012539 [Eh]
	 Total Energy              =     -76.3440904949033126 [Eh]
	 SCS Total Energy          =     -76.3415605591131907 [Eh]
    Molecular point group: c1
  Basis Set: AUG-CC-PVQZ
    Blend: AUG-CC-PVQZ
  Basis Set: (AUG-CC-PVQZ AUX)
    Blend: AUG-CC-PVQZ-JKFIT
  @DF-RHF Final Energy:   -76.06580017072891
    Total Energy =                        -76.0658001707289060
  Basis Set: (AUG-CC-PVQZ AUX)
  @DF-RHF Final Energy:   -76.06049796203159
    Total Energy =                        -76.0604979620316044
  @DF-RHF Final Energy:   -76.06583837139547
    Total Energy =                        -76.0658383713954720
  @DF-RHF Final Energy:  -247.10251773810339
    Total Energy =                       -247.1025177381033586
  @DF-RHF Final Energy:  -247.11790739652977
    Total Energy =                       -247.1179073965297448
  @DF-RHF Final Energy:  -247.10245262142763
    Total Energy =                       -247.1024526214276307
  @DF-RHF Final Energy:  -247.11789885283341
    Total Energy =                       -247.1178988528333775
  Multiplicity = 1
  @DF-RHF Final Energy:  -323.16881764673053
    Total Energy =                       -323.1688176467305311
	 Singles Energy            =      -0.0000000000000000 [Eh]
	 Same-Spin Energy          =      -0.3160841054966966 [Eh]
	 Opposite-Spin Energy      =      -1.0273156586952477 [Eh]
	 Correlation Energy        =      -1.3433997641919442 [Eh]
	 Total Energy              =    -324.5122174109224602 [Eh]
	 SCS Total Energy          =    -324.5069578056637170 [Eh]
    Molecular point group: c1

    Geometry (in Angstrom), charge = 0, multiplicity = 1:

       Center              X                  Y                   Z               Mass
    ------------   -----------------  -----------------  -----------------  -----------------
         C            0.050606391850    -0.482723894474     1.802608567770    12.000000000000
         H            1.110229391850    -0.407730894474     1.571922567770     1.007825032230
         H           -0.176785608150    -1.489777894474     2.144391567770     1.007825032230
         H           -0.194716608150     0.200132105526     2.612505567770     1.007825032230
         C           -0.840023608150    -0.165216894474     0.622809567770    12.000000000000
         O           -2.062412608150    -0.192809894474     0.712873567770    15.994914619570
         N           -0.178508608150     0.145808105526    -0.522079432230    14.003074004430
         H            0.828720391850     0.146645105526    -0.517899432230     1.007825032230
         C           -0.883212608150     0.472306105526    -1.739812432230    12.000000000000
         H           -1.945460608150     0.399156105526    -1.527912432230     1.007825032230
         H           -0.655393608150     1.485175105526    -2.069353432230     1.007825032230
         H           -0.630714608150    -0.222122894474    -2.539843432230     1.007825032230
         O            3.113883391850     0.165783105526    -0.649988432230    15.994914619570
         H            3.678860391850    -0.547175894474    -0.955188432230     1.007825032230
         H            3.693634391850     0.929977105526    -0.626090432230     1.007825032230

  Charge       = 0
  Multiplicity = 1
  Basis Set: AUG-CC-PVQZ
    Blend: AUG-CC-PVQZ
  Basis Set: (AUG-CC-PVQZ AUX)
    Blend: AUG-CC-PVQZ-JKFIT

    Orbital Energies [Eh]
    ---------------------

    Doubly Occupied:

       1A    -20.593970     2A    -20.494148     3A    -15.566661
       4A    -11.331986     5A    -11.242389     6A    -11.219707
       7A     -1.381754     8A     -1.358289     9A     -1.214406
      10A     -1.004433    11A     -0.918169    12A     -0.774101
      13A     -0.744876    14A     -0.676864    15A     -0.639848
      16A     -0.619617    17A     -0.618991    18A     -0.574462
      19A     -0.565117    20A     -0.543792    21A     -0.537348
      22A     -0.530410    23A     -0.491151    24A     -0.406740
      25A     -0.376476

  @DF-RHF Final Energy:  -323.18956159428416

   => Energetics <=

    Nuclear Repulsion Energy =            240.5606093336949129
    One-Electron Energy =                -918.6489374556766734
    Two-Electron Energy =                 354.8987665276975463
    Total Energy =                       -323.1895615942841573

  Dipole Moment: [D]
     X:     6.5642      Y:     0.4116      Z:    -1.6554     Total:     6.7823

  Basis Set: (AUG-CC-PVQZ AUX)
    Blend: AUG-CC-PVQZ-RI
	 Reference Energy          =    -323.1895615942841573 [Eh]
	 Singles Energy            =      -0.0000000000000000 [Eh]
	 Same-Spin Energy          =      -0.3352376413699931 [Eh]
	 Opposite-Spin Energy      =      -1.1555181180585827 [Eh]
	 Correlation Energy        =      -1.4907557594285759 [Eh]
	 Total Energy              =    -324.6803173537127236 [Eh]

	 ================> DF-SCS-MP2 Energies <==================
	-----------------------------------------------------------
	 SCS Same-Spin Scale       =       0.3333333333333333 [-]
	 SCS Opposite-Spin Scale   =       1.2000000000000000 [-]
	 SCS Same-Spin Energy      =      -0.1117458804566644 [Eh]
	 SCS Opposite-Spin Energy  =      -1.3866217416702993 [Eh]
	 SCS Correlation Energy    =      -1.4983676221269637 [Eh]
	 SCS Total Energy          =    -324.6879292164111348 [Eh]
	-----------------------------------------------------------

*** Psi4 exiting successfully. Buy a developer a beer!
