                               Psi4 1.4a2.dev224

  ==> Input File <==

--------------------------------------------------------------------------
#Generated by lconvert.py for cbs job

memory 40 GB

molecule  {
0 1
  C       -0.7243050    -0.7049360     2.2838680
  H        0.3353180    -0.6299430     2.0531820
  H       -0.9516970    -1.7119900     2.6256510
  H       -0.9696280    -0.0220800     3.0937650
  C       -1.6149350    -0.3874290     1.1040690
  O       -2.8373240    -0.4150220     1.1941330
  N       -0.9534200    -0.0764040    -0.0408200
  H        0.0538090    -0.0755670    -0.0366400
  C       -1.6581240     0.2500940    -1.2585530
  H       -2.7203720     0.1769440    -1.0466530
  H       -1.4303050     1.2629630    -1.5880940
  H       -1.4056260    -0.4443350    -2.0585840
--
0 1
  O        1.5079400    -0.0633890    -0.1206930
  H        2.0729170    -0.7763470    -0.4258930
  H        2.0876910     0.7008050    -0.0967950
units angstrom
no_reorient
symmetry c1
}

set {
scf_type DF
mp2_type DF
e_convergence 7
reference rhf
}

energy('mp2/aug-cc-pv[tq]z', bsse_type='cp')
--------------------------------------------------------------------------

    Molecular point group: c1
  Charge       = 0
  Multiplicity = 1
  Basis Set: AUG-CC-PVTZ
    Blend: AUG-CC-PVTZ
  Basis Set: (AUG-CC-PVTZ AUX)
    Blend: AUG-CC-PVTZ-JKFIT
  @DF-RHF Final Energy:   -76.06041809661785
    Total Energy =                        -76.0604180966178376
  Basis Set: (AUG-CC-PVTZ AUX)
    Blend: AUG-CC-PVTZ-RI
	 Reference Energy          =     -76.0604180966178518 [Eh]
	 Singles Energy            =      -0.0000000000000000 [Eh]
	 Same-Spin Energy          =      -0.0683820176522421 [Eh]
	 Opposite-Spin Energy      =      -0.2152903813133749 [Eh]
	 Correlation Energy        =      -0.2836723989656170 [Eh]
	 Total Energy              =     -76.3440904955834725 [Eh]
	 SCS Total Energy          =     -76.3415605600779799 [Eh]
    Molecular point group: c1
  Basis Set: AUG-CC-PVQZ
    Blend: AUG-CC-PVQZ
  Basis Set: (AUG-CC-PVQZ AUX)
    Blend: AUG-CC-PVQZ-JKFIT
  @DF-RHF Final Energy:   -76.06580019668594
    Total Energy =                        -76.0658001966859274
  Basis Set: (AUG-CC-PVQZ AUX)
  @DF-RHF Final Energy:   -76.06060178236937
    Total Energy =                        -76.0606017823693747
  @DF-RHF Final Energy:   -76.06586803579880
    Total Energy =                        -76.0658680357988004
  @DF-RHF Final Energy:  -247.10257911529814
    Total Energy =                       -247.1025791152981128
  @DF-RHF Final Energy:  -247.11792060747780
    Total Energy =                       -247.1179206074777994
  @DF-RHF Final Energy:  -247.10245262143476
    Total Energy =                       -247.1024526214347361
  @DF-RHF Final Energy:  -247.11789885113785
    Total Energy =                       -247.1178988511378520
  Multiplicity = 1
  @DF-RHF Final Energy:  -323.14751346467432
    Total Energy =                       -323.1475134646743186
	 Singles Energy            =      -0.0000000000000000 [Eh]
	 Same-Spin Energy          =      -0.3200565083718602 [Eh]
	 Opposite-Spin Energy      =      -1.0314628995931108 [Eh]
	 Correlation Energy        =      -1.3515194079649708 [Eh]
	 Total Energy              =    -324.4990328726393045 [Eh]
	 SCS Total Energy          =    -324.4919544469766493 [Eh]
    Molecular point group: c1

    Geometry (in Angstrom), charge = 0, multiplicity = 1:

       Center              X                  Y                   Z               Mass
    ------------   -----------------  -----------------  -----------------  -----------------
         C            0.214968444408    -0.481347352189     1.793107976268    12.000000000000
         H            1.274591444408    -0.406354352189     1.562421976268     1.007825032230
         H           -0.012423555592    -1.488401352189     2.134890976268     1.007825032230
         H           -0.030354555592     0.201508647811     2.603004976268     1.007825032230
         C           -0.675661555592    -0.163840352189     0.613308976268    12.000000000000
         O           -1.898050555592    -0.191433352189     0.703372976268    15.994914619570
         N           -0.014146555592     0.147184647811    -0.531580023732    14.003074004430
         H            0.993082444408     0.148021647811    -0.527400023732     1.007825032230
         C           -0.718850555592     0.473682647811    -1.749313023732    12.000000000000
         H           -1.781098555592     0.400532647811    -1.537413023732     1.007825032230
         H           -0.491031555592     1.486551647811    -2.078854023732     1.007825032230
         H           -0.466352555592    -0.220746352189    -2.549344023732     1.007825032230
         O            2.447213444408     0.160199647811    -0.611453023732    15.994914619570
         H            3.012190444408    -0.552758352189    -0.916653023732     1.007825032230
         H            3.026964444408     0.924393647811    -0.587555023732     1.007825032230

  Charge       = 0
  Multiplicity = 1
  Basis Set: AUG-CC-PVQZ
    Blend: AUG-CC-PVQZ
  Basis Set: (AUG-CC-PVQZ AUX)
    Blend: AUG-CC-PVQZ-JKFIT

    Orbital Energies [Eh]
    ---------------------

    Doubly Occupied:

       1A    -20.616644     2A    -20.481421     3A    -15.535620
       4A    -11.318180     5A    -11.231926     6A    -11.212775
       7A     -1.417811     8A     -1.345465     9A     -1.197874
      10A     -0.995440    11A     -0.908503    12A     -0.790835
      13A     -0.774116    14A     -0.683099    15A     -0.643470
      16A     -0.615786    17A     -0.607987    18A     -0.574639
      19A     -0.566623    20A     -0.551453    21A     -0.526450
      22A     -0.504366    23A     -0.480956    24A     -0.394624
      25A     -0.359249

  @DF-RHF Final Energy:  -323.16815146444861

   => Energetics <=

    Nuclear Repulsion Energy =            252.7437640988234477
    One-Electron Energy =                -943.1532131786320861
    Two-Electron Energy =                 367.2412976153599971
    Total Energy =                       -323.1681514644486128

  Dipole Moment: [D]
     X:     7.4437      Y:     0.4515      Z:    -1.8020     Total:     7.6720

  Basis Set: (AUG-CC-PVQZ AUX)
    Blend: AUG-CC-PVQZ-RI
	 Reference Energy          =    -323.1681514644486128 [Eh]
	 Singles Energy            =      -0.0000000000000000 [Eh]
	 Same-Spin Energy          =      -0.3392662604926168 [Eh]
	 Opposite-Spin Energy      =      -1.1592993720802065 [Eh]
	 Correlation Energy        =      -1.4985656325728234 [Eh]
	 Total Energy              =    -324.6667170970214329 [Eh]

	 ================> DF-SCS-MP2 Energies <==================
	-----------------------------------------------------------
	 SCS Same-Spin Scale       =       0.3333333333333333 [-]
	 SCS Opposite-Spin Scale   =       1.2000000000000000 [-]
	 SCS Same-Spin Energy      =      -0.1130887534975389 [Eh]
	 SCS Opposite-Spin Energy  =      -1.3911592464962477 [Eh]
	 SCS Correlation Energy    =      -1.5042479999937866 [Eh]
	 SCS Total Energy          =    -324.6723994644423783 [Eh]
	-----------------------------------------------------------

*** Psi4 exiting successfully. Buy a developer a beer!
