                               Psi4 1.4a2.dev224

  ==> Input File <==

--------------------------------------------------------------------------
#Generated by lconvert.py for cbs job

memory 20 GB

molecule  {
0 1
  C      -0.724300   -0.704940    2.283870
  H       0.335320   -0.629940    2.053180
  H      -0.951700   -1.711990    2.625650
  H      -0.969630   -0.022080    3.093760
  C      -1.614940   -0.387430    1.104070
  O      -2.837320   -0.415020    1.194130
  N      -0.953420   -0.076400   -0.040820
  H       0.053810   -0.075570   -0.036640
  C      -1.658120    0.250090   -1.258550
  H      -2.720370    0.176940   -1.046650
  H      -1.430300    1.262960   -1.588090
  H      -1.405630   -0.444330   -2.058580
--
0 1
  O       2.754440   -0.052950   -0.192740
  H       3.319410   -0.765910   -0.497950
  H       3.334190    0.711250   -0.168850
units angstrom
no_reorient
symmetry c1
}

set {
scf_type DF
mp2_type DF
e_convergence 7
reference rhf
}

energy('mp2/aug-cc-pv[tq]z', bsse_type='cp')
--------------------------------------------------------------------------

    Molecular point group: c1
  Charge       = 0
  Multiplicity = 1
  Basis Set: AUG-CC-PVTZ
    Blend: AUG-CC-PVTZ
  Basis Set: (AUG-CC-PVTZ AUX)
    Blend: AUG-CC-PVTZ-JKFIT
  @DF-RHF Final Energy:   -76.06041796907587
    Total Energy =                        -76.0604179690758571
  Basis Set: (AUG-CC-PVTZ AUX)
    Blend: AUG-CC-PVTZ-RI
	 Reference Energy          =     -76.0604179690758713 [Eh]
	 Singles Energy            =      -0.0000000000000000 [Eh]
	 Same-Spin Energy          =      -0.0683820478023647 [Eh]
	 Opposite-Spin Energy      =      -0.2152904757454504 [Eh]
	 Correlation Energy        =      -0.2836725235478151 [Eh]
	 Total Energy              =     -76.3440904926236925 [Eh]
	 SCS Total Energy          =     -76.3415605559045360 [Eh]
    Molecular point group: c1
  Basis Set: AUG-CC-PVQZ
    Blend: AUG-CC-PVQZ
  Basis Set: (AUG-CC-PVQZ AUX)
    Blend: AUG-CC-PVQZ-JKFIT
  @DF-RHF Final Energy:   -76.06580005703333
    Total Energy =                        -76.0658000570333286
  Basis Set: (AUG-CC-PVQZ AUX)
  @DF-RHF Final Energy:   -76.06046844161121
    Total Energy =                        -76.0604684416112065
  @DF-RHF Final Energy:   -76.06582499972706
    Total Energy =                        -76.0658249997270559
  @DF-RHF Final Energy:  -247.10249147767132
    Total Energy =                       -247.1024914776713217
  @DF-RHF Final Energy:  -247.11790550093923
    Total Energy =                       -247.1179055009392300
  @DF-RHF Final Energy:  -247.10245326235929
    Total Energy =                       -247.1024532623592904
  @DF-RHF Final Energy:  -247.11789954131433
    Total Energy =                       -247.1178995413143298
  Multiplicity = 1
  @DF-RHF Final Energy:  -323.16776186954229
    Total Energy =                       -323.1677618695422893
	 Singles Energy            =      -0.0000000000000000 [Eh]
	 Same-Spin Energy          =      -0.3154891440881225 [Eh]
	 Opposite-Spin Energy      =      -1.0263086144841345 [Eh]
	 Correlation Energy        =      -1.3417977585722569 [Eh]
	 Total Energy              =    -324.5095596281145731 [Eh]
	 SCS Total Energy          =    -324.5044952549526442 [Eh]
    Molecular point group: c1

    Geometry (in Angstrom), charge = 0, multiplicity = 1:

       Center              X                  Y                   Z               Mass
    ------------   -----------------  -----------------  -----------------  -----------------
         C           -0.031561293176    -0.483415786968     1.807359381345    12.000000000000
         H            1.028058706824    -0.408415786968     1.576669381345     1.007825032230
         H           -0.258961293176    -1.490465786968     2.149139381345     1.007825032230
         H           -0.276891293176     0.199444213032     2.617249381345     1.007825032230
         C           -0.922201293176    -0.165905786968     0.627559381345    12.000000000000
         O           -2.144581293176    -0.193495786968     0.717619381345    15.994914619570
         N           -0.260681293176     0.145124213032    -0.517330618655    14.003074004430
         H            0.746548706824     0.145954213032    -0.513150618655     1.007825032230
         C           -0.965381293176     0.471614213032    -1.735060618655    12.000000000000
         H           -2.027631293176     0.398464213032    -1.523160618655     1.007825032230
         H           -0.737561293176     1.484484213032    -2.064600618655     1.007825032230
         H           -0.712891293176    -0.222805786968    -2.535090618655     1.007825032230
         O            3.447178706824     0.168574213032    -0.669250618655    15.994914619570
         H            4.012148706824    -0.544385786968    -0.974460618655     1.007825032230
         H            4.026928706824     0.932774213032    -0.645360618655     1.007825032230

  Charge       = 0
  Multiplicity = 1
  Basis Set: AUG-CC-PVQZ
    Blend: AUG-CC-PVQZ
  Basis Set: (AUG-CC-PVQZ AUX)
    Blend: AUG-CC-PVQZ-JKFIT

    Orbital Energies [Eh]
    ---------------------

    Doubly Occupied:

       1A    -20.588005     2A    -20.496958     3A    -15.571673
       4A    -11.334995     5A    -11.244772     6A    -11.222006
       7A     -1.375037     8A     -1.361110     9A     -1.218183
      10A     -1.006950    11A     -0.920783    12A     -0.777189
      13A     -0.738557    14A     -0.679048    15A     -0.641690
      16A     -0.622366    17A     -0.611401    18A     -0.576626
      19A     -0.568371    20A     -0.543566    21A     -0.533835
      22A     -0.533520    23A     -0.493579    24A     -0.409418
      25A     -0.380019

  @DF-RHF Final Energy:  -323.18853025076135

   => Energetics <=

    Nuclear Repulsion Energy =            236.0790015465784393
    One-Electron Energy =                -909.6357614670134808
    Two-Electron Energy =                 350.3682296696737239
    Total Energy =                       -323.1885302507613460

  Dipole Moment: [D]
     X:     6.3857      Y:     0.4019      Z:    -1.6197     Total:     6.6002

  Basis Set: (AUG-CC-PVQZ AUX)
    Blend: AUG-CC-PVQZ-RI
	 Reference Energy          =    -323.1885302507613460 [Eh]
	 Singles Energy            =      -0.0000000000000000 [Eh]
	 Same-Spin Energy          =      -0.3346680715764211 [Eh]
	 Opposite-Spin Energy      =      -1.1549485618181305 [Eh]
	 Correlation Energy        =      -1.4896166333945517 [Eh]
	 Total Energy              =    -324.6781468841559217 [Eh]

	 ================> DF-SCS-MP2 Energies <==================
	-----------------------------------------------------------
	 SCS Same-Spin Scale       =       0.3333333333333333 [-]
	 SCS Opposite-Spin Scale   =       1.2000000000000000 [-]
	 SCS Same-Spin Energy      =      -0.1115560238588070 [Eh]
	 SCS Opposite-Spin Energy  =      -1.3859382741817565 [Eh]
	 SCS Correlation Energy    =      -1.4974942980405634 [Eh]
	 SCS Total Energy          =    -324.6860245488019245 [Eh]
	-----------------------------------------------------------

*** Psi4 exiting successfully. Buy a developer a beer!
