                               Psi4 1.4a2.dev224

  ==> Input File <==

--------------------------------------------------------------------------
#Generated by lconvert.py for cbs job

memory 40 GB

molecule  {
0 1
  C       -0.7243050    -0.7049360     2.2838680
  H        0.3353180    -0.6299430     2.0531820
  H       -0.9516970    -1.7119900     2.6256510
  H       -0.9696280    -0.0220800     3.0937650
  C       -1.6149350    -0.3874290     1.1040690
  O       -2.8373240    -0.4150220     1.1941330
  N       -0.9534200    -0.0764040    -0.0408200
  H        0.0538090    -0.0755670    -0.0366400
  C       -1.6581240     0.2500940    -1.2585530
  H       -2.7203720     0.1769440    -1.0466530
  H       -1.4303050     1.2629630    -1.5880940
  H       -1.4056260    -0.4443350    -2.0585840
--
0 1
  O        2.1311390    -0.0581690    -0.1567160
  H        2.6961160    -0.7711280    -0.4619150
  H        2.7108900     0.7060240    -0.1328180
units angstrom
no_reorient
symmetry c1
}

set {
scf_type DF
mp2_type DF
e_convergence 7
reference rhf
}

energy('mp2/aug-cc-pv[tq]z', bsse_type='cp')
--------------------------------------------------------------------------

    Molecular point group: c1
  Charge       = 0
  Multiplicity = 1
  Basis Set: AUG-CC-PVTZ
    Blend: AUG-CC-PVTZ
  Basis Set: (AUG-CC-PVTZ AUX)
    Blend: AUG-CC-PVTZ-JKFIT
  @DF-RHF Final Energy:   -76.06041811077748
    Total Energy =                        -76.0604181107774764
  Basis Set: (AUG-CC-PVTZ AUX)
    Blend: AUG-CC-PVTZ-RI
	 Reference Energy          =     -76.0604181107774764 [Eh]
	 Singles Energy            =      -0.0000000000000000 [Eh]
	 Same-Spin Energy          =      -0.0683820142685754 [Eh]
	 Opposite-Spin Energy      =      -0.2152903710414948 [Eh]
	 Correlation Energy        =      -0.2836723853100702 [Eh]
	 Total Energy              =     -76.3440904960875457 [Eh]
	 SCS Total Energy          =     -76.3415605607834635 [Eh]
    Molecular point group: c1
  Basis Set: AUG-CC-PVQZ
    Blend: AUG-CC-PVQZ
  Basis Set: (AUG-CC-PVQZ AUX)
    Blend: AUG-CC-PVQZ-JKFIT
  @DF-RHF Final Energy:   -76.06580021177464
    Total Energy =                        -76.0658002117746435
  Basis Set: (AUG-CC-PVQZ AUX)
  @DF-RHF Final Energy:   -76.06051496139655
    Total Energy =                        -76.0605149613965636
  @DF-RHF Final Energy:   -76.06584346176237
    Total Energy =                        -76.0658434617623698
  @DF-RHF Final Energy:  -247.10252934243701
    Total Energy =                       -247.1025293424370375
  @DF-RHF Final Energy:  -247.11790935810473
    Total Energy =                       -247.1179093581047255
  @DF-RHF Final Energy:  -247.10245262148797
    Total Energy =                       -247.1024526214879415
  @DF-RHF Final Energy:  -247.11789885128815
    Total Energy =                       -247.1178988512881460
  Multiplicity = 1
  @DF-RHF Final Energy:  -323.16858833988709
    Total Energy =                       -323.1685883398870942
	 Singles Energy            =      -0.0000000000000000 [Eh]
	 Same-Spin Energy          =      -0.3165931671947263 [Eh]
	 Opposite-Spin Energy      =      -1.0280235951405432 [Eh]
	 Correlation Energy        =      -1.3446167623352694 [Eh]
	 Total Energy              =    -324.5132051022223436 [Eh]
	 SCS Total Energy          =    -324.5077477097873384 [Eh]
    Molecular point group: c1

    Geometry (in Angstrom), charge = 0, multiplicity = 1:

       Center              X                  Y                   Z               Mass
    ------------   -----------------  -----------------  -----------------  -----------------
         C            0.091711738539    -0.482379745069     1.800232617704    12.000000000000
         H            1.151334738539    -0.407386745069     1.569546617704     1.007825032230
         H           -0.135680261461    -1.489433745069     2.142015617704     1.007825032230
         H           -0.153611261461     0.200476254931     2.610129617704     1.007825032230
         C           -0.798918261461    -0.164872745069     0.620433617704    12.000000000000
         O           -2.021307261461    -0.192465745069     0.710497617704    15.994914619570
         N           -0.137403261461     0.146152254931    -0.524455382296    14.003074004430
         H            0.869825738539     0.146989254931    -0.520275382296     1.007825032230
         C           -0.842107261461     0.472650254931    -1.742188382296    12.000000000000
         H           -1.904355261461     0.399500254931    -1.530288382296     1.007825032230
         H           -0.614288261461     1.485519254931    -2.071729382296     1.007825032230
         H           -0.589609261461    -0.221778745069    -2.542219382296     1.007825032230
         O            2.947155738539     0.164387254931    -0.640351382296    15.994914619570
         H            3.512132738539    -0.548571745069    -0.945550382296     1.007825032230
         H            3.526906738539     0.928580254931    -0.616453382296     1.007825032230

  Charge       = 0
  Multiplicity = 1
  Basis Set: AUG-CC-PVQZ
    Blend: AUG-CC-PVQZ
  Basis Set: (AUG-CC-PVQZ AUX)
    Blend: AUG-CC-PVQZ-JKFIT

    Orbital Energies [Eh]
    ---------------------

    Doubly Occupied:

       1A    -20.597853     2A    -20.492168     3A    -15.562696
       4A    -11.329857     5A    -11.240739     6A    -11.218304
       7A     -1.386604     8A     -1.356303     9A     -1.211742
      10A     -1.002804    11A     -0.916420    12A     -0.772858
      13A     -0.749272    14A     -0.676007    15A     -0.639896
      16A     -0.622527    17A     -0.617723    18A     -0.573067
      19A     -0.562894    20A     -0.547524    21A     -0.536223
      22A     -0.527803    23A     -0.489498    24A     -0.404867
      25A     -0.373902

  @DF-RHF Final Energy:  -323.18932688064956

   => Energetics <=

    Nuclear Repulsion Energy =            243.1396600028627688
    One-Electron Energy =                -923.8388768973453580
    Two-Electron Energy =                 357.5098900138330009
    Total Energy =                       -323.1893268806495598

  Dipole Moment: [D]
     X:     6.6951      Y:     0.4184      Z:    -1.6803     Total:     6.9155

  Basis Set: (AUG-CC-PVQZ AUX)
    Blend: AUG-CC-PVQZ-RI
	 Reference Energy          =    -323.1893268806495598 [Eh]
	 Singles Energy            =      -0.0000000000000000 [Eh]
	 Same-Spin Energy          =      -0.3357376229580351 [Eh]
	 Opposite-Spin Energy      =      -1.1559901982888565 [Eh]
	 Correlation Energy        =      -1.4917278212468916 [Eh]
	 Total Energy              =    -324.6810547018964712 [Eh]

	 ================> DF-SCS-MP2 Energies <==================
	-----------------------------------------------------------
	 SCS Same-Spin Scale       =       0.3333333333333333 [-]
	 SCS Opposite-Spin Scale   =       1.2000000000000000 [-]
	 SCS Same-Spin Energy      =      -0.1119125409860117 [Eh]
	 SCS Opposite-Spin Energy  =      -1.3871882379466278 [Eh]
	 SCS Correlation Energy    =      -1.4991007789326396 [Eh]
	 SCS Total Energy          =    -324.6884276595822030 [Eh]
	-----------------------------------------------------------

*** Psi4 exiting successfully. Buy a developer a beer!
