                               Psi4 1.4a2.dev224

  ==> Input File <==

--------------------------------------------------------------------------
#Generated by lconvert.py for cbs job

memory 20 GB

molecule  {
0 1
  C      -0.724300   -0.704940    2.283870
  H       0.335320   -0.629940    2.053180
  H      -0.951700   -1.711990    2.625650
  H      -0.969630   -0.022080    3.093760
  C      -1.614940   -0.387430    1.104070
  O      -2.837320   -0.415020    1.194130
  N      -0.953420   -0.076400   -0.040820
  H       0.053810   -0.075570   -0.036640
  C      -1.658120    0.250090   -1.258550
  H      -2.720370    0.176940   -1.046650
  H      -1.430300    1.262960   -1.588090
  H      -1.405630   -0.444330   -2.058580
--
0 1
  O       3.377640   -0.047730   -0.228770
  H       3.942610   -0.760690   -0.533970
  H       3.957390    0.716470   -0.204870
units angstrom
no_reorient
symmetry c1
}

set {
scf_type DF
mp2_type DF
e_convergence 7
reference rhf
}

energy('mp2/aug-cc-pv[tq]z', bsse_type='cp')
--------------------------------------------------------------------------

    Molecular point group: c1
  Charge       = 0
  Multiplicity = 1
  Basis Set: AUG-CC-PVTZ
    Blend: AUG-CC-PVTZ
  Basis Set: (AUG-CC-PVTZ AUX)
    Blend: AUG-CC-PVTZ-JKFIT
  @DF-RHF Final Energy:   -76.06041809420903
    Total Energy =                        -76.0604180942090267
  Basis Set: (AUG-CC-PVTZ AUX)
    Blend: AUG-CC-PVTZ-RI
	 Reference Energy          =     -76.0604180942090267 [Eh]
	 Singles Energy            =      -0.0000000000000000 [Eh]
	 Same-Spin Energy          =      -0.0683820177499402 [Eh]
	 Opposite-Spin Energy      =      -0.2152903854006056 [Eh]
	 Correlation Energy        =      -0.2836724031505458 [Eh]
	 Total Energy              =     -76.3440904973595735 [Eh]
	 SCS Total Energy          =     -76.3415605626064036 [Eh]
    Molecular point group: c1
  Basis Set: AUG-CC-PVQZ
    Blend: AUG-CC-PVQZ
  Basis Set: (AUG-CC-PVQZ AUX)
    Blend: AUG-CC-PVQZ-JKFIT
  @DF-RHF Final Energy:   -76.06580018939300
    Total Energy =                        -76.0658001893930020
  Basis Set: (AUG-CC-PVQZ AUX)
  @DF-RHF Final Energy:   -76.06043741554423
    Total Energy =                        -76.0604374155442287
  @DF-RHF Final Energy:   -76.06581266618605
    Total Energy =                        -76.0658126661860479
  @DF-RHF Final Energy:  -247.10247003269998
    Total Energy =                       -247.1024700327000119
  @DF-RHF Final Energy:  -247.11790265681054
    Total Energy =                       -247.1179026568105428
  @DF-RHF Final Energy:  -247.10245326228912
    Total Energy =                       -247.1024532622891456
  @DF-RHF Final Energy:  -247.11789954153363
    Total Energy =                       -247.1178995415336317
  Multiplicity = 1
  @DF-RHF Final Energy:  -323.16605111511922
    Total Energy =                       -323.1660511151192168
	 Singles Energy            =      -0.0000000000000000 [Eh]
	 Same-Spin Energy          =      -0.3151145400507865 [Eh]
	 Opposite-Spin Energy      =      -1.0256139610756523 [Eh]
	 Correlation Energy        =      -1.3407285011264389 [Eh]
	 Total Energy              =    -324.5067796162456375 [Eh]
	 SCS Total Energy          =    -324.5018260484269490 [Eh]
    Molecular point group: c1

    Geometry (in Angstrom), charge = 0, multiplicity = 1:

       Center              X                  Y                   Z               Mass
    ------------   -----------------  -----------------  -----------------  -----------------
         C           -0.154818196826    -0.484448201982     1.814485196967    12.000000000000
         H            0.904801803174    -0.409448201982     1.583795196967     1.007825032230
         H           -0.382218196826    -1.491498201982     2.156265196967     1.007825032230
         H           -0.400148196826     0.198411798018     2.624375196967     1.007825032230
         C           -1.045458196826    -0.166938201982     0.634685196967    12.000000000000
         O           -2.267838196826    -0.194528201982     0.724745196967    15.994914619570
         N           -0.383938196826     0.144091798018    -0.510204803033    14.003074004430
         H            0.623291803174     0.144921798018    -0.506024803033     1.007825032230
         C           -1.088638196826     0.470581798018    -1.727934803033    12.000000000000
         H           -2.150888196826     0.397431798018    -1.516034803033     1.007825032230
         H           -0.860818196826     1.483451798018    -2.057474803033     1.007825032230
         H           -0.836148196826    -0.223838201982    -2.527964803033     1.007825032230
         O            3.947121803174     0.172761798018    -0.698154803033    15.994914619570
         H            4.512091803174    -0.540198201982    -1.003354803033     1.007825032230
         H            4.526871803174     0.936961798018    -0.674254803033     1.007825032230

  Charge       = 0
  Multiplicity = 1
  Basis Set: AUG-CC-PVQZ
    Blend: AUG-CC-PVQZ
  Basis Set: (AUG-CC-PVQZ AUX)
    Blend: AUG-CC-PVQZ-JKFIT

    Orbital Energies [Eh]
    ---------------------

    Doubly Occupied:

       1A    -20.582037     2A    -20.499604     3A    -15.575812
       4A    -11.337822     5A    -11.247088     6A    -11.224523
       7A     -1.368830     8A     -1.363760     9A     -1.221667
      10A     -1.009552    11A     -0.923378    12A     -0.780775
      13A     -0.732536    14A     -0.681638    15A     -0.644282
      16A     -0.625033    17A     -0.603816    18A     -0.578888
      19A     -0.571318    20A     -0.546144    21A     -0.536368
      22A     -0.527600    23A     -0.495968    24A     -0.411979
      25A     -0.383226

  @DF-RHF Final Energy:  -323.18685060907654

   => Energetics <=

    Nuclear Repulsion Energy =            230.6456490598096138
    One-Electron Energy =                -898.7177131267358163
    Two-Electron Energy =                 344.8852134578497157
    Total Energy =                       -323.1868506090765436

  Dipole Moment: [D]
     X:     6.2309      Y:     0.3933      Z:    -1.5879     Total:     6.4421

  Basis Set: (AUG-CC-PVQZ AUX)
    Blend: AUG-CC-PVQZ-RI
	 Reference Energy          =    -323.1868506090765436 [Eh]
	 Singles Energy            =      -0.0000000000000000 [Eh]
	 Same-Spin Energy          =      -0.3343227580707611 [Eh]
	 Opposite-Spin Energy      =      -1.1546072954978470 [Eh]
	 Correlation Energy        =      -1.4889300535686081 [Eh]
	 Total Energy              =    -324.6757806626451384 [Eh]

	 ================> DF-SCS-MP2 Energies <==================
	-----------------------------------------------------------
	 SCS Same-Spin Scale       =       0.3333333333333333 [-]
	 SCS Opposite-Spin Scale   =       1.2000000000000000 [-]
	 SCS Same-Spin Energy      =      -0.1114409193569204 [Eh]
	 SCS Opposite-Spin Energy  =      -1.3855287545974164 [Eh]
	 SCS Correlation Energy    =      -1.4969696739543368 [Eh]
	 SCS Total Energy          =    -324.6838202830308546 [Eh]
	-----------------------------------------------------------

*** Psi4 exiting successfully. Buy a developer a beer!
