                               Psi4 1.4a2.dev224

  ==> Input File <==

--------------------------------------------------------------------------
#Generated by lconvert.py for cbs job

memory 40 GB

molecule  {
0 1
  C       -0.7243050    -0.7049360     2.2838680
  H        0.3353180    -0.6299430     2.0531820
  H       -0.9516970    -1.7119900     2.6256510
  H       -0.9696280    -0.0220800     3.0937650
  C       -1.6149350    -0.3874290     1.1040690
  O       -2.8373240    -0.4150220     1.1941330
  N       -0.9534200    -0.0764040    -0.0408200
  H        0.0538090    -0.0755670    -0.0366400
  C       -1.6581240     0.2500940    -1.2585530
  H       -2.7203720     0.1769440    -1.0466530
  H       -1.4303050     1.2629630    -1.5880940
  H       -1.4056260    -0.4443350    -2.0585840
--
0 1
  O        1.9234330    -0.0599090    -0.1447100
  H        2.4884100    -0.7728680    -0.4499090
  H        2.5031850     0.7042850    -0.1208120
units angstrom
no_reorient
symmetry c1
}

set {
scf_type DF
mp2_type DF
e_convergence 7
reference rhf
}

energy('mp2/aug-cc-pv[tq]z', bsse_type='cp')
--------------------------------------------------------------------------

    Molecular point group: c1
  Charge       = 0
  Multiplicity = 1
  Basis Set: AUG-CC-PVTZ
    Blend: AUG-CC-PVTZ
  Basis Set: (AUG-CC-PVTZ AUX)
    Blend: AUG-CC-PVTZ-JKFIT
  @DF-RHF Final Energy:   -76.06041805874300
    Total Energy =                        -76.0604180587430108
  Basis Set: (AUG-CC-PVTZ AUX)
    Blend: AUG-CC-PVTZ-RI
	 Reference Energy          =     -76.0604180587429965 [Eh]
	 Singles Energy            =      -0.0000000000000000 [Eh]
	 Same-Spin Energy          =      -0.0683820267036673 [Eh]
	 Opposite-Spin Energy      =      -0.2152904088754699 [Eh]
	 Correlation Energy        =      -0.2836724355791372 [Eh]
	 Total Energy              =     -76.3440904943221312 [Eh]
	 SCS Total Energy          =     -76.3415605582947876 [Eh]
    Molecular point group: c1
  Basis Set: AUG-CC-PVQZ
    Blend: AUG-CC-PVQZ
  Basis Set: (AUG-CC-PVQZ AUX)
    Blend: AUG-CC-PVQZ-JKFIT
  @DF-RHF Final Energy:   -76.06580015619684
    Total Energy =                        -76.0658001561968433
  Basis Set: (AUG-CC-PVQZ AUX)
  @DF-RHF Final Energy:   -76.06053965697716
    Total Energy =                        -76.0605396569771415
  @DF-RHF Final Energy:   -76.06584953710150
    Total Energy =                        -76.0658495371014993
  @DF-RHF Final Energy:  -247.10254256502412
    Total Energy =                       -247.1025425650241232
  @DF-RHF Final Energy:  -247.11791174322451
    Total Energy =                       -247.1179117432245107
  @DF-RHF Final Energy:  -247.10245262179646
    Total Energy =                       -247.1024526217964876
  @DF-RHF Final Energy:  -247.11789885127149
    Total Energy =                       -247.1178988512714909
  Multiplicity = 1
  @DF-RHF Final Energy:  -323.16673464975344
    Total Energy =                       -323.1667346497534368
	 Singles Energy            =      -0.0000000000000000 [Eh]
	 Same-Spin Energy          =      -0.3173411511654229 [Eh]
	 Opposite-Spin Energy      =      -1.0288864486469542 [Eh]
	 Correlation Energy        =      -1.3462275998123772 [Eh]
	 Total Energy              =    -324.5129622495658168 [Eh]
	 SCS Total Energy          =    -324.5071787718516134 [Eh]
    Molecular point group: c1

    Geometry (in Angstrom), charge = 0, multiplicity = 1:

       Center              X                  Y                   Z               Mass
    ------------   -----------------  -----------------  -----------------  -----------------
         C            0.132791956017    -0.482035617798     1.797858063171    12.000000000000
         H            1.192414956017    -0.407042617798     1.567172063171     1.007825032230
         H           -0.094600043983    -1.489089617798     2.139641063171     1.007825032230
         H           -0.112531043983     0.200820382202     2.607755063171     1.007825032230
         C           -0.757838043983    -0.164528617798     0.618059063171    12.000000000000
         O           -1.980227043983    -0.192121617798     0.708123063171    15.994914619570
         N           -0.096323043983     0.146496382202    -0.526829936829    14.003074004430
         H            0.910905956017     0.147333382202    -0.522649936829     1.007825032230
         C           -0.801027043983     0.472994382202    -1.744562936829    12.000000000000
         H           -1.863275043983     0.399844382202    -1.532662936829     1.007825032230
         H           -0.573208043983     1.485863382202    -2.074103936829     1.007825032230
         H           -0.548529043983    -0.221434617798    -2.544593936829     1.007825032230
         O            2.780529956017     0.162991382202    -0.630719936829    15.994914619570
         H            3.345506956017    -0.549967617798    -0.935918936829     1.007825032230
         H            3.360281956017     0.927185382202    -0.606821936829     1.007825032230

  Charge       = 0
  Multiplicity = 1
  Basis Set: AUG-CC-PVQZ
    Blend: AUG-CC-PVQZ
  Basis Set: (AUG-CC-PVQZ AUX)
    Blend: AUG-CC-PVQZ-JKFIT

    Orbital Energies [Eh]
    ---------------------

    Doubly Occupied:

       1A    -20.602603     2A    -20.489583     3A    -15.556987
       4A    -11.327066     5A    -11.238605     6A    -11.216696
       7A     -1.393218     8A     -1.353704     9A     -1.208295
      10A     -1.000832    11A     -0.914257    12A     -0.772961
      13A     -0.755015    14A     -0.676187    15A     -0.641836
      16A     -0.623572    17A     -0.615305    18A     -0.571372
      19A     -0.560601    20A     -0.552958    21A     -0.533755
      22A     -0.523745    23A     -0.487390    24A     -0.402426
      25A     -0.370465

  @DF-RHF Final Energy:  -323.18745431378790

   => Energetics <=

    Nuclear Repulsion Energy =            245.9918928059821326
    One-Electron Energy =                -929.5798320261837944
    Two-Electron Energy =                 360.4004849064137375
    Total Energy =                       -323.1874543137878959

  Dipole Moment: [D]
     X:     6.8704      Y:     0.4270      Z:    -1.7117     Total:     7.0933

  Basis Set: (AUG-CC-PVQZ AUX)
    Blend: AUG-CC-PVQZ-RI
	 Reference Energy          =    -323.1874543137878959 [Eh]
	 Singles Energy            =      -0.0000000000000000 [Eh]
	 Same-Spin Energy          =      -0.3364873153755621 [Eh]
	 Opposite-Spin Energy      =      -1.1566942387507813 [Eh]
	 Correlation Energy        =      -1.4931815541263433 [Eh]
	 Total Energy              =    -324.6806358679142477 [Eh]

	 ================> DF-SCS-MP2 Energies <==================
	-----------------------------------------------------------
	 SCS Same-Spin Scale       =       0.3333333333333333 [-]
	 SCS Opposite-Spin Scale   =       1.2000000000000000 [-]
	 SCS Same-Spin Energy      =      -0.1121624384585207 [Eh]
	 SCS Opposite-Spin Energy  =      -1.3880330865009374 [Eh]
	 SCS Correlation Energy    =      -1.5001955249594581 [Eh]
	 SCS Total Energy          =    -324.6876498387473475 [Eh]
	-----------------------------------------------------------

*** Psi4 exiting successfully. Buy a developer a beer!
