                               Psi4 1.4a2.dev224

  ==> Input File <==

--------------------------------------------------------------------------
#Generated by lconvert.py for cbs job

memory 40 GB

molecule  {
0 1
  C       -0.7243050    -0.7049360     2.2838680
  H        0.3353180    -0.6299430     2.0531820
  H       -0.9516970    -1.7119900     2.6256510
  H       -0.9696280    -0.0220800     3.0937650
  C       -1.6149350    -0.3874290     1.1040690
  O       -2.8373240    -0.4150220     1.1941330
  N       -0.9534200    -0.0764040    -0.0408200
  H        0.0538090    -0.0755670    -0.0366400
  C       -1.6581240     0.2500940    -1.2585530
  H       -2.7203720     0.1769440    -1.0466530
  H       -1.4303050     1.2629630    -1.5880940
  H       -1.4056260    -0.4443350    -2.0585840
--
0 1
  O        2.0273720    -0.0590380    -0.1507180
  H        2.5923490    -0.7719970    -0.4559170
  H        2.6071240     0.7051550    -0.1268200
units angstrom
no_reorient
symmetry c1
}

set {
scf_type DF
mp2_type DF
e_convergence 7
reference rhf
}

energy('mp2/aug-cc-pv[tq]z', bsse_type='cp')
--------------------------------------------------------------------------

    Molecular point group: c1
  Charge       = 0
  Multiplicity = 1
  Basis Set: AUG-CC-PVTZ
    Blend: AUG-CC-PVTZ
  Basis Set: (AUG-CC-PVTZ AUX)
    Blend: AUG-CC-PVTZ-JKFIT
  @DF-RHF Final Energy:   -76.06041808506521
    Total Energy =                        -76.0604180850652085
  Basis Set: (AUG-CC-PVTZ AUX)
    Blend: AUG-CC-PVTZ-RI
	 Reference Energy          =     -76.0604180850652085 [Eh]
	 Singles Energy            =      -0.0000000000000000 [Eh]
	 Same-Spin Energy          =      -0.0683820204429168 [Eh]
	 Opposite-Spin Energy      =      -0.2152903896078812 [Eh]
	 Correlation Energy        =      -0.2836724100507980 [Eh]
	 Total Energy              =     -76.3440904951160064 [Eh]
	 SCS Total Energy          =     -76.3415605594089755 [Eh]
    Molecular point group: c1
  Basis Set: AUG-CC-PVQZ
    Blend: AUG-CC-PVQZ
  Basis Set: (AUG-CC-PVQZ AUX)
    Blend: AUG-CC-PVQZ-JKFIT
  @DF-RHF Final Energy:   -76.06580018458092
    Total Energy =                        -76.0658001845809224
  Basis Set: (AUG-CC-PVQZ AUX)
  @DF-RHF Final Energy:   -76.06052600586631
    Total Energy =                        -76.0605260058663077
  @DF-RHF Final Energy:   -76.06584611629228
    Total Energy =                        -76.0658461162922777
  @DF-RHF Final Energy:  -247.10253539355540
    Total Energy =                       -247.1025353935553994
  @DF-RHF Final Energy:  -247.11791048068625
    Total Energy =                       -247.1179104806862483
  @DF-RHF Final Energy:  -247.10245262197574
    Total Energy =                       -247.1024526219757718
  @DF-RHF Final Energy:  -247.11789885109184
    Total Energy =                       -247.1178988510918089
  Multiplicity = 1
  @DF-RHF Final Energy:  -323.16795892799121
    Total Energy =                       -323.1679589279912079
	 Singles Energy            =      -0.0000000000000000 [Eh]
	 Same-Spin Energy          =      -0.3169305609595726 [Eh]
	 Opposite-Spin Energy      =      -1.0284324110889072 [Eh]
	 Correlation Energy        =      -1.3453629720484797 [Eh]
	 Total Energy              =    -324.5133219000396707 [Eh]
	 SCS Total Energy          =    -324.5077213416177528 [Eh]
    Molecular point group: c1

    Geometry (in Angstrom), charge = 0, multiplicity = 1:

       Center              X                  Y                   Z               Mass
    ------------   -----------------  -----------------  -----------------  -----------------
         C            0.112234832608    -0.482207873680     1.799046329341    12.000000000000
         H            1.171857832608    -0.407214873680     1.568360329341     1.007825032230
         H           -0.115157167392    -1.489261873680     2.140829329341     1.007825032230
         H           -0.133088167392     0.200648126320     2.608943329341     1.007825032230
         C           -0.778395167392    -0.164700873680     0.619247329341    12.000000000000
         O           -2.000784167392    -0.192293873680     0.709311329341    15.994914619570
         N           -0.116880167392     0.146324126320    -0.525641670659    14.003074004430
         H            0.890348832608     0.147161126320    -0.521461670659     1.007825032230
         C           -0.821584167392     0.472822126320    -1.743374670659    12.000000000000
         H           -1.883832167392     0.399672126320    -1.531474670659     1.007825032230
         H           -0.593765167392     1.485691126320    -2.072915670659     1.007825032230
         H           -0.569086167392    -0.221606873680    -2.543405670659     1.007825032230
         O            2.863911832608     0.163690126320    -0.635539670659    15.994914619570
         H            3.428888832608    -0.549268873680    -0.940738670659     1.007825032230
         H            3.443663832608     0.927883126320    -0.611641670659     1.007825032230

  Charge       = 0
  Multiplicity = 1
  Basis Set: AUG-CC-PVQZ
    Blend: AUG-CC-PVQZ
  Basis Set: (AUG-CC-PVQZ AUX)
    Blend: AUG-CC-PVQZ-JKFIT

    Orbital Energies [Eh]
    ---------------------

    Doubly Occupied:

       1A    -20.600098     2A    -20.490967     3A    -15.560115
       4A    -11.328562     5A    -11.239745     6A    -11.217528
       7A     -1.389629     8A     -1.355096     9A     -1.210134
      10A     -1.001868    11A     -0.915398    12A     -0.772631
      13A     -0.751934    14A     -0.675887    15A     -0.640625
      16A     -0.623484    17A     -0.616593    18A     -0.572263
      19A     -0.561677    20A     -0.550125    21A     -0.535113
      22A     -0.526023    23A     -0.488512    24A     -0.403733
      25A     -0.372315

  @DF-RHF Final Energy:  -323.18869155282016

   => Energetics <=

    Nuclear Repulsion Energy =            244.5273870812618497
    One-Electron Energy =                -926.6320518608027896
    Two-Electron Energy =                 358.9159732267207801
    Total Energy =                       -323.1886915528201598

  Dipole Moment: [D]
     X:     6.7761      Y:     0.4224      Z:    -1.6951     Total:     6.9976

  Basis Set: (AUG-CC-PVQZ AUX)
    Blend: AUG-CC-PVQZ-RI
	 Reference Energy          =    -323.1886915528201598 [Eh]
	 Singles Energy            =      -0.0000000000000000 [Eh]
	 Same-Spin Energy          =      -0.3360739969449906 [Eh]
	 Opposite-Spin Energy      =      -1.1563063079925735 [Eh]
	 Correlation Energy        =      -1.4923803049375641 [Eh]
	 Total Energy              =    -324.6810718577577290 [Eh]

	 ================> DF-SCS-MP2 Energies <==================
	-----------------------------------------------------------
	 SCS Same-Spin Scale       =       0.3333333333333333 [-]
	 SCS Opposite-Spin Scale   =       1.2000000000000000 [-]
	 SCS Same-Spin Energy      =      -0.1120246656483302 [Eh]
	 SCS Opposite-Spin Energy  =      -1.3875675695910881 [Eh]
	 SCS Correlation Energy    =      -1.4995922352394182 [Eh]
	 SCS Total Energy          =    -324.6882837880595503 [Eh]
	-----------------------------------------------------------

*** Psi4 exiting successfully. Buy a developer a beer!
