                               Psi4 1.4a2.dev224

  ==> Input File <==

--------------------------------------------------------------------------
#Generated by lconvert.py for cbs job

memory 40 GB

molecule  {
0 1
  N       -0.7299990     0.0227680     0.0009150
  H        0.2984230     0.0740040     0.0016230
  C       -1.2968250    -1.2404270     0.0015020
  O       -0.5940990    -2.2535180     0.0026340
  C       -2.7436220    -1.2623320     0.0004790
  H       -3.2495900    -2.2118350     0.0008330
  C       -3.4220200    -0.0959090    -0.0009230
  H       -4.5008970    -0.0492160    -0.0017450
  N       -2.7748370     1.1054090    -0.0014180
  H       -3.2838380     1.9738770    -0.0024860
  C       -1.3914790     1.2370200    -0.0005250
  O       -0.8398440     2.3170350    -0.0010010
--
0 1
  N        4.2415150    -1.0907940     0.0005000
  H        4.6887590    -0.1842210     0.0008870
  C        5.0975630    -2.2054120    -0.0010000
  O        6.3070150    -2.0537080    -0.0017490
  C        4.3833450    -3.4675860    -0.0015040
  H        4.9499290    -4.3826160    -0.0026430
  C        3.0331760    -3.4714040    -0.0005440
  H        2.4562120    -4.3843680    -0.0008630
  N        2.2951840    -2.3205230     0.0009060
  H        1.2688480    -2.3419650     0.0015830
  C        2.8679550    -1.0758580     0.0014570
  O        2.2176340    -0.0346390     0.0026930
units angstrom
no_reorient
symmetry c1
}

set {
scf_type DF
mp2_type DF
e_convergence 7
reference rhf
}

energy('mp2/aug-cc-pv[tq]z', bsse_type='cp')
--------------------------------------------------------------------------

    Molecular point group: c1
  Charge       = 0
  Multiplicity = 1
  Basis Set: AUG-CC-PVTZ
    Blend: AUG-CC-PVTZ
  Basis Set: (AUG-CC-PVTZ AUX)
    Blend: AUG-CC-PVTZ-JKFIT
  @DF-RHF Final Energy:  -412.62289620280143
    Total Energy =                       -412.6228962028014280
  Basis Set: (AUG-CC-PVTZ AUX)
    Blend: AUG-CC-PVTZ-RI
	 Reference Energy          =    -412.6228962028014280 [Eh]
	 Singles Energy            =      -0.0000000000000000 [Eh]
	 Same-Spin Energy          =      -0.4144436115486950 [Eh]
	 Opposite-Spin Energy      =      -1.2269774056462177 [Eh]
	 Correlation Energy        =      -1.6414210171949128 [Eh]
	 Total Energy              =    -414.2643172199963146 [Eh]
	 SCS Total Energy          =    -414.2334169600931091 [Eh]
    Molecular point group: c1
  Basis Set: AUG-CC-PVQZ
    Blend: AUG-CC-PVQZ
  Basis Set: (AUG-CC-PVQZ AUX)
    Blend: AUG-CC-PVQZ-JKFIT
  @DF-RHF Final Energy:  -412.64837659425194
    Total Energy =                       -412.6483765942519426
  Basis Set: (AUG-CC-PVQZ AUX)
  @DF-RHF Final Energy:  -412.62313035021748
    Total Energy =                       -412.6231303502174796
  @DF-RHF Final Energy:  -412.64842409483992
    Total Energy =                       -412.6484240948399247
  @DF-RHF Final Energy:  -412.62287967635604
    Total Energy =                       -412.6228796763560354
  @DF-RHF Final Energy:  -412.64817047767855
    Total Energy =                       -412.6481704776785477
  @DF-RHF Final Energy:  -412.62262800680230
    Total Energy =                       -412.6226280068023016
  @DF-RHF Final Energy:  -412.64811748112800
    Total Energy =                       -412.6481174811279971
  Multiplicity = 1
  @DF-RHF Final Energy:  -825.26695668416050
    Total Energy =                       -825.2669566841605047
	 Singles Energy            =      -0.0000000000000000 [Eh]
	 Same-Spin Energy          =      -0.8336082776225241 [Eh]
	 Opposite-Spin Energy      =      -2.4606791665771857 [Eh]
	 Correlation Energy        =      -3.2942874441997096 [Eh]
	 Total Energy              =    -828.5612441283601584 [Eh]
	 SCS Total Energy          =    -828.4976411099272582 [Eh]
    Molecular point group: c1

    Geometry (in Angstrom), charge = 0, multiplicity = 1:

       Center              X                  Y                   Z               Mass
    ------------   -----------------  -----------------  -----------------  -----------------
         N           -1.787135125899     0.982075589480     0.000743904730    14.003074004430
         H           -0.758713125899     1.033311589480     0.001451904730     1.007825032230
         C           -2.353961125899    -0.281119410520     0.001330904730    12.000000000000
         O           -1.651235125899    -1.294210410520     0.002462904730    15.994914619570
         C           -3.800758125899    -0.303024410520     0.000307904730    12.000000000000
         H           -4.306726125899    -1.252527410520     0.000661904730     1.007825032230
         C           -4.479156125899     0.863398589480    -0.001094095270    12.000000000000
         H           -5.558033125899     0.910091589480    -0.001916095270     1.007825032230
         N           -3.831973125899     2.064716589480    -0.001589095270    14.003074004430
         H           -4.340974125899     2.933184589480    -0.002657095270     1.007825032230
         C           -2.448615125899     2.196327589480    -0.000696095270    12.000000000000
         O           -1.896980125899     3.276342589480    -0.001172095270    15.994914619570
         N            3.184378874101    -0.131486410520     0.000328904730    14.003074004430
         H            3.631622874101     0.775086589480     0.000715904730     1.007825032230
         C            4.040426874101    -1.246104410520    -0.001171095270    12.000000000000
         O            5.249878874101    -1.094400410520    -0.001920095270    15.994914619570
         C            3.326208874101    -2.508278410520    -0.001675095270    12.000000000000
         H            3.892792874101    -3.423308410520    -0.002814095270     1.007825032230
         C            1.976039874101    -2.512096410520    -0.000715095270    12.000000000000
         H            1.399075874101    -3.425060410520    -0.001034095270     1.007825032230
         N            1.238047874101    -1.361215410520     0.000734904730    14.003074004430
         H            0.211711874101    -1.382657410520     0.001411904730     1.007825032230
         C            1.810818874101    -0.116550410520     0.001285904730    12.000000000000
         O            1.160497874101     0.924668589480     0.002521904730    15.994914619570

  Charge       = 0
  Multiplicity = 1
  Basis Set: AUG-CC-PVQZ
    Blend: AUG-CC-PVQZ
  Basis Set: (AUG-CC-PVQZ AUX)
    Blend: AUG-CC-PVQZ-JKFIT

    Orbital Energies [Eh]
    ---------------------

    Doubly Occupied:

       1A    -20.551123     2A    -20.543309     3A    -20.541942
       4A    -20.531238     5A    -15.645690     6A    -15.622560
       7A    -15.622502     8A    -15.619800     9A    -11.417101
      10A    -11.413142    11A    -11.391628    12A    -11.371845
      13A    -11.346184    14A    -11.327467    15A    -11.257939
      16A    -11.243417    17A     -1.436927    18A     -1.429734
      19A     -1.405648    20A     -1.390015    21A     -1.315884
      22A     -1.302868    23A     -1.247941    24A     -1.236968
      25A     -1.092654    26A     -1.077366    27A     -0.937586
      28A     -0.924178    29A     -0.906067    30A     -0.892244
      31A     -0.809745    32A     -0.796791    33A     -0.770210
      34A     -0.756847    35A     -0.721169    36A     -0.708610
      37A     -0.688186    38A     -0.670917    39A     -0.668908
      40A     -0.661821    41A     -0.654064    42A     -0.646243
      43A     -0.622739    44A     -0.607190    45A     -0.601320
      46A     -0.591779    47A     -0.580847    48A     -0.563272
      49A     -0.527842    50A     -0.515079    51A     -0.492900
      52A     -0.476912    53A     -0.461059    54A     -0.442805
      55A     -0.441595    56A     -0.433932    57A     -0.374180
      58A     -0.358281

  @DF-RHF Final Energy:  -825.31766493373652

   => Energetics <=

    Nuclear Repulsion Energy =           1034.6498202107422912
    One-Electron Energy =               -3182.5585140800303634
    Two-Electron Energy =                1322.5910289355515488
    Total Energy =                       -825.3176649337365234

  Dipole Moment: [D]
     X:    -8.5877      Y:    -2.1334      Z:    -0.0044     Total:     8.8487

  Basis Set: (AUG-CC-PVQZ AUX)
    Blend: AUG-CC-PVQZ-RI
	 Reference Energy          =    -825.3176649337365234 [Eh]
	 Singles Energy            =      -0.0000000000000000 [Eh]
	 Same-Spin Energy          =      -0.8835107788647809 [Eh]
	 Opposite-Spin Energy      =      -2.7807329618520420 [Eh]
	 Correlation Energy        =      -3.6642437407168229 [Eh]
	 Total Energy              =    -828.9819086744533934 [Eh]

	 ================> DF-SCS-MP2 Energies <==================
	-----------------------------------------------------------
	 SCS Same-Spin Scale       =       0.3333333333333333 [-]
	 SCS Opposite-Spin Scale   =       1.2000000000000000 [-]
	 SCS Same-Spin Energy      =      -0.2945035929549270 [Eh]
	 SCS Opposite-Spin Energy  =      -3.3368795542224503 [Eh]
	 SCS Correlation Energy    =      -3.6313831471773774 [Eh]
	 SCS Total Energy          =    -828.9490480809139399 [Eh]
	-----------------------------------------------------------

*** Psi4 exiting successfully. Buy a developer a beer!
