                               Psi4 1.4a2.dev224

  ==> Input File <==

--------------------------------------------------------------------------
#Generated by lconvert.py for cbs job

memory 40 GB

molecule  {
0 1
  N       -0.7299990     0.0227680     0.0009150
  H        0.2984230     0.0740040     0.0016230
  C       -1.2968250    -1.2404270     0.0015020
  O       -0.5940990    -2.2535180     0.0026340
  C       -2.7436220    -1.2623320     0.0004790
  H       -3.2495900    -2.2118350     0.0008330
  C       -3.4220200    -0.0959090    -0.0009230
  H       -4.5008970    -0.0492160    -0.0017450
  N       -2.7748370     1.1054090    -0.0014180
  H       -3.2838380     1.9738770    -0.0024860
  C       -1.3914790     1.2370200    -0.0005250
  O       -0.8398440     2.3170350    -0.0010010
--
0 1
  N        4.3302030    -1.0954160     0.0005000
  H        4.7774470    -0.1888430     0.0008870
  C        5.1862510    -2.2100340    -0.0010000
  O        6.3957030    -2.0583290    -0.0017490
  C        4.4720320    -3.4722070    -0.0015040
  H        5.0386170    -4.3872380    -0.0026430
  C        3.1218630    -3.4760250    -0.0005440
  H        2.5449000    -4.3889900    -0.0008630
  N        2.3838720    -2.3251440     0.0009060
  H        1.3575360    -2.3465870     0.0015840
  C        2.9566430    -1.0804790     0.0014570
  O        2.3063220    -0.0392610     0.0026940
units angstrom
no_reorient
symmetry c1
}

set {
scf_type DF
mp2_type DF
e_convergence 7
reference rhf
}

energy('mp2/aug-cc-pv[tq]z', bsse_type='cp')
--------------------------------------------------------------------------

    Molecular point group: c1
  Charge       = 0
  Multiplicity = 1
  Basis Set: AUG-CC-PVTZ
    Blend: AUG-CC-PVTZ
  Basis Set: (AUG-CC-PVTZ AUX)
    Blend: AUG-CC-PVTZ-JKFIT
  @DF-RHF Final Energy:  -412.62289625911694
    Total Energy =                       -412.6228962591169420
  Basis Set: (AUG-CC-PVTZ AUX)
    Blend: AUG-CC-PVTZ-RI
	 Reference Energy          =    -412.6228962591169420 [Eh]
	 Singles Energy            =      -0.0000000000000000 [Eh]
	 Same-Spin Energy          =      -0.4144436148201004 [Eh]
	 Opposite-Spin Energy      =      -1.2269773839704001 [Eh]
	 Correlation Energy        =      -1.6414209987905006 [Eh]
	 Total Energy              =    -414.2643172579074644 [Eh]
	 SCS Total Energy          =    -414.2334169914881272 [Eh]
    Molecular point group: c1
  Basis Set: AUG-CC-PVQZ
    Blend: AUG-CC-PVQZ
  Basis Set: (AUG-CC-PVQZ AUX)
    Blend: AUG-CC-PVQZ-JKFIT
  @DF-RHF Final Energy:  -412.64837665166317
    Total Energy =                       -412.6483766516631704
  Basis Set: (AUG-CC-PVQZ AUX)
  @DF-RHF Final Energy:  -412.62310878975018
    Total Energy =                       -412.6231087897501766
  @DF-RHF Final Energy:  -412.64842080766300
    Total Energy =                       -412.6484208076630011
  @DF-RHF Final Energy:  -412.62285595461901
    Total Energy =                       -412.6228559546190127
  @DF-RHF Final Energy:  -412.64816660714155
    Total Energy =                       -412.6481666071415475
  @DF-RHF Final Energy:  -412.62262800821338
    Total Energy =                       -412.6226280082133826
  @DF-RHF Final Energy:  -412.64811748216567
    Total Energy =                       -412.6481174821656737
  Multiplicity = 1
  @DF-RHF Final Energy:  -825.26666817604325
    Total Energy =                       -825.2666681760433676
	 Singles Energy            =      -0.0000000000000000 [Eh]
	 Same-Spin Energy          =      -0.8329590288360464 [Eh]
	 Opposite-Spin Energy      =      -2.4600435141437846 [Eh]
	 Correlation Energy        =      -3.2930025429798313 [Eh]
	 Total Energy              =    -828.5596707190230745 [Eh]
	 SCS Total Energy          =    -828.4963734026277962 [Eh]
    Molecular point group: c1

    Geometry (in Angstrom), charge = 0, multiplicity = 1:

       Center              X                  Y                   Z               Mass
    ------------   -----------------  -----------------  -----------------  -----------------
         N           -1.831479018782     0.984386294918     0.000743828843    14.003074004430
         H           -0.803057018782     1.035622294918     0.001451828843     1.007825032230
         C           -2.398305018782    -0.278808705082     0.001330828843    12.000000000000
         O           -1.695579018782    -1.291899705082     0.002462828843    15.994914619570
         C           -3.845102018782    -0.300713705082     0.000307828843    12.000000000000
         H           -4.351070018782    -1.250216705082     0.000661828843     1.007825032230
         C           -4.523500018782     0.865709294918    -0.001094171157    12.000000000000
         H           -5.602377018782     0.912402294918    -0.001916171157     1.007825032230
         N           -3.876317018782     2.067027294918    -0.001589171157    14.003074004430
         H           -4.385318018782     2.935495294918    -0.002657171157     1.007825032230
         C           -2.492959018782     2.198638294918    -0.000696171157    12.000000000000
         O           -1.941324018782     3.278653294918    -0.001172171157    15.994914619570
         N            3.228722981218    -0.133797705082     0.000328828843    14.003074004430
         H            3.675966981218     0.772775294918     0.000715828843     1.007825032230
         C            4.084770981218    -1.248415705082    -0.001171171157    12.000000000000
         O            5.294222981218    -1.096710705082    -0.001920171157    15.994914619570
         C            3.370551981218    -2.510588705082    -0.001675171157    12.000000000000
         H            3.937136981218    -3.425619705082    -0.002814171157     1.007825032230
         C            2.020382981218    -2.514406705082    -0.000715171157    12.000000000000
         H            1.443419981218    -3.427371705082    -0.001034171157     1.007825032230
         N            1.282391981218    -1.363525705082     0.000734828843    14.003074004430
         H            0.256055981218    -1.384968705082     0.001412828843     1.007825032230
         C            1.855162981218    -0.118860705082     0.001285828843    12.000000000000
         O            1.204841981218     0.922357294918     0.002522828843    15.994914619570

  Charge       = 0
  Multiplicity = 1
  Basis Set: AUG-CC-PVQZ
    Blend: AUG-CC-PVQZ
  Basis Set: (AUG-CC-PVQZ AUX)
    Blend: AUG-CC-PVQZ-JKFIT

    Orbital Energies [Eh]
    ---------------------

    Doubly Occupied:

       1A    -20.550193     2A    -20.543813     3A    -20.541210
       4A    -20.531652     5A    -15.645775     6A    -15.625121
       7A    -15.624357     8A    -15.619853     9A    -11.417692
      10A    -11.412874    11A    -11.390856    12A    -11.372210
      13A    -11.345922    14A    -11.328353    15A    -11.257845
      16A    -11.244161    17A     -1.437048    18A     -1.429186
      19A     -1.404341    20A     -1.390120    21A     -1.316004
      22A     -1.303268    23A     -1.248460    24A     -1.237398
      25A     -1.092499    26A     -1.078031    27A     -0.937319
      28A     -0.924931    29A     -0.906166    30A     -0.892431
      31A     -0.809605    32A     -0.796502    33A     -0.770380
      34A     -0.757236    35A     -0.720035    36A     -0.707612
      37A     -0.687809    38A     -0.671207    39A     -0.669099
      40A     -0.662116    41A     -0.654318    42A     -0.646515
      43A     -0.622176    44A     -0.607048    45A     -0.602603
      46A     -0.592486    47A     -0.579941    48A     -0.563496
      49A     -0.528163    50A     -0.515530    51A     -0.491509
      52A     -0.477448    53A     -0.460680    54A     -0.443028
      55A     -0.441578    56A     -0.433600    57A     -0.373942
      58A     -0.359069

  @DF-RHF Final Energy:  -825.31740091036215

   => Energetics <=

    Nuclear Repulsion Energy =           1029.4862004337551298
    One-Electron Energy =               -3172.2195255712213111
    Two-Electron Energy =                1317.4159242271039147
    Total Energy =                       -825.3174009103622666

  Dipole Moment: [D]
     X:    -8.5600      Y:    -2.1524      Z:    -0.0045     Total:     8.8265

  Basis Set: (AUG-CC-PVQZ AUX)
    Blend: AUG-CC-PVQZ-RI
	 Reference Energy          =    -825.3174009103621529 [Eh]
	 Singles Energy            =      -0.0000000000000000 [Eh]
	 Same-Spin Energy          =      -0.8828631183637892 [Eh]
	 Opposite-Spin Energy      =      -2.7803010007324938 [Eh]
	 Correlation Energy        =      -3.6631641190962831 [Eh]
	 Total Energy              =    -828.9805650294584893 [Eh]

	 ================> DF-SCS-MP2 Energies <==================
	-----------------------------------------------------------
	 SCS Same-Spin Scale       =       0.3333333333333333 [-]
	 SCS Opposite-Spin Scale   =       1.2000000000000000 [-]
	 SCS Same-Spin Energy      =      -0.2942877061212630 [Eh]
	 SCS Opposite-Spin Energy  =      -3.3363612008789922 [Eh]
	 SCS Correlation Energy    =      -3.6306489070002552 [Eh]
	 SCS Total Energy          =    -828.9480498173624028 [Eh]
	-----------------------------------------------------------

*** Psi4 exiting successfully. Buy a developer a beer!
