                               Psi4 1.4a2.dev224

  ==> Input File <==

--------------------------------------------------------------------------
#Generated by lconvert.py for cbs job

memory 20 GB

molecule  {
0 1
  N      -0.730000    0.022770    0.000920
  H       0.298420    0.074000    0.001620
  C      -1.296820   -1.240430    0.001500
  O      -0.594100   -2.253520    0.002630
  C      -2.743620   -1.262330    0.000480
  H      -3.249590   -2.211840    0.000830
  C      -3.422020   -0.095910   -0.000920
  H      -4.500900   -0.049220   -0.001750
  N      -2.774840    1.105410   -0.001420
  H      -3.283840    1.973880   -0.002490
  C      -1.391480    1.237020   -0.000520
  O      -0.839840    2.317040   -0.001000
--
0 1
  N       5.217280   -1.137330   -0.000030
  H       5.664530   -0.230750    0.000360
  C       6.073330   -2.251940   -0.001530
  O       7.282780   -2.100240   -0.002270
  C       5.359110   -3.514120   -0.002030
  H       5.925700   -4.429150   -0.003170
  C       4.008940   -3.517940   -0.001070
  H       3.431980   -4.430900   -0.001390
  N       3.270950   -2.367050    0.000380
  H       2.244620   -2.388500    0.001060
  C       3.843720   -1.122390    0.000930
  O       3.193400   -0.081170    0.002170
units angstrom
no_reorient
symmetry c1
}

set {
scf_type DF
mp2_type DF
e_convergence 7
reference rhf
}

energy('mp2/aug-cc-pv[tq]z', bsse_type='cp')
--------------------------------------------------------------------------

    Molecular point group: c1
  Charge       = 0
  Multiplicity = 1
  Basis Set: AUG-CC-PVTZ
    Blend: AUG-CC-PVTZ
  Basis Set: (AUG-CC-PVTZ AUX)
    Blend: AUG-CC-PVTZ-JKFIT
  @DF-RHF Final Energy:  -412.62289662393789
    Total Energy =                       -412.6228966239378906
  Basis Set: (AUG-CC-PVTZ AUX)
    Blend: AUG-CC-PVTZ-RI
	 Reference Energy          =    -412.6228966239378906 [Eh]
	 Singles Energy            =      -0.0000000000000000 [Eh]
	 Same-Spin Energy          =      -0.4144435012505576 [Eh]
	 Opposite-Spin Energy      =      -1.2269772974216280 [Eh]
	 Correlation Energy        =      -1.6414207986721856 [Eh]
	 Total Energy              =    -414.2643174226100768 [Eh]
	 SCS Total Energy          =    -414.2334172145940556 [Eh]
    Molecular point group: c1
  Basis Set: AUG-CC-PVQZ
    Blend: AUG-CC-PVQZ
  Basis Set: (AUG-CC-PVQZ AUX)
    Blend: AUG-CC-PVQZ-JKFIT
  @DF-RHF Final Energy:  -412.64837702723497
    Total Energy =                       -412.6483770272349716
  Basis Set: (AUG-CC-PVQZ AUX)
  @DF-RHF Final Energy:  -412.62298082449394
    Total Energy =                       -412.6229808244939363
  @DF-RHF Final Energy:  -412.64839595461621
    Total Energy =                       -412.6483959546162055
  @DF-RHF Final Energy:  -412.62272188395758
    Total Energy =                       -412.6227218839575812
  @DF-RHF Final Energy:  -412.64813986559176
    Total Energy =                       -412.6481398655917587
  @DF-RHF Final Energy:  -412.62262792829523
    Total Energy =                       -412.6226279282952305
  @DF-RHF Final Energy:  -412.64811738144994
    Total Energy =                       -412.6481173814499357
  Multiplicity = 1
  @DF-RHF Final Energy:  -825.25582994348258
    Total Energy =                       -825.2558299434826949
	 Singles Energy            =      -0.0000000000000000 [Eh]
	 Same-Spin Energy          =      -0.8299219455463454 [Eh]
	 Opposite-Spin Energy      =      -2.4558743396423961 [Eh]
	 Correlation Energy        =      -3.2857962851887415 [Eh]
	 Total Energy              =    -828.5416262286713618 [Eh]
	 SCS Total Energy          =    -828.4795197995689477 [Eh]
    Molecular point group: c1

    Geometry (in Angstrom), charge = 0, multiplicity = 1:

       Center              X                  Y                   Z               Mass
    ------------   -----------------  -----------------  -----------------  -----------------
         N           -2.275019161839     1.005343322143     0.001011570641    14.003074004430
         H           -1.246599161839     1.056573322143     0.001711570641     1.007825032230
         C           -2.841839161839    -0.257856677857     0.001591570641    12.000000000000
         O           -2.139119161839    -1.270946677857     0.002721570641    15.994914619570
         C           -4.288639161839    -0.279756677857     0.000571570641    12.000000000000
         H           -4.794609161839    -1.229266677857     0.000921570641     1.007825032230
         C           -4.967039161839     0.886663322143    -0.000828429359    12.000000000000
         H           -6.045919161839     0.933353322143    -0.001658429359     1.007825032230
         N           -4.319859161839     2.087983322143    -0.001328429359    14.003074004430
         H           -4.828859161839     2.956453322143    -0.002398429359     1.007825032230
         C           -2.936499161839     2.219593322143    -0.000428429359    12.000000000000
         O           -2.384859161839     3.299613322143    -0.000908429359    15.994914619570
         N            3.672260838161    -0.154756677857     0.000061570641    14.003074004430
         H            4.119510838161     0.751823322143     0.000451570641     1.007825032230
         C            4.528310838161    -1.269366677857    -0.001438429359    12.000000000000
         O            5.737760838161    -1.117666677857    -0.002178429359    15.994914619570
         C            3.814090838161    -2.531546677857    -0.001938429359    12.000000000000
         H            4.380680838161    -3.446576677857    -0.003078429359     1.007825032230
         C            2.463920838161    -2.535366677857    -0.000978429359    12.000000000000
         H            1.886960838161    -3.448326677857    -0.001298429359     1.007825032230
         N            1.725930838161    -1.384476677857     0.000471570641    14.003074004430
         H            0.699600838161    -1.405926677857     0.001151570641     1.007825032230
         C            2.298700838161    -0.139816677857     0.001021570641    12.000000000000
         O            1.648380838161     0.901403322143     0.002261570641    15.994914619570

  Charge       = 0
  Multiplicity = 1
  Basis Set: AUG-CC-PVQZ
    Blend: AUG-CC-PVQZ
  Basis Set: (AUG-CC-PVQZ AUX)
    Blend: AUG-CC-PVQZ-JKFIT

    Orbital Energies [Eh]
    ---------------------

    Doubly Occupied:

       1A    -20.546808     2A    -20.543665     3A    -20.536958
       4A    -20.534083     5A    -15.645956     6A    -15.636880
       7A    -15.632028     8A    -15.620348     9A    -11.420747
      10A    -11.411578    11A    -11.385890    12A    -11.374391
      13A    -11.343993    14A    -11.333338    15A    -11.256925
      16A    -11.248505    17A     -1.438773    18A     -1.427133
      19A     -1.397484    20A     -1.390977    21A     -1.316519
      22A     -1.305923    23A     -1.250760    24A     -1.239851
      25A     -1.091351    26A     -1.082019    27A     -0.936764
      28A     -0.929251    29A     -0.906747    30A     -0.894303
      31A     -0.810111    32A     -0.799031    33A     -0.770127
      34A     -0.760258    35A     -0.718604    36A     -0.707736
      37A     -0.682581    38A     -0.672805    39A     -0.670708
      40A     -0.664041    41A     -0.655345    42A     -0.645547
      43A     -0.617655    44A     -0.608335    45A     -0.605709
      46A     -0.595683    47A     -0.575252    48A     -0.565312
      49A     -0.529792    50A     -0.517899    51A     -0.486073
      52A     -0.477874    53A     -0.456274    54A     -0.444038
      55A     -0.441197    56A     -0.431842    57A     -0.372158
      58A     -0.363316

  @DF-RHF Final Energy:  -825.30665522782624

   => Energetics <=

    Nuclear Repulsion Energy =            986.1033957622350954
    One-Electron Energy =               -3085.3695697679013392
    Two-Electron Energy =                1273.9595187778402305
    Total Energy =                       -825.3066552278262407

  Dipole Moment: [D]
     X:    -8.4006      Y:    -2.2903      Z:    -0.0048     Total:     8.7072

  Basis Set: (AUG-CC-PVQZ AUX)
    Blend: AUG-CC-PVQZ-RI
	 Reference Energy          =    -825.3066552278262407 [Eh]
	 Singles Energy            =      -0.0000000000000000 [Eh]
	 Same-Spin Energy          =      -0.8799515359104548 [Eh]
	 Opposite-Spin Energy      =      -2.7782781152059650 [Eh]
	 Correlation Energy        =      -3.6582296511164198 [Eh]
	 Total Energy              =    -828.9648848789427120 [Eh]

	 ================> DF-SCS-MP2 Energies <==================
	-----------------------------------------------------------
	 SCS Same-Spin Scale       =       0.3333333333333333 [-]
	 SCS Opposite-Spin Scale   =       1.2000000000000000 [-]
	 SCS Same-Spin Energy      =      -0.2933171786368183 [Eh]
	 SCS Opposite-Spin Energy  =      -3.3339337382471581 [Eh]
	 SCS Correlation Energy    =      -3.6272509168839764 [Eh]
	 SCS Total Energy          =    -828.9339061447102495 [Eh]
	-----------------------------------------------------------

*** Psi4 exiting successfully. Buy a developer a beer!
