                               Psi4 1.4a2.dev224

  ==> Input File <==

--------------------------------------------------------------------------
#Generated by lconvert.py for cbs job

memory 40 GB

molecule  {
0 1
  N       -0.7299990     0.0227680     0.0009150
  H        0.2984230     0.0740040     0.0016230
  C       -1.2968250    -1.2404270     0.0015020
  O       -0.5940990    -2.2535180     0.0026340
  C       -2.7436220    -1.2623320     0.0004790
  H       -3.2495900    -2.2118350     0.0008330
  C       -3.4220200    -0.0959090    -0.0009230
  H       -4.5008970    -0.0492160    -0.0017450
  N       -2.7748370     1.1054090    -0.0014180
  H       -3.2838380     1.9738770    -0.0024860
  C       -1.3914790     1.2370200    -0.0005250
  O       -0.8398440     2.3170350    -0.0010010
--
0 1
  N        4.0641400    -1.0815510     0.0004990
  H        4.5113840    -0.1749780     0.0008860
  C        4.9201880    -2.1961690    -0.0010010
  O        6.1296400    -2.0444650    -0.0017500
  C        4.2059690    -3.4583420    -0.0015050
  H        4.7725540    -4.3733730    -0.0026440
  C        2.8558000    -3.4621600    -0.0005450
  H        2.2788370    -4.3751250    -0.0008640
  N        2.1178090    -2.3112790     0.0009050
  H        1.0914730    -2.3327220     0.0015820
  C        2.6905800    -1.0666140     0.0014560
  O        2.0402590    -0.0253960     0.0026920
units angstrom
no_reorient
symmetry c1
}

set {
scf_type DF
mp2_type DF
e_convergence 7
reference rhf
}

energy('mp2/aug-cc-pv[tq]z', bsse_type='cp')
--------------------------------------------------------------------------

    Molecular point group: c1
  Charge       = 0
  Multiplicity = 1
  Basis Set: AUG-CC-PVTZ
    Blend: AUG-CC-PVTZ
  Basis Set: (AUG-CC-PVTZ AUX)
    Blend: AUG-CC-PVTZ-JKFIT
  @DF-RHF Final Energy:  -412.62289627458767
    Total Energy =                       -412.6228962745876743
  Basis Set: (AUG-CC-PVTZ AUX)
    Blend: AUG-CC-PVTZ-RI
	 Reference Energy          =    -412.6228962745876743 [Eh]
	 Singles Energy            =      -0.0000000000000000 [Eh]
	 Same-Spin Energy          =      -0.4144436114286092 [Eh]
	 Opposite-Spin Energy      =      -1.2269773774772279 [Eh]
	 Correlation Energy        =      -1.6414209889058371 [Eh]
	 Total Energy              =    -414.2643172634935240 [Eh]
	 SCS Total Energy          =    -414.2334169980365459 [Eh]
    Molecular point group: c1
  Basis Set: AUG-CC-PVQZ
    Blend: AUG-CC-PVQZ
  Basis Set: (AUG-CC-PVQZ AUX)
    Blend: AUG-CC-PVQZ-JKFIT
  @DF-RHF Final Energy:  -412.64837666802561
    Total Energy =                       -412.6483766680256053
  Basis Set: (AUG-CC-PVQZ AUX)
  @DF-RHF Final Energy:  -412.62318595089147
    Total Energy =                       -412.6231859508914681
  @DF-RHF Final Energy:  -412.64843355547646
    Total Energy =                       -412.6484335554764584
  @DF-RHF Final Energy:  -412.62293638319028
    Total Energy =                       -412.6229363831902788
  @DF-RHF Final Energy:  -412.64818100464339
    Total Energy =                       -412.6481810046433907
  @DF-RHF Final Energy:  -412.62262800543908
    Total Energy =                       -412.6226280054390827
  @DF-RHF Final Energy:  -412.64811748462722
    Total Energy =                       -412.6481174846272211
  Multiplicity = 1
  @DF-RHF Final Energy:  -825.26502225252329
    Total Energy =                       -825.2650222525232948
	 Singles Energy            =      -0.0000000000000000 [Eh]
	 Same-Spin Energy          =      -0.8352653564918360 [Eh]
	 Opposite-Spin Energy      =      -2.4620592641132060 [Eh]
	 Correlation Energy        =      -3.2973246206050417 [Eh]
	 Total Energy              =    -828.5623468731283765 [Eh]
	 SCS Total Energy          =    -828.4979151549564449 [Eh]
    Molecular point group: c1

    Geometry (in Angstrom), charge = 0, multiplicity = 1:

       Center              X                  Y                   Z               Mass
    ------------   -----------------  -----------------  -----------------  -----------------
         N           -1.698447518782     0.977453866307     0.000744404730    14.003074004430
         H           -0.670025518782     1.028689866307     0.001452404730     1.007825032230
         C           -2.265273518782    -0.285741133693     0.001331404730    12.000000000000
         O           -1.562547518782    -1.298832133693     0.002463404730    15.994914619570
         C           -3.712070518782    -0.307646133693     0.000308404730    12.000000000000
         H           -4.218038518782    -1.257149133693     0.000662404730     1.007825032230
         C           -4.390468518782     0.858776866307    -0.001093595270    12.000000000000
         H           -5.469345518782     0.905469866307    -0.001915595270     1.007825032230
         N           -3.743285518782     2.060094866307    -0.001588595270    14.003074004430
         H           -4.252286518782     2.928562866307    -0.002656595270     1.007825032230
         C           -2.359927518782     2.191705866307    -0.000695595270    12.000000000000
         O           -1.808292518782     3.271720866307    -0.001171595270    15.994914619570
         N            3.095691481218    -0.126865133693     0.000328404730    14.003074004430
         H            3.542935481218     0.779707866307     0.000715404730     1.007825032230
         C            3.951739481218    -1.241483133693    -0.001171595270    12.000000000000
         O            5.161191481218    -1.089779133693    -0.001920595270    15.994914619570
         C            3.237520481218    -2.503656133693    -0.001675595270    12.000000000000
         H            3.804105481218    -3.418687133693    -0.002814595270     1.007825032230
         C            1.887351481218    -2.507474133693    -0.000715595270    12.000000000000
         H            1.310388481218    -3.420439133693    -0.001034595270     1.007825032230
         N            1.149360481218    -1.356593133693     0.000734404730    14.003074004430
         H            0.123024481218    -1.378036133693     0.001411404730     1.007825032230
         C            1.722131481218    -0.111928133693     0.001285404730    12.000000000000
         O            1.071810481218     0.929289866307     0.002521404730    15.994914619570

  Charge       = 0
  Multiplicity = 1
  Basis Set: AUG-CC-PVQZ
    Blend: AUG-CC-PVQZ
  Basis Set: (AUG-CC-PVQZ AUX)
    Blend: AUG-CC-PVQZ-JKFIT

    Orbital Energies [Eh]
    ---------------------

    Doubly Occupied:

       1A    -20.553203     2A    -20.543671     3A    -20.542119
       4A    -20.530241     5A    -15.645448     6A    -15.619695
       7A    -15.617520     8A    -15.615852     9A    -11.415633
      10A    -11.413804    11A    -11.393427    12A    -11.370967
      13A    -11.346759    14A    -11.325298    15A    -11.258132
      16A    -11.241628    17A     -1.437309    18A     -1.431030
      19A     -1.408963    20A     -1.389790    21A     -1.315599
      22A     -1.302015    23A     -1.246609    24A     -1.235919
      25A     -1.093022    26A     -1.075803    27A     -0.938607
      28A     -0.922369    29A     -0.905971    30A     -0.891931
      31A     -0.810736    32A     -0.798491    33A     -0.769519
      34A     -0.756174    35A     -0.725182    36A     -0.712116
      37A     -0.688014    38A     -0.670292    39A     -0.668389
      40A     -0.661150    41A     -0.653373    42A     -0.645116
      43A     -0.623758    44A     -0.607541    45A     -0.597863
      46A     -0.589798    47A     -0.583195    48A     -0.562877
      49A     -0.527049    50A     -0.513929    51A     -0.496142
      52A     -0.475274    53A     -0.461548    54A     -0.442182
      55A     -0.441685    56A     -0.434657    57A     -0.374687
      58A     -0.356325

  @DF-RHF Final Energy:  -825.31563838850388

   => Energetics <=

    Nuclear Repulsion Energy =           1045.5456215404431077
    One-Electron Energy =               -3204.3716898622492408
    Two-Electron Energy =                1333.5104299333020208
    Total Energy =                       -825.3156383885038849

  Dipole Moment: [D]
     X:    -8.6546      Y:    -2.0906      Z:    -0.0042     Total:     8.9036

  Basis Set: (AUG-CC-PVQZ AUX)
    Blend: AUG-CC-PVQZ-RI
	 Reference Energy          =    -825.3156383885038849 [Eh]
	 Singles Energy            =      -0.0000000000000000 [Eh]
	 Same-Spin Energy          =      -0.8851783208615891 [Eh]
	 Opposite-Spin Energy      =      -2.7818633197512312 [Eh]
	 Correlation Energy        =      -3.6670416406128203 [Eh]
	 Total Energy              =    -828.9826800291167501 [Eh]

	 ================> DF-SCS-MP2 Energies <==================
	-----------------------------------------------------------
	 SCS Same-Spin Scale       =       0.3333333333333333 [-]
	 SCS Opposite-Spin Scale   =       1.2000000000000000 [-]
	 SCS Same-Spin Energy      =      -0.2950594402871963 [Eh]
	 SCS Opposite-Spin Energy  =      -3.3382359837014772 [Eh]
	 SCS Correlation Energy    =      -3.6332954239886734 [Eh]
	 SCS Total Energy          =    -828.9489338124925553 [Eh]
	-----------------------------------------------------------

*** Psi4 exiting successfully. Buy a developer a beer!
