                               Psi4 1.4a2.dev224

  ==> Input File <==

--------------------------------------------------------------------------
#Generated by lconvert.py for cbs job

memory 20 GB

molecule  {
0 1
  N      -0.730000    0.022770    0.000920
  H       0.298420    0.074000    0.001620
  C      -1.296820   -1.240430    0.001500
  O      -0.594100   -2.253520    0.002630
  C      -2.743620   -1.262330    0.000480
  H      -3.249590   -2.211840    0.000830
  C      -3.422020   -0.095910   -0.000920
  H      -4.500900   -0.049220   -0.001750
  N      -2.774840    1.105410   -0.001420
  H      -3.283840    1.973880   -0.002490
  C      -1.391480    1.237020   -0.000520
  O      -0.839840    2.317040   -0.001000
--
0 1
  N       4.685040   -1.112180    0.000290
  H       5.132280   -0.205610    0.000680
  C       5.541080   -2.226800   -0.001210
  O       6.750540   -2.075090   -0.001960
  C       4.826860   -3.488970   -0.001710
  H       5.393450   -4.404000   -0.002850
  C       3.476690   -3.492790   -0.000750
  H       2.899730   -4.405750   -0.001070
  N       2.738700   -2.341910    0.000700
  H       1.712370   -2.363350    0.001370
  C       3.311480   -1.097240    0.001250
  O       2.661150   -0.056020    0.002480
units angstrom
no_reorient
symmetry c1
}

set {
scf_type DF
mp2_type DF
e_convergence 7
reference rhf
}

energy('mp2/aug-cc-pv[tq]z', bsse_type='cp')
--------------------------------------------------------------------------

    Molecular point group: c1
  Charge       = 0
  Multiplicity = 1
  Basis Set: AUG-CC-PVTZ
    Blend: AUG-CC-PVTZ
  Basis Set: (AUG-CC-PVTZ AUX)
    Blend: AUG-CC-PVTZ-JKFIT
  @DF-RHF Final Energy:  -412.62289523731408
    Total Energy =                       -412.6228952373140828
  Basis Set: (AUG-CC-PVTZ AUX)
    Blend: AUG-CC-PVTZ-RI
	 Reference Energy          =    -412.6228952373140828 [Eh]
	 Singles Energy            =      -0.0000000000000000 [Eh]
	 Same-Spin Energy          =      -0.4144439393251151 [Eh]
	 Opposite-Spin Energy      =      -1.2269781407328249 [Eh]
	 Correlation Energy        =      -1.6414220800579400 [Eh]
	 Total Energy              =    -414.2643173173720470 [Eh]
	 SCS Total Energy          =    -414.2334169859685176 [Eh]
    Molecular point group: c1
  Basis Set: AUG-CC-PVQZ
    Blend: AUG-CC-PVQZ
  Basis Set: (AUG-CC-PVQZ AUX)
    Blend: AUG-CC-PVQZ-JKFIT
  @DF-RHF Final Energy:  -412.64837555787489
    Total Energy =                       -412.6483755578748855
  Basis Set: (AUG-CC-PVQZ AUX)
  @DF-RHF Final Energy:  -412.62305279506802
    Total Energy =                       -412.6230527950680198
  @DF-RHF Final Energy:  -412.64840868708950
    Total Energy =                       -412.6484086870894998
  @DF-RHF Final Energy:  -412.62279659238601
    Total Energy =                       -412.6227965923860097
  @DF-RHF Final Energy:  -412.64815481449824
    Total Energy =                       -412.6481548144982412
  @DF-RHF Final Energy:  -412.62262792923923
    Total Energy =                       -412.6226279292392292
  @DF-RHF Final Energy:  -412.64811738103157
    Total Energy =                       -412.6481173810315681
  Multiplicity = 1
  @DF-RHF Final Energy:  -825.26249723518185
    Total Energy =                       -825.2624972351818542
	 Singles Energy            =      -0.0000000000000000 [Eh]
	 Same-Spin Energy          =      -0.8311852020532310 [Eh]
	 Opposite-Spin Energy      =      -2.4578581276777385 [Eh]
	 Correlation Energy        =      -3.2890433297309696 [Eh]
	 Total Energy              =    -828.5515405649127842 [Eh]
	 SCS Total Energy          =    -828.4889887224128415 [Eh]
    Molecular point group: c1

    Geometry (in Angstrom), charge = 0, multiplicity = 1:

       Center              X                  Y                   Z               Mass
    ------------   -----------------  -----------------  -----------------  -----------------
         N           -2.008896036293     0.992769527693     0.000853043392    14.003074004430
         H           -0.980476036293     1.043999527693     0.001553043392     1.007825032230
         C           -2.575716036293    -0.270430472307     0.001433043392    12.000000000000
         O           -1.872996036293    -1.283520472307     0.002563043392    15.994914619570
         C           -4.022516036293    -0.292330472307     0.000413043392    12.000000000000
         H           -4.528486036293    -1.241840472307     0.000763043392     1.007825032230
         C           -4.700916036293     0.874089527693    -0.000986956608    12.000000000000
         H           -5.779796036293     0.920779527693    -0.001816956608     1.007825032230
         N           -4.053736036293     2.075409527693    -0.001486956608    14.003074004430
         H           -4.562736036293     2.943879527693    -0.002556956608     1.007825032230
         C           -2.670376036293     2.207019527693    -0.000586956608    12.000000000000
         O           -2.118736036293     3.287039527693    -0.001066956608    15.994914619570
         N            3.406143963707    -0.142180472307     0.000223043392    14.003074004430
         H            3.853383963707     0.764389527693     0.000613043392     1.007825032230
         C            4.262183963707    -1.256800472307    -0.001276956608    12.000000000000
         O            5.471643963707    -1.105090472307    -0.002026956608    15.994914619570
         C            3.547963963707    -2.518970472307    -0.001776956608    12.000000000000
         H            4.114553963707    -3.434000472307    -0.002916956608     1.007825032230
         C            2.197793963707    -2.522790472307    -0.000816956608    12.000000000000
         H            1.620833963707    -3.435750472307    -0.001136956608     1.007825032230
         N            1.459803963707    -1.371910472307     0.000633043392    14.003074004430
         H            0.433473963707    -1.393350472307     0.001303043392     1.007825032230
         C            2.032583963707    -0.127240472307     0.001183043392    12.000000000000
         O            1.382253963707     0.913979527693     0.002413043392    15.994914619570

  Charge       = 0
  Multiplicity = 1
  Basis Set: AUG-CC-PVQZ
    Blend: AUG-CC-PVQZ
  Basis Set: (AUG-CC-PVQZ AUX)
    Blend: AUG-CC-PVQZ-JKFIT

    Orbital Energies [Eh]
    ---------------------

    Doubly Occupied:

       1A    -20.547050     2A    -20.545371     3A    -20.538942
       4A    -20.532904     5A    -15.645955     6A    -15.631957
       7A    -15.629079     8A    -15.620059     9A    -11.419389
      10A    -11.412116    11A    -11.388391    12A    -11.373324
      13A    -11.345024    14A    -11.330985    15A    -11.257471
      16A    -11.246420    17A     -1.437845    18A     -1.427828
      19A     -1.400636    20A     -1.390494    21A     -1.316336
      22A     -1.304599    23A     -1.249861    24A     -1.238685
      25A     -1.091979    26A     -1.080090    27A     -0.936906
      28A     -0.927202    29A     -0.906541    30A     -0.893239
      31A     -0.809721    32A     -0.797103    33A     -0.770479
      34A     -0.758694    35A     -0.718429    36A     -0.706681
      37A     -0.685293    38A     -0.672105    39A     -0.669781
      40A     -0.663069    41A     -0.654960    42A     -0.646432
      43A     -0.620023    44A     -0.606757    45A     -0.605664
      46A     -0.594312    47A     -0.577407    48A     -0.564343
      49A     -0.529081    50A     -0.516806    51A     -0.487747
      52A     -0.478343    53A     -0.458857    54A     -0.443593
      55A     -0.441493    56A     -0.432591    57A     -0.373108
      58A     -0.361353

  @DF-RHF Final Energy:  -825.31324688176642

   => Energetics <=

    Nuclear Repulsion Energy =           1010.4994066570114910
    One-Electron Energy =               -3134.2034657830463402
    Two-Electron Energy =                1298.3908122442683180
    Total Energy =                       -825.3132468817664176

  Dipole Moment: [D]
     X:    -8.4769      Y:    -2.2167      Z:    -0.0046     Total:     8.7619

  Basis Set: (AUG-CC-PVQZ AUX)
    Blend: AUG-CC-PVQZ-RI
	 Reference Energy          =    -825.3132468817664176 [Eh]
	 Singles Energy            =      -0.0000000000000000 [Eh]
	 Same-Spin Energy          =      -0.8811312145838108 [Eh]
	 Opposite-Spin Energy      =      -2.7791346173094009 [Eh]
	 Correlation Energy        =      -3.6602658318932120 [Eh]
	 Total Energy              =    -828.9735127136596020 [Eh]

	 ================> DF-SCS-MP2 Energies <==================
	-----------------------------------------------------------
	 SCS Same-Spin Scale       =       0.3333333333333333 [-]
	 SCS Opposite-Spin Scale   =       1.2000000000000000 [-]
	 SCS Same-Spin Energy      =      -0.2937104048612703 [Eh]
	 SCS Opposite-Spin Energy  =      -3.3349615407712809 [Eh]
	 SCS Correlation Energy    =      -3.6286719456325511 [Eh]
	 SCS Total Energy          =    -828.9419188273989221 [Eh]
	-----------------------------------------------------------

*** Psi4 exiting successfully. Buy a developer a beer!
