                               Psi4 1.4a2.dev224

  ==> Input File <==

--------------------------------------------------------------------------
#Generated by lconvert.py for cbs job

memory 20 GB

molecule  {
0 1
  N      -0.730000    0.022770    0.000920
  H       0.298420    0.074000    0.001620
  C      -1.296820   -1.240430    0.001500
  O      -0.594100   -2.253520    0.002630
  C      -2.743620   -1.262330    0.000480
  H      -3.249590   -2.211840    0.000830
  C      -3.422020   -0.095910   -0.000920
  H      -4.500900   -0.049220   -0.001750
  N      -2.774840    1.105410   -0.001420
  H      -3.283840    1.973880   -0.002490
  C      -1.391480    1.237020   -0.000520
  O      -0.839840    2.317040   -0.001000
--
0 1
  N       5.749530   -1.162470   -0.000340
  H       6.196770   -0.255900    0.000050
  C       6.605580   -2.277090   -0.001840
  O       7.815030   -2.125390   -0.002590
  C       5.891360   -3.539260   -0.002340
  H       6.457940   -4.454290   -0.003480
  C       4.541190   -3.543080   -0.001380
  H       3.964230   -4.456050   -0.001700
  N       3.803200   -2.392200    0.000070
  H       2.776860   -2.413640    0.000740
  C       4.375970   -1.147530    0.000620
  O       3.725650   -0.106320    0.001850
units angstrom
no_reorient
symmetry c1
}

set {
scf_type DF
mp2_type DF
e_convergence 7
reference rhf
}

energy('mp2/aug-cc-pv[tq]z', bsse_type='cp')
--------------------------------------------------------------------------

    Molecular point group: c1
  Charge       = 0
  Multiplicity = 1
  Basis Set: AUG-CC-PVTZ
    Blend: AUG-CC-PVTZ
  Basis Set: (AUG-CC-PVTZ AUX)
    Blend: AUG-CC-PVTZ-JKFIT
  @DF-RHF Final Energy:  -412.62289706437872
    Total Energy =                       -412.6228970643787193
  Basis Set: (AUG-CC-PVTZ AUX)
    Blend: AUG-CC-PVTZ-RI
	 Reference Energy          =    -412.6228970643787193 [Eh]
	 Singles Energy            =      -0.0000000000000000 [Eh]
	 Same-Spin Energy          =      -0.4144434516627310 [Eh]
	 Opposite-Spin Energy      =      -1.2269769849685725 [Eh]
	 Correlation Energy        =      -1.6414204366313037 [Eh]
	 Total Energy              =    -414.2643175010099981 [Eh]
	 SCS Total Energy          =    -414.2334172635619325 [Eh]
    Molecular point group: c1
  Basis Set: AUG-CC-PVQZ
    Blend: AUG-CC-PVQZ
  Basis Set: (AUG-CC-PVQZ AUX)
    Blend: AUG-CC-PVQZ-JKFIT
  @DF-RHF Final Energy:  -412.64837750397351
    Total Energy =                       -412.6483775039735065
  Basis Set: (AUG-CC-PVQZ AUX)
  @DF-RHF Final Energy:  -412.62294189378997
    Total Energy =                       -412.6229418937899709
  @DF-RHF Final Energy:  -412.64838850840215
    Total Energy =                       -412.6483885084021495
  @DF-RHF Final Energy:  -412.62267551713506
    Total Energy =                       -412.6226755171350646
  @DF-RHF Final Energy:  -412.64813125994601
    Total Energy =                       -412.6481312599460125
  @DF-RHF Final Energy:  -412.62262793140081
    Total Energy =                       -412.6226279314008138
  @DF-RHF Final Energy:  -412.64811737888317
    Total Energy =                       -412.6481173788831711
  Multiplicity = 1
  @DF-RHF Final Energy:  -825.25171899971508
    Total Energy =                       -825.2517189997151945
	 Singles Energy            =      -0.0000000000000000 [Eh]
	 Same-Spin Energy          =      -0.8294042441883205 [Eh]
	 Opposite-Spin Energy      =      -2.4549898096662188 [Eh]
	 Correlation Energy        =      -3.2843940538545393 [Eh]
	 Total Energy              =    -828.5361130535695793 [Eh]
	 SCS Total Energy          =    -828.4741748527106893 [Eh]
    Molecular point group: c1

    Geometry (in Angstrom), charge = 0, multiplicity = 1:

       Center              X                  Y                   Z               Mass
    ------------   -----------------  -----------------  -----------------  -----------------
         N           -2.541144026896     1.017916000444     0.001168043392    14.003074004430
         H           -1.512724026896     1.069146000444     0.001868043392     1.007825032230
         C           -3.107964026896    -0.245283999556     0.001748043392    12.000000000000
         O           -2.405244026896    -1.258373999556     0.002878043392    15.994914619570
         C           -4.554764026896    -0.267183999556     0.000728043392    12.000000000000
         H           -5.060734026896    -1.216693999556     0.001078043392     1.007825032230
         C           -5.233164026896     0.899236000444    -0.000671956608    12.000000000000
         H           -6.312044026896     0.945926000444    -0.001501956608     1.007825032230
         N           -4.585984026896     2.100556000444    -0.001171956608    14.003074004430
         H           -5.094984026896     2.969026000444    -0.002241956608     1.007825032230
         C           -3.202624026896     2.232166000444    -0.000271956608    12.000000000000
         O           -2.650984026896     3.312186000444    -0.000751956608    15.994914619570
         N            3.938385973104    -0.167323999556    -0.000091956608    14.003074004430
         H            4.385625973104     0.739246000444     0.000298043392     1.007825032230
         C            4.794435973104    -1.281943999556    -0.001591956608    12.000000000000
         O            6.003885973104    -1.130243999556    -0.002341956608    15.994914619570
         C            4.080215973104    -2.544113999556    -0.002091956608    12.000000000000
         H            4.646795973104    -3.459143999556    -0.003231956608     1.007825032230
         C            2.730045973104    -2.547933999556    -0.001131956608    12.000000000000
         H            2.153085973104    -3.460903999556    -0.001451956608     1.007825032230
         N            1.992055973104    -1.397053999556     0.000318043392    14.003074004430
         H            0.965715973104    -1.418493999556     0.000988043392     1.007825032230
         C            2.564825973104    -0.152383999556     0.000868043392    12.000000000000
         O            1.914505973104     0.888826000444     0.002098043392    15.994914619570

  Charge       = 0
  Multiplicity = 1
  Basis Set: AUG-CC-PVQZ
    Blend: AUG-CC-PVQZ
  Basis Set: (AUG-CC-PVQZ AUX)
    Blend: AUG-CC-PVQZ-JKFIT

    Orbital Energies [Eh]
    ---------------------

    Doubly Occupied:

       1A    -20.547662     2A    -20.541454     3A    -20.536056
       4A    -20.534871     5A    -15.645857     6A    -15.639302
       7A    -15.633127     8A    -15.620662     9A    -11.421448
      10A    -11.411472    11A    -11.384247    12A    -11.375129
      13A    -11.343244    14A    -11.334794    15A    -11.256464
      16A    -11.249820    17A     -1.439323    18A     -1.427052
      19A     -1.395638    20A     -1.391411    21A     -1.316534
      22A     -1.306808    23A     -1.251030    24A     -1.240616
      25A     -1.090858    26A     -1.083244    27A     -0.936629
      28A     -0.930527    29A     -0.906701    30A     -0.895117
      31A     -0.810269    32A     -0.800493    33A     -0.769764
      34A     -0.761299    35A     -0.718908    36A     -0.708805
      37A     -0.681230    38A     -0.673099    39A     -0.671463
      40A     -0.664738    41A     -0.655465    42A     -0.645124
      43A     -0.616167    44A     -0.609465    45A     -0.605234
      46A     -0.596520    47A     -0.573969    48A     -0.566020
      49A     -0.530129    50A     -0.518633    51A     -0.486002
      52A     -0.477359    53A     -0.454417    54A     -0.444389
      55A     -0.440844    56A     -0.431626    57A     -0.371477
      58A     -0.364499

  @DF-RHF Final Energy:  -825.30260579892035

   => Energetics <=

    Nuclear Repulsion Energy =            965.5123977277172571
    One-Electron Energy =               -3044.1609626579875112
    Two-Electron Energy =                1253.3459591313501278
    Total Energy =                       -825.3026057989202400

  Dipole Moment: [D]
     X:    -8.3535      Y:    -2.3463      Z:    -0.0047     Total:     8.6767

  Basis Set: (AUG-CC-PVQZ AUX)
    Blend: AUG-CC-PVQZ-RI
	 Reference Energy          =    -825.3026057989203537 [Eh]
	 Singles Energy            =      -0.0000000000000000 [Eh]
	 Same-Spin Energy          =      -0.8794837782254696 [Eh]
	 Opposite-Spin Energy      =      -2.7779946990064390 [Eh]
	 Correlation Energy        =      -3.6574784772319084 [Eh]
	 Total Energy              =    -828.9600842761523154 [Eh]

	 ================> DF-SCS-MP2 Energies <==================
	-----------------------------------------------------------
	 SCS Same-Spin Scale       =       0.3333333333333333 [-]
	 SCS Opposite-Spin Scale   =       1.2000000000000000 [-]
	 SCS Same-Spin Energy      =      -0.2931612594084899 [Eh]
	 SCS Opposite-Spin Energy  =      -3.3335936388077267 [Eh]
	 SCS Correlation Energy    =      -3.6267548982162165 [Eh]
	 SCS Total Energy          =    -828.9293606971365307 [Eh]
	-----------------------------------------------------------

*** Psi4 exiting successfully. Buy a developer a beer!
