                               Psi4 1.4a2.dev224

  ==> Input File <==

--------------------------------------------------------------------------
#Generated by lconvert.py for cbs job

memory 40 GB

molecule  {
0 1
  N       -0.7299990     0.0227680     0.0009150
  H        0.2984230     0.0740040     0.0016230
  C       -1.2968250    -1.2404270     0.0015020
  O       -0.5940990    -2.2535180     0.0026340
  C       -2.7436220    -1.2623320     0.0004790
  H       -3.2495900    -2.2118350     0.0008330
  C       -3.4220200    -0.0959090    -0.0009230
  H       -4.5008970    -0.0492160    -0.0017450
  N       -2.7748370     1.1054090    -0.0014180
  H       -3.2838380     1.9738770    -0.0024860
  C       -1.3914790     1.2370200    -0.0005250
  O       -0.8398440     2.3170350    -0.0010010
--
0 1
  N        4.1527280    -1.0861680     0.0004990
  H        4.5999720    -0.1795940     0.0008860
  C        5.0087760    -2.2007850    -0.0010010
  O        6.2182280    -2.0490810    -0.0017500
  C        4.2945570    -3.4629590    -0.0015050
  H        4.8611420    -4.3779900    -0.0026440
  C        2.9443880    -3.4667770    -0.0005450
  H        2.3674250    -4.3797410    -0.0008640
  N        2.2063970    -2.3158960     0.0009060
  H        1.1800610    -2.3373390     0.0015830
  C        2.7791680    -1.0712310     0.0014560
  O        2.1288470    -0.0300130     0.0026930
units angstrom
no_reorient
symmetry c1
}

set {
scf_type DF
mp2_type DF
e_convergence 7
reference rhf
}

energy('mp2/aug-cc-pv[tq]z', bsse_type='cp')
--------------------------------------------------------------------------

    Molecular point group: c1
  Charge       = 0
  Multiplicity = 1
  Basis Set: AUG-CC-PVTZ
    Blend: AUG-CC-PVTZ
  Basis Set: (AUG-CC-PVTZ AUX)
    Blend: AUG-CC-PVTZ-JKFIT
  @DF-RHF Final Energy:  -412.62289628163978
    Total Energy =                       -412.6228962816397825
  Basis Set: (AUG-CC-PVTZ AUX)
    Blend: AUG-CC-PVTZ-RI
	 Reference Energy          =    -412.6228962816397825 [Eh]
	 Singles Energy            =      -0.0000000000000000 [Eh]
	 Same-Spin Energy          =      -0.4144436080220838 [Eh]
	 Opposite-Spin Energy      =      -1.2269773747590542 [Eh]
	 Correlation Energy        =      -1.6414209827811379 [Eh]
	 Total Energy              =    -414.2643172644209244 [Eh]
	 SCS Total Energy          =    -414.2334170006913610 [Eh]
    Molecular point group: c1
  Basis Set: AUG-CC-PVQZ
    Blend: AUG-CC-PVQZ
  Basis Set: (AUG-CC-PVQZ AUX)
    Blend: AUG-CC-PVQZ-JKFIT
  @DF-RHF Final Energy:  -412.64837667651307
    Total Energy =                       -412.6483766765130667
  Basis Set: (AUG-CC-PVQZ AUX)
  @DF-RHF Final Energy:  -412.62315696266569
    Total Energy =                       -412.6231569626656892
  @DF-RHF Final Energy:  -412.64842838936573
    Total Energy =                       -412.6484283893657334
  @DF-RHF Final Energy:  -412.62290737260389
    Total Energy =                       -412.6229073726038905
  @DF-RHF Final Energy:  -412.64817535145266
    Total Energy =                       -412.6481753514526645
  @DF-RHF Final Energy:  -412.62262800920576
    Total Energy =                       -412.6226280092057550
  @DF-RHF Final Energy:  -412.64811748486261
    Total Energy =                       -412.6481174848626097
  Multiplicity = 1
  @DF-RHF Final Energy:  -825.26653110307666
    Total Energy =                       -825.2665311030766588
	 Singles Energy            =      -0.0000000000000000 [Eh]
	 Same-Spin Energy          =      -0.8343717788792313 [Eh]
	 Opposite-Spin Energy      =      -2.4613438020573337 [Eh]
	 Correlation Energy        =      -3.2957155809365650 [Eh]
	 Total Energy              =    -828.5622466840131892 [Eh]
	 SCS Total Energy          =    -828.4982675918384984 [Eh]
    Molecular point group: c1

    Geometry (in Angstrom), charge = 0, multiplicity = 1:

       Center              X                  Y                   Z               Mass
    ------------   -----------------  -----------------  -----------------  -----------------
         N           -1.742741518782     0.979762232363     0.000744266344    14.003074004430
         H           -0.714319518782     1.030998232363     0.001452266344     1.007825032230
         C           -2.309567518782    -0.283432767637     0.001331266344    12.000000000000
         O           -1.606841518782    -1.296523767637     0.002463266344    15.994914619570
         C           -3.756364518782    -0.305337767637     0.000308266344    12.000000000000
         H           -4.262332518782    -1.254840767637     0.000662266344     1.007825032230
         C           -4.434762518782     0.861085232363    -0.001093733656    12.000000000000
         H           -5.513639518782     0.907778232363    -0.001915733656     1.007825032230
         N           -3.787579518782     2.062403232363    -0.001588733656    14.003074004430
         H           -4.296580518782     2.930871232363    -0.002656733656     1.007825032230
         C           -2.404221518782     2.194014232363    -0.000695733656    12.000000000000
         O           -1.852586518782     3.274029232363    -0.001171733656    15.994914619570
         N            3.139985481218    -0.129173767637     0.000328266344    14.003074004430
         H            3.587229481218     0.777400232363     0.000715266344     1.007825032230
         C            3.996033481218    -1.243790767637    -0.001171733656    12.000000000000
         O            5.205485481218    -1.092086767637    -0.001920733656    15.994914619570
         C            3.281814481218    -2.505964767637    -0.001675733656    12.000000000000
         H            3.848399481218    -3.420995767637    -0.002814733656     1.007825032230
         C            1.931645481218    -2.509782767637    -0.000715733656    12.000000000000
         H            1.354682481218    -3.422746767637    -0.001034733656     1.007825032230
         N            1.193654481218    -1.358901767637     0.000735266344    14.003074004430
         H            0.167318481218    -1.380344767637     0.001412266344     1.007825032230
         C            1.766425481218    -0.114236767637     0.001285266344    12.000000000000
         O            1.116104481218     0.926981232363     0.002522266344    15.994914619570

  Charge       = 0
  Multiplicity = 1
  Basis Set: AUG-CC-PVQZ
    Blend: AUG-CC-PVQZ
  Basis Set: (AUG-CC-PVQZ AUX)
    Blend: AUG-CC-PVQZ-JKFIT

    Orbital Energies [Eh]
    ---------------------

    Doubly Occupied:

       1A    -20.552124     2A    -20.542759     3A    -20.542747
       4A    -20.530770     5A    -15.645582     6A    -15.620249
       7A    -15.619747     8A    -15.619500     9A    -11.416419
      10A    -11.413449    11A    -11.392482    12A    -11.371433
      13A    -11.346462    14A    -11.326454    15A    -11.258034
      16A    -11.242576    17A     -1.436956    18A     -1.430369
      19A     -1.407176    20A     -1.389904    21A     -1.315748
      22A     -1.302446    23A     -1.247329    24A     -1.236478
      25A     -1.092826    26A     -1.076625    27A     -0.937992
      28A     -0.923326    29A     -0.905992    30A     -0.892075
      31A     -0.810073    32A     -0.797423    33A     -0.769932
      34A     -0.756480    35A     -0.722835    36A     -0.710107
      37A     -0.688278    38A     -0.670608    39A     -0.668681
      40A     -0.661500    41A     -0.653753    42A     -0.645782
      43A     -0.623277    44A     -0.607351    45A     -0.599752
      46A     -0.590903    47A     -0.581919    48A     -0.563059
      49A     -0.527473    50A     -0.514550    51A     -0.494457
      52A     -0.476200    53A     -0.461362    54A     -0.442528
      55A     -0.441625    56A     -0.434289    57A     -0.374430
      58A     -0.357373

  @DF-RHF Final Energy:  -825.31719872627809

   => Energetics <=

    Nuclear Repulsion Energy =           1040.0050771896121660
    One-Electron Energy =               -3193.2804626435445243
    Two-Electron Energy =                1327.9581867276542653
    Total Energy =                       -825.3171987262780931

  Dipole Moment: [D]
     X:    -8.6191      Y:    -2.1128      Z:    -0.0043     Total:     8.8743

  Basis Set: (AUG-CC-PVQZ AUX)
    Blend: AUG-CC-PVQZ-RI
	 Reference Energy          =    -825.3171987262780931 [Eh]
	 Singles Energy            =      -0.0000000000000000 [Eh]
	 Same-Spin Energy          =      -0.8842774341701519 [Eh]
	 Opposite-Spin Energy      =      -2.7812497037030619 [Eh]
	 Correlation Energy        =      -3.6655271378732137 [Eh]
	 Total Energy              =    -828.9827258641513481 [Eh]

	 ================> DF-SCS-MP2 Energies <==================
	-----------------------------------------------------------
	 SCS Same-Spin Scale       =       0.3333333333333333 [-]
	 SCS Opposite-Spin Scale   =       1.2000000000000000 [-]
	 SCS Same-Spin Energy      =      -0.2947591447233839 [Eh]
	 SCS Opposite-Spin Energy  =      -3.3374996444436742 [Eh]
	 SCS Correlation Energy    =      -3.6322587891670581 [Eh]
	 SCS Total Energy          =    -828.9494575154451468 [Eh]
	-----------------------------------------------------------

*** Psi4 exiting successfully. Buy a developer a beer!
