                               Psi4 1.4a2.dev224

  ==> Input File <==

--------------------------------------------------------------------------
#Generated by lconvert.py for cbs job

memory 40 GB

molecule  {
0 1
  N       -0.7299990     0.0227680     0.0009150
  H        0.2984230     0.0740040     0.0016230
  C       -1.2968250    -1.2404270     0.0015020
  O       -0.5940990    -2.2535180     0.0026340
  C       -2.7436220    -1.2623320     0.0004790
  H       -3.2495900    -2.2118350     0.0008330
  C       -3.4220200    -0.0959090    -0.0009230
  H       -4.5008970    -0.0492160    -0.0017450
  N       -2.7748370     1.1054090    -0.0014180
  H       -3.2838380     1.9738770    -0.0024860
  C       -1.3914790     1.2370200    -0.0005250
  O       -0.8398440     2.3170350    -0.0010010
--
0 1
  N        3.6204800    -1.0610210     0.0008150
  H        4.0677240    -0.1544480     0.0012010
  C        4.4765280    -2.1756390    -0.0006850
  O        5.6859800    -2.0239350    -0.0014340
  C        3.7623090    -3.4378120    -0.0011900
  H        4.3288940    -4.3528430    -0.0023280
  C        2.4121400    -3.4416300    -0.0002300
  H        1.8351770    -4.3545950    -0.0005480
  N        1.6741490    -2.2907500     0.0012210
  H        0.6478130    -2.3121920     0.0018980
  C        2.2469200    -1.0460840     0.0017720
  O        1.5965990    -0.0048660     0.0030080
units angstrom
no_reorient
symmetry c1
}

set {
scf_type DF
mp2_type DF
e_convergence 7
reference rhf
}

energy('mp2/aug-cc-pv[tq]z', bsse_type='cp')
--------------------------------------------------------------------------

    Molecular point group: c1
  Charge       = 0
  Multiplicity = 1
  Basis Set: AUG-CC-PVTZ
    Blend: AUG-CC-PVTZ
  Basis Set: (AUG-CC-PVTZ AUX)
    Blend: AUG-CC-PVTZ-JKFIT
  @DF-RHF Final Energy:  -412.62289626344244
    Total Energy =                       -412.6228962634424420
  Basis Set: (AUG-CC-PVTZ AUX)
    Blend: AUG-CC-PVTZ-RI
	 Reference Energy          =    -412.6228962634424420 [Eh]
	 Singles Energy            =      -0.0000000000000000 [Eh]
	 Same-Spin Energy          =      -0.4144436208410133 [Eh]
	 Opposite-Spin Energy      =      -1.2269773869701506 [Eh]
	 Correlation Energy        =      -1.6414210078111640 [Eh]
	 Total Energy              =    -414.2643172712536170 [Eh]
	 SCS Total Energy          =    -414.2334170014203210 [Eh]
    Molecular point group: c1
  Basis Set: AUG-CC-PVQZ
    Blend: AUG-CC-PVQZ
  Basis Set: (AUG-CC-PVQZ AUX)
    Blend: AUG-CC-PVQZ-JKFIT
  @DF-RHF Final Energy:  -412.64837665705380
    Total Energy =                       -412.6483766570538023
  Basis Set: (AUG-CC-PVQZ AUX)
  @DF-RHF Final Energy:  -412.62334154921615
    Total Energy =                       -412.6233415492161498
  @DF-RHF Final Energy:  -412.64846352376333
    Total Energy =                       -412.6484635237633256
  @DF-RHF Final Energy:  -412.62309016427565
    Total Energy =                       -412.6230901642756521
  @DF-RHF Final Energy:  -412.64821260746777
    Total Energy =                       -412.6482126074677694
  @DF-RHF Final Energy:  -412.62262800730707
    Total Energy =                       -412.6226280073070711
  @DF-RHF Final Energy:  -412.64811748116466
    Total Energy =                       -412.6481174811646611
  Multiplicity = 1
  @DF-RHF Final Energy:  -825.21417227436029
    Total Energy =                       -825.2141722743601804
	 Singles Energy            =      -0.0000000000000000 [Eh]
	 Same-Spin Energy          =      -0.8422248730333035 [Eh]
	 Opposite-Spin Energy      =      -2.4675437392991246 [Eh]
	 Correlation Energy        =      -3.3097686123324284 [Eh]
	 Total Energy              =    -828.5239408866926851 [Eh]
	 SCS Total Energy          =    -828.4559663858636895 [Eh]
    Molecular point group: c1

    Geometry (in Angstrom), charge = 0, multiplicity = 1:

       Center              X                  Y                   Z               Mass
    ------------   -----------------  -----------------  -----------------  -----------------
         N           -1.476617518782     0.967188928805     0.000586516344    14.003074004430
         H           -0.448195518782     1.018424928805     0.001294516344     1.007825032230
         C           -2.043443518782    -0.296006071195     0.001173516344    12.000000000000
         O           -1.340717518782    -1.309097071195     0.002305516344    15.994914619570
         C           -3.490240518782    -0.317911071195     0.000150516344    12.000000000000
         H           -3.996208518782    -1.267414071195     0.000504516344     1.007825032230
         C           -4.168638518782     0.848511928805    -0.001251483656    12.000000000000
         H           -5.247515518782     0.895204928805    -0.002073483656     1.007825032230
         N           -3.521455518782     2.049829928805    -0.001746483656    14.003074004430
         H           -4.030456518782     2.918297928805    -0.002814483656     1.007825032230
         C           -2.138097518782     2.181440928805    -0.000853483656    12.000000000000
         O           -1.586462518782     3.261455928805    -0.001329483656    15.994914619570
         N            2.873861481218    -0.116600071195     0.000486516344    14.003074004430
         H            3.321105481218     0.789972928805     0.000872516344     1.007825032230
         C            3.729909481218    -1.231218071195    -0.001013483656    12.000000000000
         O            4.939361481218    -1.079514071195    -0.001762483656    15.994914619570
         C            3.015690481218    -2.493391071195    -0.001518483656    12.000000000000
         H            3.582275481218    -3.408422071195    -0.002656483656     1.007825032230
         C            1.665521481218    -2.497209071195    -0.000558483656    12.000000000000
         H            1.088558481218    -3.410174071195    -0.000876483656     1.007825032230
         N            0.927530481218    -1.346329071195     0.000892516344    14.003074004430
         H           -0.098805518782    -1.367771071195     0.001569516344     1.007825032230
         C            1.500301481218    -0.101663071195     0.001443516344    12.000000000000
         O            0.849980481218     0.939554928805     0.002679516344    15.994914619570

  Charge       = 0
  Multiplicity = 1
  Basis Set: AUG-CC-PVQZ
    Blend: AUG-CC-PVQZ
  Basis Set: (AUG-CC-PVQZ AUX)
    Blend: AUG-CC-PVQZ-JKFIT

    Orbital Energies [Eh]
    ---------------------

    Doubly Occupied:

       1A    -20.560187     2A    -20.550330     3A    -20.537721
       4A    -20.526346     5A    -15.644221     6A    -15.619696
       7A    -15.592780     8A    -15.584318     9A    -11.416723
      10A    -11.409507    11A    -11.400048    12A    -11.367569
      13A    -11.348521    14A    -11.316491    15A    -11.258800
      16A    -11.234778    17A     -1.455462    18A     -1.436509
      19A     -1.420911    20A     -1.389169    21A     -1.314925
      22A     -1.300747    23A     -1.240727    24A     -1.231528
      25A     -1.094887    26A     -1.070543    27A     -0.951467
      28A     -0.916113    29A     -0.909337    30A     -0.892200
      31A     -0.835090    32A     -0.807920    33A     -0.766012
      34A     -0.757493    35A     -0.749082    36A     -0.723664
      37A     -0.681596    38A     -0.670413    39A     -0.664941
      40A     -0.658842    41A     -0.650231    42A     -0.640015
      43A     -0.623967    44A     -0.610216    45A     -0.594919
      46A     -0.587313    47A     -0.573475    48A     -0.564123
      49A     -0.523692    50A     -0.508891    51A     -0.502852
      52A     -0.466669    53A     -0.455940    54A     -0.443672
      55A     -0.438434    56A     -0.435361    57A     -0.375707
      58A     -0.348080

  @DF-RHF Final Energy:  -825.26464268435518

   => Energetics <=

    Nuclear Repulsion Energy =           1076.7515475653851809
    One-Electron Energy =               -3266.7300025197801006
    Two-Electron Energy =                1364.7138122700396252
    Total Energy =                       -825.2646426843550671

  Dipole Moment: [D]
     X:    -8.9088      Y:    -1.9433      Z:    -0.0034     Total:     9.1182

  Basis Set: (AUG-CC-PVQZ AUX)
    Blend: AUG-CC-PVQZ-RI
	 Reference Energy          =    -825.2646426843551808 [Eh]
	 Singles Energy            =      -0.0000000000000000 [Eh]
	 Same-Spin Energy          =      -0.8922316241348116 [Eh]
	 Opposite-Spin Energy      =      -2.7866909818652261 [Eh]
	 Correlation Energy        =      -3.6789226060000377 [Eh]
	 Total Energy              =    -828.9435652903551954 [Eh]

	 ================> DF-SCS-MP2 Energies <==================
	-----------------------------------------------------------
	 SCS Same-Spin Scale       =       0.3333333333333333 [-]
	 SCS Opposite-Spin Scale   =       1.2000000000000000 [-]
	 SCS Same-Spin Energy      =      -0.2974105413782705 [Eh]
	 SCS Opposite-Spin Energy  =      -3.3440291782382712 [Eh]
	 SCS Correlation Energy    =      -3.6414397196165416 [Eh]
	 SCS Total Energy          =    -828.9060824039717090 [Eh]
	-----------------------------------------------------------

*** Psi4 exiting successfully. Buy a developer a beer!
