                               Psi4 1.4a2.dev224

  ==> Input File <==

--------------------------------------------------------------------------
#Generated by lconvert.py for cbs job

memory 40 GB

molecule  {
0 1
  N       -0.7299990     0.0227680     0.0009150
  H        0.2984230     0.0740040     0.0016230
  C       -1.2968250    -1.2404270     0.0015020
  O       -0.5940990    -2.2535180     0.0026340
  C       -2.7436220    -1.2623320     0.0004790
  H       -3.2495900    -2.2118350     0.0008330
  C       -3.4220200    -0.0959090    -0.0009230
  H       -4.5008970    -0.0492160    -0.0017450
  N       -2.7748370     1.1054090    -0.0014180
  H       -3.2838380     1.9738770    -0.0024860
  C       -1.3914790     1.2370200    -0.0005250
  O       -0.8398440     2.3170350    -0.0010010
--
0 1
  N        3.7978960    -1.0694030     0.0007100
  H        4.2451400    -0.1628300     0.0010960
  C        4.6539440    -2.1840210    -0.0007900
  O        5.8633960    -2.0323170    -0.0015400
  C        3.9397250    -3.4461950    -0.0012950
  H        4.5063100    -4.3612250    -0.0024330
  C        2.5895560    -3.4500120    -0.0003350
  H        2.0125930    -4.3629770    -0.0006530
  N        1.8515650    -2.2991320     0.0011160
  H        0.8252290    -2.3205740     0.0017930
  C        2.4243360    -1.0544670     0.0016660
  O        1.7740150    -0.0132480     0.0029030
units angstrom
no_reorient
symmetry c1
}

set {
scf_type DF
mp2_type DF
e_convergence 7
reference rhf
}

energy('mp2/aug-cc-pv[tq]z', bsse_type='cp')
--------------------------------------------------------------------------

    Molecular point group: c1
  Charge       = 0
  Multiplicity = 1
  Basis Set: AUG-CC-PVTZ
    Blend: AUG-CC-PVTZ
  Basis Set: (AUG-CC-PVTZ AUX)
    Blend: AUG-CC-PVTZ-JKFIT
  @DF-RHF Final Energy:  -412.62289619974570
    Total Energy =                       -412.6228961997456963
  Basis Set: (AUG-CC-PVTZ AUX)
    Blend: AUG-CC-PVTZ-RI
	 Reference Energy          =    -412.6228961997456963 [Eh]
	 Singles Energy            =      -0.0000000000000000 [Eh]
	 Same-Spin Energy          =      -0.4144436198014572 [Eh]
	 Opposite-Spin Energy      =      -1.2269773983802135 [Eh]
	 Correlation Energy        =      -1.6414210181816706 [Eh]
	 Total Energy              =    -414.2643172179273847 [Eh]
	 SCS Total Energy          =    -414.2334169510691027 [Eh]
    Molecular point group: c1
  Basis Set: AUG-CC-PVQZ
    Blend: AUG-CC-PVQZ
  Basis Set: (AUG-CC-PVQZ AUX)
    Blend: AUG-CC-PVQZ-JKFIT
  @DF-RHF Final Energy:  -412.64837659101937
    Total Energy =                       -412.6483765910193711
  Basis Set: (AUG-CC-PVQZ AUX)
  @DF-RHF Final Energy:  -412.62327319778245
    Total Energy =                       -412.6232731977824528
  @DF-RHF Final Energy:  -412.64845074044632
    Total Energy =                       -412.6484507404463216
  @DF-RHF Final Energy:  -412.62302255885720
    Total Energy =                       -412.6230225588572011
  @DF-RHF Final Energy:  -412.64819922199132
    Total Energy =                       -412.6481992219913195
  @DF-RHF Final Energy:  -412.62262800772282
    Total Energy =                       -412.6226280077228239
  @DF-RHF Final Energy:  -412.64811748398267
    Total Energy =                       -412.6481174839826735
  Multiplicity = 1
  @DF-RHF Final Energy:  -825.24770975511876
    Total Energy =                       -825.2477097551188763
	 Singles Energy            =      -0.0000000000000000 [Eh]
	 Same-Spin Energy          =      -0.8389073504598070 [Eh]
	 Opposite-Spin Energy      =      -2.4649002722674624 [Eh]
	 Correlation Energy        =      -3.3038076227272697 [Eh]
	 Total Energy              =    -828.5515173778460394 [Eh]
	 SCS Total Energy          =    -828.4852258653263561 [Eh]
    Molecular point group: c1

    Geometry (in Angstrom), charge = 0, multiplicity = 1:

       Center              X                  Y                   Z               Mass
    ------------   -----------------  -----------------  -----------------  -----------------
         N           -1.565325518782     0.971380035922     0.000639141291    14.003074004430
         H           -0.536903518782     1.022616035922     0.001347141291     1.007825032230
         C           -2.132151518782    -0.291814964078     0.001226141291    12.000000000000
         O           -1.429425518782    -1.304905964078     0.002358141291    15.994914619570
         C           -3.578948518782    -0.313719964078     0.000203141291    12.000000000000
         H           -4.084916518782    -1.263222964078     0.000557141291     1.007825032230
         C           -4.257346518782     0.852703035922    -0.001198858709    12.000000000000
         H           -5.336223518782     0.899396035922    -0.002020858709     1.007825032230
         N           -3.610163518782     2.054021035922    -0.001693858709    14.003074004430
         H           -4.119164518782     2.922489035922    -0.002761858709     1.007825032230
         C           -2.226805518782     2.185632035922    -0.000800858709    12.000000000000
         O           -1.675170518782     3.265647035922    -0.001276858709    15.994914619570
         N            2.962569481218    -0.120790964078     0.000434141291    14.003074004430
         H            3.409813481218     0.785782035922     0.000820141291     1.007825032230
         C            3.818617481218    -1.235408964078    -0.001065858709    12.000000000000
         O            5.028069481218    -1.083704964078    -0.001815858709    15.994914619570
         C            3.104398481218    -2.497582964078    -0.001570858709    12.000000000000
         H            3.670983481218    -3.412612964078    -0.002708858709     1.007825032230
         C            1.754229481218    -2.501399964078    -0.000610858709    12.000000000000
         H            1.177266481218    -3.414364964078    -0.000928858709     1.007825032230
         N            1.016238481218    -1.350519964078     0.000840141291    14.003074004430
         H           -0.010097518782    -1.371961964078     0.001517141291     1.007825032230
         C            1.589009481218    -0.105854964078     0.001390141291    12.000000000000
         O            0.938688481218     0.935364035922     0.002627141291    15.994914619570

  Charge       = 0
  Multiplicity = 1
  Basis Set: AUG-CC-PVQZ
    Blend: AUG-CC-PVQZ
  Basis Set: (AUG-CC-PVQZ AUX)
    Blend: AUG-CC-PVQZ-JKFIT

    Orbital Energies [Eh]
    ---------------------

    Doubly Occupied:

       1A    -20.557042     2A    -20.547164     3A    -20.539760
       4A    -20.528180     5A    -15.644843     6A    -15.619601
       7A    -15.605365     8A    -15.600084     9A    -11.415264
      10A    -11.412464    11A    -11.396970    12A    -11.369161
      13A    -11.347769    14A    -11.320705    15A    -11.258472
      16A    -11.237976    17A     -1.443510    18A     -1.432524
      19A     -1.416162    20A     -1.389424    21A     -1.315119
      22A     -1.300893    23A     -1.243589    24A     -1.233687
      25A     -1.093869    26A     -1.072818    27A     -0.943125
      28A     -0.918781    29A     -0.906859    30A     -0.891761
      31A     -0.818850    32A     -0.803904    33A     -0.767375
      34A     -0.756234    35A     -0.737459    36A     -0.719855
      37A     -0.685019    38A     -0.669653    39A     -0.666768
      40A     -0.659902    41A     -0.651712    42A     -0.642081
      43A     -0.624477    44A     -0.608529    45A     -0.590892
      46A     -0.588850    47A     -0.583201    48A     -0.562893
      49A     -0.525334    50A     -0.511334    51A     -0.501255
      52A     -0.470737    53A     -0.460529    54A     -0.442388
      55A     -0.440509    56A     -0.435498    57A     -0.375428
      58A     -0.352073

  @DF-RHF Final Energy:  -825.29819725044820

   => Energetics <=

    Nuclear Repulsion Energy =           1063.4970212782438921
    One-Electron Energy =               -3240.2790354412741181
    Two-Electron Energy =                1351.4838169125819149
    Total Energy =                       -825.2981972504480837

  Dipole Moment: [D]
     X:    -8.7917      Y:    -2.0102      Z:    -0.0038     Total:     9.0186

  Basis Set: (AUG-CC-PVQZ AUX)
    Blend: AUG-CC-PVQZ-RI
	 Reference Energy          =    -825.2981972504481973 [Eh]
	 Singles Energy            =      -0.0000000000000000 [Eh]
	 Same-Spin Energy          =      -0.8888749032734549 [Eh]
	 Opposite-Spin Energy      =      -2.7844500344588874 [Eh]
	 Correlation Energy        =      -3.6733249377323425 [Eh]
	 Total Energy              =    -828.9715221881805292 [Eh]

	 ================> DF-SCS-MP2 Energies <==================
	-----------------------------------------------------------
	 SCS Same-Spin Scale       =       0.3333333333333333 [-]
	 SCS Opposite-Spin Scale   =       1.2000000000000000 [-]
	 SCS Same-Spin Energy      =      -0.2962916344244849 [Eh]
	 SCS Opposite-Spin Energy  =      -3.3413400413506649 [Eh]
	 SCS Correlation Energy    =      -3.6376316757751499 [Eh]
	 SCS Total Energy          =    -828.9358289262233939 [Eh]
	-----------------------------------------------------------

*** Psi4 exiting successfully. Buy a developer a beer!
