                               Psi4 1.4a2.dev224

  ==> Input File <==

--------------------------------------------------------------------------
#Generated by lconvert.py for cbs job

memory 40 GB

molecule  {
0 1
  N       -0.7299990     0.0227680     0.0009150
  H        0.2984230     0.0740040     0.0016230
  C       -1.2968250    -1.2404270     0.0015020
  O       -0.5940990    -2.2535180     0.0026340
  C       -2.7436220    -1.2623320     0.0004790
  H       -3.2495900    -2.2118350     0.0008330
  C       -3.4220200    -0.0959090    -0.0009230
  H       -4.5008970    -0.0492160    -0.0017450
  N       -2.7748370     1.1054090    -0.0014180
  H       -3.2838380     1.9738770    -0.0024860
  C       -1.3914790     1.2370200    -0.0005250
  O       -0.8398440     2.3170350    -0.0010010
--
0 1
  N        3.9754520    -1.0769300     0.0004980
  H        4.4226960    -0.1703560     0.0008850
  C        4.8315000    -2.1915470    -0.0010010
  O        6.0409520    -2.0398430    -0.0017510
  C        4.1172810    -3.4537210    -0.0015060
  H        4.6838660    -4.3687520    -0.0026440
  C        2.7671130    -3.4575390    -0.0005460
  H        2.1901490    -4.3705030    -0.0008640
  N        2.0291210    -2.3066580     0.0009050
  H        1.0027850    -2.3281010     0.0015820
  C        2.6018920    -1.0619930     0.0014550
  O        1.9515710    -0.0207750     0.0026920
units angstrom
no_reorient
symmetry c1
}

set {
scf_type DF
mp2_type DF
e_convergence 7
reference rhf
}

energy('mp2/aug-cc-pv[tq]z', bsse_type='cp')
--------------------------------------------------------------------------

    Molecular point group: c1
  Charge       = 0
  Multiplicity = 1
  Basis Set: AUG-CC-PVTZ
    Blend: AUG-CC-PVTZ
  Basis Set: (AUG-CC-PVTZ AUX)
    Blend: AUG-CC-PVTZ-JKFIT
  @DF-RHF Final Energy:  -412.62289632006662
    Total Energy =                       -412.6228963200666158
  Basis Set: (AUG-CC-PVTZ AUX)
    Blend: AUG-CC-PVTZ-RI
	 Reference Energy          =    -412.6228963200666158 [Eh]
	 Singles Energy            =      -0.0000000000000000 [Eh]
	 Same-Spin Energy          =      -0.4144435944029376 [Eh]
	 Opposite-Spin Energy      =      -1.2269773563582866 [Eh]
	 Correlation Energy        =      -1.6414209507612243 [Eh]
	 Total Energy              =    -414.2643172708278598 [Eh]
	 SCS Total Energy          =    -414.2334170124975117 [Eh]
    Molecular point group: c1
  Basis Set: AUG-CC-PVQZ
    Blend: AUG-CC-PVQZ
  Basis Set: (AUG-CC-PVQZ AUX)
    Blend: AUG-CC-PVQZ-JKFIT
  @DF-RHF Final Energy:  -412.64837671847704
    Total Energy =                       -412.6483767184770386
  Basis Set: (AUG-CC-PVQZ AUX)
  @DF-RHF Final Energy:  -412.62321497270193
    Total Energy =                       -412.6232149727019305
  @DF-RHF Final Energy:  -412.64843927878258
    Total Energy =                       -412.6484392787825755
  @DF-RHF Final Energy:  -412.62296492272753
    Total Energy =                       -412.6229649227275331
  @DF-RHF Final Energy:  -412.64818689800228
    Total Energy =                       -412.6481868980022796
  @DF-RHF Final Energy:  -412.62262800777853
    Total Energy =                       -412.6226280077785304
  @DF-RHF Final Energy:  -412.64811748226350
    Total Energy =                       -412.6481174822635012
  Multiplicity = 1
  @DF-RHF Final Energy:  -825.26190695981506
    Total Energy =                       -825.2619069598151782
	 Singles Energy            =      -0.0000000000000000 [Eh]
	 Same-Spin Energy          =      -0.8363098680096457 [Eh]
	 Opposite-Spin Energy      =      -2.4628681344109973 [Eh]
	 Correlation Energy        =      -3.2991780024206427 [Eh]
	 Total Energy              =    -828.5610849622356682 [Eh]
	 SCS Total Energy          =    -828.4961186771114399 [Eh]
    Molecular point group: c1

    Geometry (in Angstrom), charge = 0, multiplicity = 1:

       Center              X                  Y                   Z               Mass
    ------------   -----------------  -----------------  -----------------  -----------------
         N           -1.654103572340     0.975143232363     0.000744703790    14.003074004430
         H           -0.625681572340     1.026379232363     0.001452703790     1.007825032230
         C           -2.220929572340    -0.288051767637     0.001331703790    12.000000000000
         O           -1.518203572340    -1.301142767637     0.002463703790    15.994914619570
         C           -3.667726572340    -0.309956767637     0.000308703790    12.000000000000
         H           -4.173694572340    -1.259459767637     0.000662703790     1.007825032230
         C           -4.346124572340     0.856466232363    -0.001093296210    12.000000000000
         H           -5.425001572340     0.903159232363    -0.001915296210     1.007825032230
         N           -3.698941572340     2.057784232363    -0.001588296210    14.003074004430
         H           -4.207942572340     2.926252232363    -0.002656296210     1.007825032230
         C           -2.315583572340     2.189395232363    -0.000695296210    12.000000000000
         O           -1.763948572340     3.269410232363    -0.001171296210    15.994914619570
         N            3.051347427660    -0.124554767637     0.000327703790    14.003074004430
         H            3.498591427660     0.782019232363     0.000714703790     1.007825032230
         C            3.907395427660    -1.239171767637    -0.001171296210    12.000000000000
         O            5.116847427660    -1.087467767637    -0.001921296210    15.994914619570
         C            3.193176427660    -2.501345767637    -0.001676296210    12.000000000000
         H            3.759761427660    -3.416376767637    -0.002814296210     1.007825032230
         C            1.843008427660    -2.505163767637    -0.000716296210    12.000000000000
         H            1.266044427660    -3.418127767637    -0.001034296210     1.007825032230
         N            1.105016427660    -1.354282767637     0.000734703790    14.003074004430
         H            0.078680427660    -1.375725767637     0.001411703790     1.007825032230
         C            1.677787427660    -0.109617767637     0.001284703790    12.000000000000
         O            1.027466427660     0.931600232363     0.002521703790    15.994914619570

  Charge       = 0
  Multiplicity = 1
  Basis Set: AUG-CC-PVQZ
    Blend: AUG-CC-PVQZ
  Basis Set: (AUG-CC-PVQZ AUX)
    Blend: AUG-CC-PVQZ-JKFIT

    Orbital Energies [Eh]
    ---------------------

    Doubly Occupied:

       1A    -20.554377     2A    -20.544697     3A    -20.541418
       4A    -20.529639     5A    -15.645284     6A    -15.619649
       7A    -15.614208     8A    -15.611486     9A    -11.414725
      10A    -11.414216    11A    -11.394482    12A    -11.370438
      13A    -11.347077    14A    -11.323971    15A    -11.258235
      16A    -11.240554    17A     -1.438288    18A     -1.431608
      19A     -1.411057    20A     -1.389671    21A     -1.315440
      22A     -1.301591    23A     -1.245761    24A     -1.235278
      25A     -1.093252    26A     -1.074894    27A     -0.939542
      28A     -0.921293    29A     -0.906054    30A     -0.891823
      31A     -0.812029    32A     -0.800034    33A     -0.768949
      34A     -0.755982    35A     -0.728360    36A     -0.714557
      37A     -0.687369    38A     -0.669994    39A     -0.667994
      40A     -0.660770    41A     -0.652910    42A     -0.644249
      43A     -0.624148    44A     -0.607778    45A     -0.595650
      46A     -0.588335    47A     -0.584733    48A     -0.562755
      49A     -0.526559    50A     -0.513197    51A     -0.497907
      52A     -0.474081    53A     -0.461558    54A     -0.441805
      55A     -0.441748    56A     -0.435011    57A     -0.374947
      58A     -0.355110

  @DF-RHF Final Energy:  -825.31246989987721

   => Energetics <=

    Nuclear Repulsion Energy =           1051.3033701768008541
    One-Electron Energy =               -3215.8945833779425811
    Two-Electron Energy =                1339.2787433012645124
    Total Energy =                       -825.3124698998772146

  Dipole Moment: [D]
     X:    -8.6950      Y:    -2.0662      Z:    -0.0041     Total:     8.9371

  Basis Set: (AUG-CC-PVQZ AUX)
    Blend: AUG-CC-PVQZ-RI
	 Reference Energy          =    -825.3124698998772146 [Eh]
	 Singles Energy            =      -0.0000000000000000 [Eh]
	 Same-Spin Energy          =      -0.8862349272037517 [Eh]
	 Opposite-Spin Energy      =      -2.7825927443113319 [Eh]
	 Correlation Energy        =      -3.6688276715150838 [Eh]
	 Total Energy              =    -828.9812975713922469 [Eh]

	 ================> DF-SCS-MP2 Energies <==================
	-----------------------------------------------------------
	 SCS Same-Spin Scale       =       0.3333333333333333 [-]
	 SCS Opposite-Spin Scale   =       1.2000000000000000 [-]
	 SCS Same-Spin Energy      =      -0.2954116424012506 [Eh]
	 SCS Opposite-Spin Energy  =      -3.3391112931735982 [Eh]
	 SCS Correlation Energy    =      -3.6345229355748487 [Eh]
	 SCS Total Energy          =    -828.9469928354520789 [Eh]
	-----------------------------------------------------------

*** Psi4 exiting successfully. Buy a developer a beer!
