                               Psi4 1.4a2.dev224

  ==> Input File <==

--------------------------------------------------------------------------
#Generated by lconvert.py for cbs job

memory 40 GB

molecule  {
0 1
  O       -0.5528310    -0.1016970    -0.0004990
  H       -0.8717600     0.8017920     0.0001440
  H        0.4126590    -0.0018320    -0.0002520
--
0 1
  N        1.8077490     0.0685560     0.0000330
  C        2.5036550     0.0345850     1.1447810
  H        1.9189830     0.0581960     2.0556490
  C        3.8926790    -0.0305970     1.1947770
  H        4.3985850    -0.0554510     2.1491060
  C        4.6038420    -0.0637230    -0.0001340
  H        5.6836820    -0.1154960    -0.0002140
  C        3.8925340    -0.0306640    -1.1949350
  H        4.3983310    -0.0555370    -2.1493340
  C        2.5035040     0.0345310    -1.1447890
  H        1.9187350     0.0581320    -2.0555820
units angstrom
no_reorient
symmetry c1
}

set {
scf_type DF
mp2_type DF
e_convergence 7
reference rhf
}

energy('mp2/aug-cc-pv[tq]z', bsse_type='cp')
--------------------------------------------------------------------------

    Molecular point group: c1
  Charge       = 0
  Multiplicity = 1
  Basis Set: AUG-CC-PVTZ
    Blend: AUG-CC-PVTZ
  Basis Set: (AUG-CC-PVTZ AUX)
    Blend: AUG-CC-PVTZ-JKFIT
  @DF-RHF Final Energy:  -246.77875347819361
    Total Energy =                       -246.7787534781936074
  Basis Set: (AUG-CC-PVTZ AUX)
    Blend: AUG-CC-PVTZ-RI
	 Reference Energy          =    -246.7787534781936074 [Eh]
	 Singles Energy            =      -0.0000000000000000 [Eh]
	 Same-Spin Energy          =      -0.2687949390122413 [Eh]
	 Opposite-Spin Energy      =      -0.8387700028293811 [Eh]
	 Correlation Energy        =      -1.1075649418416225 [Eh]
	 Total Energy              =    -247.8863184200352237 [Eh]
	 SCS Total Energy          =    -247.8748757945929526 [Eh]
    Molecular point group: c1
  Basis Set: AUG-CC-PVQZ
    Blend: AUG-CC-PVQZ
  Basis Set: (AUG-CC-PVQZ AUX)
    Blend: AUG-CC-PVQZ-JKFIT
  @DF-RHF Final Energy:  -246.79290049739996
    Total Energy =                       -246.7929004973999554
  Basis Set: (AUG-CC-PVQZ AUX)
  @DF-RHF Final Energy:  -246.77889475146787
    Total Energy =                       -246.7788947514678739
  @DF-RHF Final Energy:  -246.79293859747270
    Total Energy =                       -246.7929385974726983
  @DF-RHF Final Energy:   -76.06005701382327
    Total Energy =                        -76.0600570138232683
  @DF-RHF Final Energy:   -76.06529776490717
    Total Energy =                        -76.0652977649071715
  @DF-RHF Final Energy:   -76.05989083290031
    Total Energy =                        -76.0598908329003081
  @DF-RHF Final Energy:   -76.06524945225594
    Total Energy =                        -76.0652494522559266
  @DF-RHF Final Energy:  -322.82217111763725
    Total Energy =                       -322.8221711176372537
  @DF-RHF Final Energy:  -322.84153149481966
    Total Energy =                       -322.8415314948196624
*** Psi4 exiting successfully. Buy a developer a beer!
                               Psi4 1.4a2.dev224
  @DF-RHF Final Energy:  -246.77875342790759
    Total Energy =                       -246.7787534279075885
  @DF-RHF Final Energy:  -246.79290044780356
    Total Energy =                       -246.7929004478035608
  @DF-RHF Final Energy:  -246.77887132765409
    Total Energy =                       -246.7788713276540875
  @DF-RHF Final Energy:  -246.79293311624335
    Total Energy =                       -246.7929331162433755
  @DF-RHF Final Energy:   -76.06002845345371
    Total Energy =                        -76.0600284534536968
  @DF-RHF Final Energy:   -76.06528965602367
    Total Energy =                        -76.0652896560236513
  @DF-RHF Final Energy:   -76.05989083289296
    Total Energy =                        -76.0598908328929610
  @DF-RHF Final Energy:   -76.06524945222930
    Total Energy =                        -76.0652494522292955
  @DF-RHF Final Energy:  -322.83772081318426
    Total Energy =                       -322.8377208131842622
  @DF-RHF Final Energy:  -322.85708020241185
    Total Energy =                       -322.8570802024118507
*** Psi4 exiting successfully. Buy a developer a beer!
                               Psi4 1.4a2.dev224
                               Psi4 1.4a2.dev224
                               Psi4 1.4a2.dev224
                               Psi4 1.4a2.dev224
                               Psi4 1.4a2.dev224
                               Psi4 1.4a2.dev224
                               Psi4 1.4a2.dev224
  @DF-RHF Final Energy:  -246.77875322704614
    Total Energy =                       -246.7787532270461384
  @DF-RHF Final Energy:  -246.79290023636608
    Total Energy =                       -246.7929002363661084
  @DF-RHF Final Energy:  -246.77877695292767
    Total Energy =                       -246.7787769529276716
  @DF-RHF Final Energy:  -246.79290643723306
    Total Energy =                       -246.7929064372330572
  @DF-RHF Final Energy:   -76.05991561289090
    Total Energy =                        -76.0599156128909044
  @DF-RHF Final Energy:   -76.06526060412131
    Total Energy =                        -76.0652606041213062
  @DF-RHF Final Energy:   -76.05989073482630
    Total Energy =                        -76.0598907348262969
  @DF-RHF Final Energy:   -76.06524934993584
    Total Energy =                        -76.0652493499358400
  @DF-RHF Final Energy:  -322.84212159221909
    Total Energy =                       -322.8421215922190868
  @DF-RHF Final Energy:  -322.86158976064746
    Total Energy =                       -322.8615897606474618
*** Psi4 exiting successfully. Buy a developer a beer!
                               Psi4 1.4a2.dev224
  @DF-RHF Final Energy:  -246.77875366692254
    Total Energy =                       -246.7787536669225119
  @DF-RHF Final Energy:  -246.79290069522423
    Total Energy =                       -246.7929006952242617
  @DF-RHF Final Energy:  -246.77876385428121
    Total Energy =                       -246.7787638542811806
  @DF-RHF Final Energy:  -246.79290476391515
    Total Energy =                       -246.7929047639151463
  @DF-RHF Final Energy:   -76.05990465473008
    Total Energy =                        -76.0599046547300759
  @DF-RHF Final Energy:   -76.06525550148183
    Total Energy =                        -76.0652555014818290
  @DF-RHF Final Energy:   -76.05989073483909
    Total Energy =                        -76.0598907348390867
  @DF-RHF Final Energy:   -76.06524934993332
    Total Energy =                        -76.0652493499333389
  Multiplicity = 1
  @DF-RHF Final Energy:  -322.84072518899933
    Total Energy =                       -322.8407251889993290
	 Singles Energy            =      -0.0000000000000000 [Eh]
	 Same-Spin Energy          =      -0.3374291782643066 [Eh]
	 Opposite-Spin Energy      =      -1.0547184333263497 [Eh]
	 Correlation Energy        =      -1.3921476115906564 [Eh]
	 Total Energy              =    -324.2328728005899734 [Eh]
	 SCS Total Energy          =    -324.2188637017457040 [Eh]
    Molecular point group: c1

    Geometry (in Angstrom), charge = 0, multiplicity = 1:

       Center              X                  Y                   Z               Mass
    ------------   -----------------  -----------------  -----------------  -----------------
         O           -5.006784395035    -0.193367024197    -0.000780256158    15.994914619570
         H           -5.325714395035     0.710122975803    -0.000140256158     1.007825032230
         H           -4.041294395035    -0.093497024197    -0.000530256158     1.007825032230
         N           -0.254524395035     0.097562975803     0.000239743842    14.003074004430
         C            0.441375604965     0.063592975803     1.144989743842    12.000000000000
         H           -0.143294395035     0.087202975803     2.055859743842     1.007825032230
         C            1.830405604965    -0.001587024197     1.194989743842    12.000000000000
         H            2.336305604965    -0.026447024197     2.149319743842     1.007825032230
         C            2.541565604965    -0.034717024197     0.000079743842    12.000000000000
         H            3.621405604965    -0.086487024197    -0.000000256158     1.007825032230
         C            1.830255604965    -0.001657024197    -1.194720256158    12.000000000000
         H            2.336055604965    -0.026527024197    -2.149120256158     1.007825032230
         C            0.441225604965     0.063542975803    -1.144580256158    12.000000000000
         H           -0.143544395035     0.087142975803    -2.055370256158     1.007825032230

  Charge       = 0
  Multiplicity = 1
  Basis Set: AUG-CC-PVQZ
    Blend: AUG-CC-PVQZ
  Basis Set: (AUG-CC-PVQZ AUX)
    Blend: AUG-CC-PVQZ-JKFIT

    Orbital Energies [Eh]
    ---------------------

    Doubly Occupied:

       1A    -20.554539     2A    -15.570521     3A    -11.279197
       4A    -11.279180     5A    -11.263733     6A    -11.245623
       7A    -11.245571     8A     -1.338236     9A     -1.261501
      10A     -1.093922    11A     -1.039027    12A     -0.863996
      13A     -0.861136    14A     -0.727228    15A     -0.700209
      16A     -0.665715    17A     -0.659106    18A     -0.604204
      19A     -0.582102    20A     -0.574187    21A     -0.546657
      22A     -0.525614    23A     -0.498714    24A     -0.425133
      25A     -0.388885    26A     -0.353059

  @DF-RHF Final Energy:  -322.86021152650056

   => Energetics <=

    Nuclear Repulsion Energy =            252.4420085326148637
    One-Electron Energy =                -938.3104525443543480
    Two-Electron Energy =                 363.0082324852389206
    Total Energy =                       -322.8602115265005637

  Dipole Moment: [D]
     X:     3.6251      Y:     1.5366      Z:     0.0013     Total:     3.9373

  Basis Set: (AUG-CC-PVQZ AUX)
    Blend: AUG-CC-PVQZ-RI
	 Reference Energy          =    -322.8602115265005637 [Eh]
	 Singles Energy            =      -0.0000000000000000 [Eh]
	 Same-Spin Energy          =      -0.3571163918033161 [Eh]
	 Opposite-Spin Energy      =      -1.1870689668599546 [Eh]
	 Correlation Energy        =      -1.5441853586632706 [Eh]
	 Total Energy              =    -324.4043968851638624 [Eh]

	 ================> DF-SCS-MP2 Energies <==================
	-----------------------------------------------------------
	 SCS Same-Spin Scale       =       0.3333333333333333 [-]
	 SCS Opposite-Spin Scale   =       1.2000000000000000 [-]
	 SCS Same-Spin Energy      =      -0.1190387972677720 [Eh]
	 SCS Opposite-Spin Energy  =      -1.4244827602319454 [Eh]
	 SCS Correlation Energy    =      -1.5435215574997174 [Eh]
	 SCS Total Energy          =    -324.4037330840002937 [Eh]
	-----------------------------------------------------------

*** Psi4 exiting successfully. Buy a developer a beer!
