                               Psi4 1.4a2.dev224

  ==> Input File <==

--------------------------------------------------------------------------
#Generated by lconvert.py for cbs job

memory 20 GB

molecule  {
0 1
  O      -0.552830   -0.101700   -0.000500
  H      -0.871760    0.801790    0.000140
  H       0.412660   -0.001830   -0.000250
--
0 1
  N       3.003640    0.128900    0.000280
  C       3.699550    0.094920    1.145030
  H       3.114870    0.118540    2.055890
  C       5.088570    0.029740    1.195020
  H       5.594480    0.004890    2.149350
  C       5.799730   -0.003380    0.000110
  H       6.879570   -0.055160    0.000030
  C       5.088420    0.029670   -1.194690
  H       5.594220    0.004800   -2.149090
  C       3.699390    0.094870   -1.144540
  H       3.114630    0.118470   -2.055340
units angstrom
no_reorient
symmetry c1
}

set {
scf_type DF
mp2_type DF
e_convergence 7
reference rhf
}

energy('mp2/aug-cc-pv[tq]z', bsse_type='cp')
--------------------------------------------------------------------------

    Molecular point group: c1
  Charge       = 0
  Multiplicity = 1
  Basis Set: AUG-CC-PVTZ
    Blend: AUG-CC-PVTZ
  Basis Set: (AUG-CC-PVTZ AUX)
    Blend: AUG-CC-PVTZ-JKFIT
  @DF-RHF Final Energy:  -246.77875357778782
    Total Energy =                       -246.7787535777878247
  Basis Set: (AUG-CC-PVTZ AUX)
    Blend: AUG-CC-PVTZ-RI
	 Reference Energy          =    -246.7787535777878247 [Eh]
	 Singles Energy            =      -0.0000000000000000 [Eh]
	 Same-Spin Energy          =      -0.2687949413659916 [Eh]
	 Opposite-Spin Energy      =      -0.8387699514259809 [Eh]
	 Correlation Energy        =      -1.1075648927919726 [Eh]
	 Total Energy              =    -247.8863184705797948 [Eh]
	 SCS Total Energy          =    -247.8748758332876605 [Eh]
    Molecular point group: c1
  Basis Set: AUG-CC-PVQZ
    Blend: AUG-CC-PVQZ
  Basis Set: (AUG-CC-PVQZ AUX)
    Blend: AUG-CC-PVQZ-JKFIT
  @DF-RHF Final Energy:  -246.79290060177996
    Total Energy =                       -246.7929006017799907
  Basis Set: (AUG-CC-PVQZ AUX)
  @DF-RHF Final Energy:  -246.77880276443454
    Total Energy =                       -246.7788027644345448
  @DF-RHF Final Energy:  -246.79291299967727
    Total Energy =                       -246.7929129996772986
  @DF-RHF Final Energy:   -76.05994224721832
    Total Energy =                        -76.0599422472183164
  @DF-RHF Final Energy:   -76.06526825461845
    Total Energy =                        -76.0652682546184451
  @DF-RHF Final Energy:   -76.05989073482505
    Total Energy =                        -76.0598907348250464
  @DF-RHF Final Energy:   -76.06524934991104
    Total Energy =                        -76.0652493499110420
  Multiplicity = 1
  @DF-RHF Final Energy:  -322.84453626903451
    Total Energy =                       -322.8445362690345064
	 Singles Energy            =      -0.0000000000000000 [Eh]
	 Same-Spin Energy          =      -0.3381219963431383 [Eh]
	 Opposite-Spin Energy      =      -1.0561123505801915 [Eh]
	 Correlation Energy        =      -1.3942343469233298 [Eh]
	 Total Energy              =    -324.2387706159578329 [Eh]
	 SCS Total Energy          =    -324.2245784218451377 [Eh]
    Molecular point group: c1

    Geometry (in Angstrom), charge = 0, multiplicity = 1:

       Center              X                  Y                   Z               Mass
    ------------   -----------------  -----------------  -----------------  -----------------
         O           -4.032904544172    -0.144227505432    -0.000580565616    15.994914619570
         H           -4.351834544172     0.759262494568     0.000059434384     1.007825032230
         H           -3.067414544172    -0.044357505432    -0.000330565616     1.007825032230
         N           -0.476434544172     0.086372494568     0.000199434384    14.003074004430
         C            0.219475455828     0.052392494568     1.144949434384    12.000000000000
         H           -0.365204544172     0.076012494568     2.055809434384     1.007825032230
         C            1.608495455828    -0.012787505432     1.194939434384    12.000000000000
         H            2.114405455828    -0.037637505432     2.149269434384     1.007825032230
         C            2.319655455828    -0.045907505432     0.000029434384    12.000000000000
         H            3.399495455828    -0.097687505432    -0.000050565616     1.007825032230
         C            1.608345455828    -0.012857505432    -1.194770565616    12.000000000000
         H            2.114145455828    -0.037727505432    -2.149170565616     1.007825032230
         C            0.219315455828     0.052342494568    -1.144620565616    12.000000000000
         H           -0.365444544172     0.075942494568    -2.055420565616     1.007825032230

  Charge       = 0
  Multiplicity = 1
  Basis Set: AUG-CC-PVQZ
    Blend: AUG-CC-PVQZ
  Basis Set: (AUG-CC-PVQZ AUX)
    Blend: AUG-CC-PVQZ-JKFIT

    Orbital Energies [Eh]
    ---------------------

    Doubly Occupied:

       1A    -20.541142     2A    -15.576231     3A    -11.283385
       4A    -11.283368     5A    -11.267304     6A    -11.248827
       7A    -11.248775     8A     -1.325734     9A     -1.266449
      10A     -1.097729    11A     -1.042750    12A     -0.867669
      13A     -0.865199    14A     -0.731222    15A     -0.687953
      16A     -0.669784    17A     -0.662323    18A     -0.607650
      19A     -0.586706    20A     -0.562248    21A     -0.551103
      22A     -0.529109    23A     -0.486424    24A     -0.431953
      25A     -0.393309    26A     -0.356398

  @DF-RHF Final Energy:  -322.86397578747096

   => Energetics <=

    Nuclear Repulsion Energy =            261.9176360254393785
    One-Electron Energy =                -957.2217155921404128
    Two-Electron Energy =                 372.4401037792300713
    Total Energy =                       -322.8639757874709630

  Dipole Moment: [D]
     X:     3.9667      Y:     1.5113      Z:     0.0013     Total:     4.2448

  Basis Set: (AUG-CC-PVQZ AUX)
    Blend: AUG-CC-PVQZ-RI
	 Reference Energy          =    -322.8639757874709630 [Eh]
	 Singles Energy            =      -0.0000000000000000 [Eh]
	 Same-Spin Energy          =      -0.3577774764698760 [Eh]
	 Opposite-Spin Energy      =      -1.1878877770830338 [Eh]
	 Correlation Energy        =      -1.5456652535529098 [Eh]
	 Total Energy              =    -324.4096410410238605 [Eh]

	 ================> DF-SCS-MP2 Energies <==================
	-----------------------------------------------------------
	 SCS Same-Spin Scale       =       0.3333333333333333 [-]
	 SCS Opposite-Spin Scale   =       1.2000000000000000 [-]
	 SCS Same-Spin Energy      =      -0.1192591588232920 [Eh]
	 SCS Opposite-Spin Energy  =      -1.4254653324996405 [Eh]
	 SCS Correlation Energy    =      -1.5447244913229325 [Eh]
	 SCS Total Energy          =    -324.4087002787939014 [Eh]
	-----------------------------------------------------------

*** Psi4 exiting successfully. Buy a developer a beer!
