                               Psi4 1.4a2.dev224

  ==> Input File <==

--------------------------------------------------------------------------
#Generated by lconvert.py for cbs job

memory 40 GB

molecule  {
0 1
  O       -0.5528310    -0.1016970    -0.0004990
  H       -0.8717600     0.8017920     0.0001440
  H        0.4126590    -0.0018320    -0.0002520
--
0 1
  N        2.4056440     0.0987230     0.0001550
  C        3.1015510     0.0647520     1.1449030
  H        2.5168780     0.0883630     2.0557710
  C        4.4905740    -0.0004300     1.1948990
  H        4.9964810    -0.0252850     2.1492280
  C        5.2017380    -0.0335560    -0.0000120
  H        6.2815780    -0.0853300    -0.0000920
  C        4.4904290    -0.0004970    -1.1948130
  H        4.9962260    -0.0253700    -2.1492120
  C        3.1013990     0.0646980    -1.1446670
  H        2.5166300     0.0882990    -2.0554600
units angstrom
no_reorient
symmetry c1
}

set {
scf_type DF
mp2_type DF
e_convergence 7
reference rhf
}

energy('mp2/aug-cc-pv[tq]z', bsse_type='cp')
--------------------------------------------------------------------------

    Molecular point group: c1
  Charge       = 0
  Multiplicity = 1
  Basis Set: AUG-CC-PVTZ
    Blend: AUG-CC-PVTZ
  Basis Set: (AUG-CC-PVTZ AUX)
    Blend: AUG-CC-PVTZ-JKFIT
  @DF-RHF Final Energy:  -246.77875343687032
    Total Energy =                       -246.7787534368703177
  Basis Set: (AUG-CC-PVTZ AUX)
    Blend: AUG-CC-PVTZ-RI
	 Reference Energy          =    -246.7787534368703177 [Eh]
	 Singles Energy            =      -0.0000000000000000 [Eh]
	 Same-Spin Energy          =      -0.2687949460606990 [Eh]
	 Opposite-Spin Energy      =      -0.8387700292736610 [Eh]
	 Correlation Energy        =      -1.1075649753343599 [Eh]
	 Total Energy              =    -247.8863184122046732 [Eh]
	 SCS Total Energy          =    -247.8748757873522663 [Eh]
    Molecular point group: c1
  Basis Set: AUG-CC-PVQZ
    Blend: AUG-CC-PVQZ
  Basis Set: (AUG-CC-PVQZ AUX)
    Blend: AUG-CC-PVQZ-JKFIT
  @DF-RHF Final Energy:  -246.79290045390172
    Total Energy =                       -246.7929004539017228
  Basis Set: (AUG-CC-PVQZ AUX)
  @DF-RHF Final Energy:  -246.77883873115479
    Total Energy =                       -246.7788387311547922
  @DF-RHF Final Energy:  -246.79292387867676
    Total Energy =                       -246.7929238786767883
  @DF-RHF Final Energy:   -76.05998106218925
    Total Energy =                        -76.0599810621892516
  @DF-RHF Final Energy:   -76.06528003072705
    Total Energy =                        -76.0652800307270525
  @DF-RHF Final Energy:   -76.05989083288809
    Total Energy =                        -76.0598908328880725
  @DF-RHF Final Energy:   -76.06524945225246
    Total Energy =                        -76.0652494522524734
  Multiplicity = 1
  @DF-RHF Final Energy:  -322.84608407549405
    Total Energy =                       -322.8460840754940477
	 Singles Energy            =      -0.0000000000000000 [Eh]
	 Same-Spin Energy          =      -0.3394985515641325 [Eh]
	 Opposite-Spin Energy      =      -1.0578597462332693 [Eh]
	 Correlation Energy        =      -1.3973582977974017 [Eh]
	 Total Energy              =    -324.2434423732914297 [Eh]
	 SCS Total Energy          =    -324.2286819548286871 [Eh]
    Molecular point group: c1

    Geometry (in Angstrom), charge = 0, multiplicity = 1:

       Center              X                  Y                   Z               Mass
    ------------   -----------------  -----------------  -----------------  -----------------
         O           -3.545883855797    -0.119652281080    -0.000478773970    15.994914619570
         H           -3.864812855797     0.783836718920     0.000164226030     1.007825032230
         H           -2.580393855797    -0.019787281080    -0.000231773970     1.007825032230
         N           -0.587408855797     0.080767718920     0.000175226030    14.003074004430
         C            0.108498144203     0.046796718920     1.144923226030    12.000000000000
         H           -0.476174855797     0.070407718920     2.055791226030     1.007825032230
         C            1.497521144203    -0.018385281080     1.194919226030    12.000000000000
         H            2.003428144203    -0.043240281080     2.149248226030     1.007825032230
         C            2.208685144203    -0.051511281080     0.000008226030    12.000000000000
         H            3.288525144203    -0.103285281080    -0.000071773970     1.007825032230
         C            1.497376144203    -0.018452281080    -1.194792773970    12.000000000000
         H            2.003173144203    -0.043325281080    -2.149191773970     1.007825032230
         C            0.108346144203     0.046742718920    -1.144646773970    12.000000000000
         H           -0.476422855797     0.070343718920    -2.055439773970     1.007825032230

  Charge       = 0
  Multiplicity = 1
  Basis Set: AUG-CC-PVQZ
    Blend: AUG-CC-PVQZ
  Basis Set: (AUG-CC-PVQZ AUX)
    Blend: AUG-CC-PVQZ-JKFIT

    Orbital Energies [Eh]
    ---------------------

    Doubly Occupied:

       1A    -20.522060     2A    -15.581196     3A    -11.287906
       4A    -11.287888     5A    -11.271235     6A    -11.252194
       7A    -11.252144     8A     -1.310335     9A     -1.271949
      10A     -1.102052    11A     -1.046725    12A     -0.871938
      13A     -0.869612    14A     -0.736698    15A     -0.676759
      16A     -0.674248    17A     -0.665111    18A     -0.611246
      19A     -0.591567    20A     -0.556116    21A     -0.548099
      22A     -0.532778    23A     -0.470186    24A     -0.437439
      25A     -0.398269    26A     -0.359898

  @DF-RHF Final Energy:  -322.86549143438242

   => Energetics <=

    Nuclear Repulsion Energy =            268.8337301051762438
    One-Electron Energy =                -971.0271464351712893
    Two-Electron Energy =                 379.3279248956125684
    Total Energy =                       -322.8654914343824203

  Dipole Moment: [D]
     X:     4.4113      Y:     1.4897      Z:     0.0014     Total:     4.6561

  Basis Set: (AUG-CC-PVQZ AUX)
    Blend: AUG-CC-PVQZ-RI
	 Reference Energy          =    -322.8654914343824203 [Eh]
	 Singles Energy            =      -0.0000000000000000 [Eh]
	 Same-Spin Energy          =      -0.3591514838610391 [Eh]
	 Opposite-Spin Energy      =      -1.1893903679938496 [Eh]
	 Correlation Energy        =      -1.5485418518548886 [Eh]
	 Total Energy              =    -324.4140332862373270 [Eh]

	 ================> DF-SCS-MP2 Energies <==================
	-----------------------------------------------------------
	 SCS Same-Spin Scale       =       0.3333333333333333 [-]
	 SCS Opposite-Spin Scale   =       1.2000000000000000 [-]
	 SCS Same-Spin Energy      =      -0.1197171612870130 [Eh]
	 SCS Opposite-Spin Energy  =      -1.4272684415926193 [Eh]
	 SCS Correlation Energy    =      -1.5469856028796323 [Eh]
	 SCS Total Energy          =    -324.4124770372620787 [Eh]
	-----------------------------------------------------------

*** Psi4 exiting successfully. Buy a developer a beer!
