                               Psi4 1.4a2.dev224

  ==> Input File <==

--------------------------------------------------------------------------
#Generated by lconvert.py for cbs job

memory 40 GB

molecule  {
0 1
  O       -0.5528310    -0.1016970    -0.0004990
  H       -0.8717600     0.8017920     0.0001440
  H        0.4126590    -0.0018320    -0.0002520
--
0 1
  N        1.8077490     0.0685560     0.0000330
  C        2.5036550     0.0345850     1.1447810
  H        1.9189830     0.0581960     2.0556490
  C        3.8926790    -0.0305970     1.1947770
  H        4.3985850    -0.0554510     2.1491060
  C        4.6038420    -0.0637230    -0.0001340
  H        5.6836820    -0.1154960    -0.0002140
  C        3.8925340    -0.0306640    -1.1949350
  H        4.3983310    -0.0555370    -2.1493340
  C        2.5035040     0.0345310    -1.1447890
  H        1.9187350     0.0581320    -2.0555820
units angstrom
no_reorient
symmetry c1
}

set {
scf_type DF
mp2_type DF
e_convergence 7
reference rhf
}

energy('mp2/aug-cc-pv[tq]z', bsse_type='cp')
--------------------------------------------------------------------------

    Molecular point group: c1
  Charge       = 0
  Multiplicity = 1
  Basis Set: AUG-CC-PVTZ
    Blend: AUG-CC-PVTZ
  Basis Set: (AUG-CC-PVTZ AUX)
    Blend: AUG-CC-PVTZ-JKFIT
  @DF-RHF Final Energy:  -246.77875347819361
    Total Energy =                       -246.7787534781936074
  Basis Set: (AUG-CC-PVTZ AUX)
    Blend: AUG-CC-PVTZ-RI
	 Reference Energy          =    -246.7787534781936074 [Eh]
	 Singles Energy            =      -0.0000000000000000 [Eh]
	 Same-Spin Energy          =      -0.2687949390122413 [Eh]
	 Opposite-Spin Energy      =      -0.8387700028293811 [Eh]
	 Correlation Energy        =      -1.1075649418416225 [Eh]
	 Total Energy              =    -247.8863184200352237 [Eh]
	 SCS Total Energy          =    -247.8748757945929526 [Eh]
    Molecular point group: c1
  Basis Set: AUG-CC-PVQZ
    Blend: AUG-CC-PVQZ
  Basis Set: (AUG-CC-PVQZ AUX)
    Blend: AUG-CC-PVQZ-JKFIT
  @DF-RHF Final Energy:  -246.79290049739996
    Total Energy =                       -246.7929004973999554
  Basis Set: (AUG-CC-PVQZ AUX)
  @DF-RHF Final Energy:  -246.77889475146787
    Total Energy =                       -246.7788947514678739
  @DF-RHF Final Energy:  -246.79293859747270
    Total Energy =                       -246.7929385974726983
  @DF-RHF Final Energy:   -76.06005701382327
    Total Energy =                        -76.0600570138232683
  @DF-RHF Final Energy:   -76.06529776490717
    Total Energy =                        -76.0652977649071715
  @DF-RHF Final Energy:   -76.05989083290031
    Total Energy =                        -76.0598908329003081
  @DF-RHF Final Energy:   -76.06524945225594
    Total Energy =                        -76.0652494522559266
  Multiplicity = 1
  @DF-RHF Final Energy:  -322.82217111763725
    Total Energy =                       -322.8221711176372537
	 Singles Energy            =      -0.0000000000000000 [Eh]
	 Same-Spin Energy          =      -0.3430933454812850 [Eh]
	 Opposite-Spin Energy      =      -1.0617588848324293 [Eh]
	 Correlation Energy        =      -1.4048522303137143 [Eh]
	 Total Energy              =    -324.2270233479509898 [Eh]
	 SCS Total Energy          =    -324.2106462279299421 [Eh]
    Molecular point group: c1

    Geometry (in Angstrom), charge = 0, multiplicity = 1:

       Center              X                  Y                   Z               Mass
    ------------   -----------------  -----------------  -----------------  -----------------
         O           -3.058942940246    -0.095083542262    -0.000379414117    15.994914619570
         H           -3.377871940246     0.808405457738     0.000263585883     1.007825032230
         H           -2.093452940246     0.004781457738    -0.000132414117     1.007825032230
         N           -0.698362940246     0.075169457738     0.000152585883    14.003074004430
         C           -0.002456940246     0.041198457738     1.144900585883    12.000000000000
         H           -0.587128940246     0.064809457738     2.055768585883     1.007825032230
         C            1.386567059754    -0.023983542262     1.194896585883    12.000000000000
         H            1.892473059754    -0.048837542262     2.149225585883     1.007825032230
         C            2.097730059754    -0.057109542262    -0.000014414117    12.000000000000
         H            3.177570059754    -0.108882542262    -0.000094414117     1.007825032230
         C            1.386422059754    -0.024050542262    -1.194815414117    12.000000000000
         H            1.892219059754    -0.048923542262    -2.149214414117     1.007825032230
         C           -0.002607940246     0.041144457738    -1.144669414117    12.000000000000
         H           -0.587376940246     0.064745457738    -2.055462414117     1.007825032230

  Charge       = 0
  Multiplicity = 1
  Basis Set: AUG-CC-PVQZ
    Blend: AUG-CC-PVQZ
  Basis Set: (AUG-CC-PVQZ AUX)
    Blend: AUG-CC-PVQZ-JKFIT

    Orbital Energies [Eh]
    ---------------------

    Doubly Occupied:

       1A    -20.474786     2A    -15.586381     3A    -11.297066
       4A    -11.297048     5A    -11.279344     6A    -11.258876
       7A    -11.258828     8A     -1.299196     9A     -1.268229
      10A     -1.111592    11A     -1.054761    12A     -0.882847
      13A     -0.878794    14A     -0.754688    15A     -0.686457
      16A     -0.683660    17A     -0.665926    18A     -0.618336
      19A     -0.587689    20A     -0.566013    21A     -0.540123
      22A     -0.529308    23A     -0.434617    24A     -0.422882
      25A     -0.408454    26A     -0.366842

  @DF-RHF Final Energy:  -322.84153149481966

   => Energetics <=

    Nuclear Repulsion Energy =            278.3583718251974801
    One-Electron Energy =                -989.9743123003762548
    Two-Electron Energy =                 388.7744089803591692
    Total Energy =                       -322.8415314948196624

  Dipole Moment: [D]
     X:     5.3923      Y:     1.4521      Z:     0.0014     Total:     5.5844

  Basis Set: (AUG-CC-PVQZ AUX)
    Blend: AUG-CC-PVQZ-RI
	 Reference Energy          =    -322.8415314948196624 [Eh]
	 Singles Energy            =      -0.0000000000000000 [Eh]
	 Same-Spin Energy          =      -0.3628218823980233 [Eh]
	 Opposite-Spin Energy      =      -1.1932795523074273 [Eh]
	 Correlation Energy        =      -1.5561014347054507 [Eh]
	 Total Energy              =    -324.3976329295251162 [Eh]

	 ================> DF-SCS-MP2 Energies <==================
	-----------------------------------------------------------
	 SCS Same-Spin Scale       =       0.3333333333333333 [-]
	 SCS Opposite-Spin Scale   =       1.2000000000000000 [-]
	 SCS Same-Spin Energy      =      -0.1209406274660078 [Eh]
	 SCS Opposite-Spin Energy  =      -1.4319354627689127 [Eh]
	 SCS Correlation Energy    =      -1.5528760902349206 [Eh]
	 SCS Total Energy          =    -324.3944075850545801 [Eh]
	-----------------------------------------------------------

*** Psi4 exiting successfully. Buy a developer a beer!
