                               Psi4 1.4a2.dev224

  ==> Input File <==

--------------------------------------------------------------------------
#Generated by lconvert.py for cbs job

memory 40 GB

molecule  {
0 1
  O       -0.5528310    -0.1016970    -0.0004990
  H       -0.8717600     0.8017920     0.0001440
  H        0.4126590    -0.0018320    -0.0002520
--
0 1
  N        2.5053930     0.1037560     0.0001760
  C        3.2013000     0.0697850     1.1449240
  H        2.6166270     0.0933960     2.0557920
  C        4.5903240     0.0046020     1.1949200
  H        5.0962300    -0.0202520     2.1492490
  C        5.3014870    -0.0285230     0.0000080
  H        6.3813270    -0.0802970    -0.0000720
  C        4.5901780     0.0045360    -1.1947930
  H        5.0959750    -0.0203370    -2.1491910
  C        3.2011480     0.0697310    -1.1446470
  H        2.6163800     0.0933310    -2.0554390
units angstrom
no_reorient
symmetry c1
}

set {
scf_type DF
mp2_type DF
e_convergence 7
reference rhf
}

energy('mp2/aug-cc-pv[tq]z', bsse_type='cp')
--------------------------------------------------------------------------

    Molecular point group: c1
  Charge       = 0
  Multiplicity = 1
  Basis Set: AUG-CC-PVTZ
    Blend: AUG-CC-PVTZ
  Basis Set: (AUG-CC-PVTZ AUX)
    Blend: AUG-CC-PVTZ-JKFIT
  @DF-RHF Final Energy:  -246.77875340055999
    Total Energy =                       -246.7787534005599923
  Basis Set: (AUG-CC-PVTZ AUX)
    Blend: AUG-CC-PVTZ-RI
	 Reference Energy          =    -246.7787534005599923 [Eh]
	 Singles Energy            =      -0.0000000000000000 [Eh]
	 Same-Spin Energy          =      -0.2687949468495433 [Eh]
	 Opposite-Spin Energy      =      -0.8387700477402277 [Eh]
	 Correlation Energy        =      -1.1075649945897710 [Eh]
	 Total Energy              =    -247.8863183951497717 [Eh]
	 SCS Total Energy          =    -247.8748757734647938 [Eh]
    Molecular point group: c1
  Basis Set: AUG-CC-PVQZ
    Blend: AUG-CC-PVQZ
  Basis Set: (AUG-CC-PVQZ AUX)
    Blend: AUG-CC-PVQZ-JKFIT
  @DF-RHF Final Energy:  -246.79290041735419
    Total Energy =                       -246.7929004173541898
  Basis Set: (AUG-CC-PVQZ AUX)
  @DF-RHF Final Energy:  -246.77883059768970
    Total Energy =                       -246.7788305976897050
  @DF-RHF Final Energy:  -246.79292124260829
    Total Energy =                       -246.7929212426082586
  @DF-RHF Final Energy:   -76.05997128493493
    Total Energy =                        -76.0599712849349316
  @DF-RHF Final Energy:   -76.06527810446815
    Total Energy =                        -76.0652781044681490
  @DF-RHF Final Energy:   -76.05989083289150
    Total Energy =                        -76.0598908328914973
  @DF-RHF Final Energy:   -76.06524945226039
    Total Energy =                        -76.0652494522604030
  Multiplicity = 1
  @DF-RHF Final Energy:  -322.84626828041149
    Total Energy =                       -322.8462682804114934
	 Singles Energy            =      -0.0000000000000000 [Eh]
	 Same-Spin Energy          =      -0.3391601184304468 [Eh]
	 Opposite-Spin Energy      =      -1.0574815905588677 [Eh]
	 Correlation Energy        =      -1.3966417089893146 [Eh]
	 Total Energy              =    -324.2429099894008004 [Eh]
	 SCS Total Energy          =    -324.2282995618922996 [Eh]
    Molecular point group: c1

    Geometry (in Angstrom), charge = 0, multiplicity = 1:

       Center              X                  Y                   Z               Mass
    ------------   -----------------  -----------------  -----------------  -----------------
         O           -3.627122071173    -0.123751148178    -0.000495495579    15.994914619570
         H           -3.946051071173     0.779737851822     0.000147504421     1.007825032230
         H           -2.661632071173    -0.023886148178    -0.000248495579     1.007825032230
         N           -0.568898071173     0.081701851822     0.000179504421    14.003074004430
         C            0.127008928827     0.047730851822     1.144927504421    12.000000000000
         H           -0.457664071173     0.071341851822     2.055795504421     1.007825032230
         C            1.516032928827    -0.017452148178     1.194923504421    12.000000000000
         H            2.021938928827    -0.042306148178     2.149252504421     1.007825032230
         C            2.227195928827    -0.050577148178     0.000011504421    12.000000000000
         H            3.307035928827    -0.102351148178    -0.000068495579     1.007825032230
         C            1.515886928827    -0.017518148178    -1.194789495579    12.000000000000
         H            2.021683928827    -0.042391148178    -2.149187495579     1.007825032230
         C            0.126856928827     0.047676851822    -1.144643495579    12.000000000000
         H           -0.457911071173     0.071276851822    -2.055435495579     1.007825032230

  Charge       = 0
  Multiplicity = 1
  Basis Set: AUG-CC-PVQZ
    Blend: AUG-CC-PVQZ
  Basis Set: (AUG-CC-PVQZ AUX)
    Blend: AUG-CC-PVQZ-JKFIT

    Orbital Energies [Eh]
    ---------------------

    Doubly Occupied:

       1A    -20.526506     2A    -15.580291     3A    -11.286938
       4A    -11.286920     5A    -11.270388     6A    -11.251478
       7A    -11.251427     8A     -1.313635     9A     -1.270795
      10A     -1.101102    11A     -1.045875    12A     -0.870980
      13A     -0.868663    14A     -0.735378    15A     -0.678484
      16A     -0.673285    17A     -0.664703    18A     -0.610483
      19A     -0.590717    20A     -0.555075    21A     -0.550990
      22A     -0.531998    23A     -0.473848    24A     -0.436729
      25A     -0.397196    26A     -0.359153

  @DF-RHF Final Energy:  -322.86568809624526

   => Energetics <=

    Nuclear Repulsion Energy =            267.5339051442464324
    One-Electron Energy =                -968.4331100788842832
    Two-Electron Energy =                 378.0335168383925861
    Total Energy =                       -322.8656880962452647

  Dipole Moment: [D]
     X:     4.3118      Y:     1.4940      Z:     0.0013     Total:     4.5632

  Basis Set: (AUG-CC-PVQZ AUX)
    Blend: AUG-CC-PVQZ-RI
	 Reference Energy          =    -322.8656880962452647 [Eh]
	 Singles Energy            =      -0.0000000000000000 [Eh]
	 Same-Spin Energy          =      -0.3588129144055475 [Eh]
	 Opposite-Spin Energy      =      -1.1890381612207748 [Eh]
	 Correlation Energy        =      -1.5478510756263222 [Eh]
	 Total Energy              =    -324.4135391718716050 [Eh]

	 ================> DF-SCS-MP2 Energies <==================
	-----------------------------------------------------------
	 SCS Same-Spin Scale       =       0.3333333333333333 [-]
	 SCS Opposite-Spin Scale   =       1.2000000000000000 [-]
	 SCS Same-Spin Energy      =      -0.1196043048018492 [Eh]
	 SCS Opposite-Spin Energy  =      -1.4268457934649297 [Eh]
	 SCS Correlation Energy    =      -1.5464500982667788 [Eh]
	 SCS Total Energy          =    -324.4121381945120675 [Eh]
	-----------------------------------------------------------

*** Psi4 exiting successfully. Buy a developer a beer!
