                               Psi4 1.4a2.dev224

  ==> Input File <==

--------------------------------------------------------------------------
#Generated by lconvert.py for cbs job

memory 40 GB

molecule  {
0 1
  O       -0.5528310    -0.1016970    -0.0004990
  H       -0.8717600     0.8017920     0.0001440
  H        0.4126590    -0.0018320    -0.0002520
--
0 1
  N        2.0070470     0.0786120     0.0000740
  C        2.7029540     0.0446410     1.1448220
  H        2.1182810     0.0682520     2.0556900
  C        4.0919780    -0.0205410     1.1948180
  H        4.5978840    -0.0453960     2.1491470
  C        4.8031410    -0.0536670    -0.0000930
  H        5.8829810    -0.1054410    -0.0001740
  C        4.0918320    -0.0206080    -1.1948950
  H        4.5976290    -0.0454810    -2.1492930
  C        2.7028020     0.0445870    -1.1447480
  H        2.1180330     0.0681880    -2.0555410
units angstrom
no_reorient
symmetry c1
}

set {
scf_type DF
mp2_type DF
e_convergence 7
reference rhf
}

energy('mp2/aug-cc-pv[tq]z', bsse_type='cp')
--------------------------------------------------------------------------

    Molecular point group: c1
  Charge       = 0
  Multiplicity = 1
  Basis Set: AUG-CC-PVTZ
    Blend: AUG-CC-PVTZ
  Basis Set: (AUG-CC-PVTZ AUX)
    Blend: AUG-CC-PVTZ-JKFIT
  @DF-RHF Final Energy:  -246.77875342790759
    Total Energy =                       -246.7787534279075885
  Basis Set: (AUG-CC-PVTZ AUX)
    Blend: AUG-CC-PVTZ-RI
	 Reference Energy          =    -246.7787534279075885 [Eh]
	 Singles Energy            =      -0.0000000000000000 [Eh]
	 Same-Spin Energy          =      -0.2687949422216903 [Eh]
	 Opposite-Spin Energy      =      -0.8387700318804194 [Eh]
	 Correlation Energy        =      -1.1075649741021096 [Eh]
	 Total Energy              =    -247.8863184020096924 [Eh]
	 SCS Total Energy          =    -247.8748757802379998 [Eh]
    Molecular point group: c1
  Basis Set: AUG-CC-PVQZ
    Blend: AUG-CC-PVQZ
  Basis Set: (AUG-CC-PVQZ AUX)
    Blend: AUG-CC-PVQZ-JKFIT
  @DF-RHF Final Energy:  -246.79290044780356
    Total Energy =                       -246.7929004478035608
  Basis Set: (AUG-CC-PVQZ AUX)
  @DF-RHF Final Energy:  -246.77887132765409
    Total Energy =                       -246.7788713276540875
  @DF-RHF Final Energy:  -246.79293311624335
    Total Energy =                       -246.7929331162433755
  @DF-RHF Final Energy:   -76.06002845345371
    Total Energy =                        -76.0600284534536968
  @DF-RHF Final Energy:   -76.06528965602367
    Total Energy =                        -76.0652896560236513
  @DF-RHF Final Energy:   -76.05989083289296
    Total Energy =                        -76.0598908328929610
  @DF-RHF Final Energy:   -76.06524945222930
    Total Energy =                        -76.0652494522292955
  Multiplicity = 1
  @DF-RHF Final Energy:  -322.83772081318426
    Total Energy =                       -322.8377208131842622
	 Singles Energy            =      -0.0000000000000000 [Eh]
	 Same-Spin Energy          =      -0.3415422099619096 [Eh]
	 Opposite-Spin Energy      =      -1.0600418064873403 [Eh]
	 Correlation Energy        =      -1.4015840164492499 [Eh]
	 Total Energy              =    -324.2393048296335110 [Eh]
	 SCS Total Energy          =    -324.2236183842896935 [Eh]
    Molecular point group: c1

    Geometry (in Angstrom), charge = 0, multiplicity = 1:

       Center              X                  Y                   Z               Mass
    ------------   -----------------  -----------------  -----------------  -----------------
         O           -3.221256609637    -0.103273379497    -0.000412671515    15.994914619570
         H           -3.540185609637     0.800215620503     0.000230328485     1.007825032230
         H           -2.255766609637    -0.003408379497    -0.000165671515     1.007825032230
         N           -0.661378609637     0.077035620503     0.000160328485    14.003074004430
         C            0.034528390363     0.043064620503     1.144908328485    12.000000000000
         H           -0.550144609637     0.066675620503     2.055776328485     1.007825032230
         C            1.423552390363    -0.022117379497     1.194904328485    12.000000000000
         H            1.929458390363    -0.046972379497     2.149233328485     1.007825032230
         C            2.134715390363    -0.055243379497    -0.000006671515    12.000000000000
         H            3.214555390363    -0.107017379497    -0.000087671515     1.007825032230
         C            1.423406390363    -0.022184379497    -1.194808671515    12.000000000000
         H            1.929203390363    -0.047057379497    -2.149206671515     1.007825032230
         C            0.034376390363     0.043010620503    -1.144661671515    12.000000000000
         H           -0.550392609637     0.066611620503    -2.055454671515     1.007825032230

  Charge       = 0
  Multiplicity = 1
  Basis Set: AUG-CC-PVQZ
    Blend: AUG-CC-PVQZ
  Basis Set: (AUG-CC-PVQZ AUX)
    Blend: AUG-CC-PVQZ-JKFIT

    Orbital Energies [Eh]
    ---------------------

    Doubly Occupied:

       1A    -20.495499     2A    -15.584831     3A    -11.293209
       4A    -11.293191     5A    -11.275915     6A    -11.256079
       7A    -11.256030     8A     -1.296886     9A     -1.275099
      10A     -1.107477    11A     -1.051372    12A     -0.877774
      13A     -0.874874    14A     -0.745714    15A     -0.679620
      16A     -0.678338    17A     -0.664625    18A     -0.615377
      19A     -0.591797    20A     -0.561982    21A     -0.537031
      22A     -0.535215    23A     -0.449529    24A     -0.433968
      25A     -0.404185    26A     -0.363939

  @DF-RHF Final Energy:  -322.85708020241185

   => Energetics <=

    Nuclear Repulsion Energy =            274.7980190935323321
    One-Electron Energy =                -982.9110653611791122
    Two-Electron Energy =                 385.2559660652348725
    Total Energy =                       -322.8570802024118507

  Dipole Moment: [D]
     X:     4.9759      Y:     1.4677      Z:     0.0014     Total:     5.1878

  Basis Set: (AUG-CC-PVQZ AUX)
    Blend: AUG-CC-PVQZ-RI
	 Reference Energy          =    -322.8570802024118507 [Eh]
	 Singles Energy            =      -0.0000000000000000 [Eh]
	 Same-Spin Energy          =      -0.3612365058814152 [Eh]
	 Opposite-Spin Energy      =      -1.1915907254339708 [Eh]
	 Correlation Energy        =      -1.5528272313153861 [Eh]
	 Total Energy              =    -324.4099074337272555 [Eh]

	 ================> DF-SCS-MP2 Energies <==================
	-----------------------------------------------------------
	 SCS Same-Spin Scale       =       0.3333333333333333 [-]
	 SCS Opposite-Spin Scale   =       1.2000000000000000 [-]
	 SCS Same-Spin Energy      =      -0.1204121686271384 [Eh]
	 SCS Opposite-Spin Energy  =      -1.4299088705207650 [Eh]
	 SCS Correlation Energy    =      -1.5503210391479034 [Eh]
	 SCS Total Energy          =    -324.4074012415597394 [Eh]
	-----------------------------------------------------------

*** Psi4 exiting successfully. Buy a developer a beer!
