                               Psi4 1.4a2.dev224

  ==> Input File <==

--------------------------------------------------------------------------
#Generated by lconvert.py for cbs job

memory 40 GB

molecule  {
0 1
  O       -0.5528310    -0.1016970    -0.0004990
  H       -0.8717600     0.8017920     0.0001440
  H        0.4126590    -0.0018320    -0.0002520
--
0 1
  N        2.3060950     0.0937000     0.0001350
  C        3.0020020     0.0597290     1.1448830
  H        2.4173290     0.0833400     2.0557510
  C        4.3910250    -0.0054530     1.1948790
  H        4.8969310    -0.0303070     2.1492080
  C        5.1021880    -0.0385790    -0.0000320
  H        6.1820280    -0.0903530    -0.0001130
  C        4.3908800    -0.0055200    -1.1948340
  H        4.8966770    -0.0303930    -2.1492320
  C        3.0018500     0.0596750    -1.1446870
  H        2.4170810     0.0832760    -2.0554800
units angstrom
no_reorient
symmetry c1
}

set {
scf_type DF
mp2_type DF
e_convergence 7
reference rhf
}

energy('mp2/aug-cc-pv[tq]z', bsse_type='cp')
--------------------------------------------------------------------------

    Molecular point group: c1
  Charge       = 0
  Multiplicity = 1
  Basis Set: AUG-CC-PVTZ
    Blend: AUG-CC-PVTZ
  Basis Set: (AUG-CC-PVTZ AUX)
    Blend: AUG-CC-PVTZ-JKFIT
  @DF-RHF Final Energy:  -246.77875346392270
    Total Energy =                       -246.7787534639227260
  Basis Set: (AUG-CC-PVTZ AUX)
    Blend: AUG-CC-PVTZ-RI
	 Reference Energy          =    -246.7787534639226976 [Eh]
	 Singles Energy            =      -0.0000000000000000 [Eh]
	 Same-Spin Energy          =      -0.2687949399931928 [Eh]
	 Opposite-Spin Energy      =      -0.8387700123437306 [Eh]
	 Correlation Energy        =      -1.1075649523369235 [Eh]
	 Total Energy              =    -247.8863184162596269 [Eh]
	 SCS Total Energy          =    -247.8748757920662342 [Eh]
    Molecular point group: c1
  Basis Set: AUG-CC-PVQZ
    Blend: AUG-CC-PVQZ
  Basis Set: (AUG-CC-PVQZ AUX)
    Blend: AUG-CC-PVQZ-JKFIT
  @DF-RHF Final Energy:  -246.79290048128598
    Total Energy =                       -246.7929004812859830
  Basis Set: (AUG-CC-PVQZ AUX)
  @DF-RHF Final Energy:  -246.77884671163616
    Total Energy =                       -246.7788467116361630
  @DF-RHF Final Energy:  -246.79292665046592
    Total Energy =                       -246.7929266504659154
  @DF-RHF Final Energy:   -76.05999258342285
    Total Energy =                        -76.0599925834228685
  @DF-RHF Final Energy:   -76.06528209504945
    Total Energy =                        -76.0652820950494544
  @DF-RHF Final Energy:   -76.05989083290784
    Total Energy =                        -76.0598908329078540
  @DF-RHF Final Energy:   -76.06524945224434
    Total Energy =                        -76.0652494522443305
  Multiplicity = 1
  @DF-RHF Final Energy:  -322.84543527168353
    Total Energy =                       -322.8454352716835274
	 Singles Energy            =      -0.0000000000000000 [Eh]
	 Same-Spin Energy          =      -0.3398974756606816 [Eh]
	 Opposite-Spin Energy      =      -1.0582898062802872 [Eh]
	 Correlation Energy        =      -1.3981872819409689 [Eh]
	 Total Energy              =    -324.2436225536245047 [Eh]
	 SCS Total Energy          =    -324.2286821977734235 [Eh]
    Molecular point group: c1

    Geometry (in Angstrom), charge = 0, multiplicity = 1:

       Center              X                  Y                   Z               Mass
    ------------   -----------------  -----------------  -----------------  -----------------
         O           -3.464808515042    -0.115561434587    -0.000462351441    15.994914619570
         H           -3.783737515042     0.787927565413     0.000180648559     1.007825032230
         H           -2.499318515042    -0.015696434587    -0.000215351441     1.007825032230
         N           -0.605882515042     0.079835565413     0.000171648559    14.003074004430
         C            0.090024484958     0.045864565413     1.144919648559    12.000000000000
         H           -0.494648515042     0.069475565413     2.055787648559     1.007825032230
         C            1.479047484958    -0.019317434587     1.194915648559    12.000000000000
         H            1.984953484958    -0.044171434587     2.149244648559     1.007825032230
         C            2.190210484958    -0.052443434587     0.000004648559    12.000000000000
         H            3.270050484958    -0.104217434587    -0.000076351441     1.007825032230
         C            1.478902484958    -0.019384434587    -1.194797351441    12.000000000000
         H            1.984699484958    -0.044257434587    -2.149195351441     1.007825032230
         C            0.089872484958     0.045810565413    -1.144650351441    12.000000000000
         H           -0.494896515042     0.069411565413    -2.055443351441     1.007825032230

  Charge       = 0
  Multiplicity = 1
  Basis Set: AUG-CC-PVQZ
    Blend: AUG-CC-PVQZ
  Basis Set: (AUG-CC-PVQZ AUX)
    Blend: AUG-CC-PVQZ-JKFIT

    Orbital Energies [Eh]
    ---------------------

    Doubly Occupied:

       1A    -20.516887     2A    -15.582113     3A    -11.288992
       4A    -11.288974     5A    -11.272190     6A    -11.252996
       7A    -11.252946     8A     -1.306757     9A     -1.273173
      10A     -1.103133    11A     -1.047678    12A     -0.873048
      13A     -0.870682    14A     -0.738290    15A     -0.675581
      16A     -0.675335    17A     -0.665301    18A     -0.612100
      19A     -0.592276    20A     -0.557312    21A     -0.544995
      22A     -0.533652    23A     -0.466005    24A     -0.437801
      25A     -0.399477    26A     -0.360731

  @DF-RHF Final Energy:  -322.86482698403978

   => Energetics <=

    Nuclear Repulsion Energy =            270.2010062168584454
    One-Electron Energy =                -973.7548146925818173
    Two-Electron Energy =                 380.6889814916835917
    Total Energy =                       -322.8648269840397802

  Dipole Moment: [D]
     X:     4.5249      Y:     1.4850      Z:     0.0014     Total:     4.7624

  Basis Set: (AUG-CC-PVQZ AUX)
    Blend: AUG-CC-PVQZ-RI
	 Reference Energy          =    -322.8648269840397802 [Eh]
	 Singles Energy            =      -0.0000000000000000 [Eh]
	 Same-Spin Energy          =      -0.3595522887206901 [Eh]
	 Opposite-Spin Energy      =      -1.1898038042756627 [Eh]
	 Correlation Energy        =      -1.5493560929963528 [Eh]
	 Total Energy              =    -324.4141830770361139 [Eh]

	 ================> DF-SCS-MP2 Energies <==================
	-----------------------------------------------------------
	 SCS Same-Spin Scale       =       0.3333333333333333 [-]
	 SCS Opposite-Spin Scale   =       1.2000000000000000 [-]
	 SCS Same-Spin Energy      =      -0.1198507629068967 [Eh]
	 SCS Opposite-Spin Energy  =      -1.4277645651307951 [Eh]
	 SCS Correlation Energy    =      -1.5476153280376919 [Eh]
	 SCS Total Energy          =    -324.4124423120774736 [Eh]
	-----------------------------------------------------------

*** Psi4 exiting successfully. Buy a developer a beer!
