                               Psi4 1.4a2.dev224

  ==> Input File <==

--------------------------------------------------------------------------
#Generated by lconvert.py for cbs job

memory 40 GB

molecule  {
0 1
  O       -0.5528310    -0.1016970    -0.0004990
  H       -0.8717600     0.8017920     0.0001440
  H        0.4126590    -0.0018320    -0.0002520
--
0 1
  N        2.6050430     0.1087830     0.0001960
  C        3.3009490     0.0748130     1.1449440
  H        2.7162770     0.0984230     2.0558120
  C        4.6899730     0.0096300     1.1949400
  H        5.1958790    -0.0152240     2.1492690
  C        5.4011360    -0.0234960     0.0000290
  H        6.4809760    -0.0752690    -0.0000520
  C        4.6898280     0.0095630    -1.1947720
  H        5.1956250    -0.0153100    -2.1491710
  C        3.3007980     0.0747580    -1.1446260
  H        2.7160290     0.0983590    -2.0554190
units angstrom
no_reorient
symmetry c1
}

set {
scf_type DF
mp2_type DF
e_convergence 7
reference rhf
}

energy('mp2/aug-cc-pv[tq]z', bsse_type='cp')
--------------------------------------------------------------------------

    Molecular point group: c1
  Charge       = 0
  Multiplicity = 1
  Basis Set: AUG-CC-PVTZ
    Blend: AUG-CC-PVTZ
  Basis Set: (AUG-CC-PVTZ AUX)
    Blend: AUG-CC-PVTZ-JKFIT
  @DF-RHF Final Energy:  -246.77875347685315
    Total Energy =                       -246.7787534768531827
  Basis Set: (AUG-CC-PVTZ AUX)
    Blend: AUG-CC-PVTZ-RI
	 Reference Energy          =    -246.7787534768531543 [Eh]
	 Singles Energy            =      -0.0000000000000000 [Eh]
	 Same-Spin Energy          =      -0.2687949388741853 [Eh]
	 Opposite-Spin Energy      =      -0.8387700025663021 [Eh]
	 Correlation Energy        =      -1.1075649414404873 [Eh]
	 Total Energy              =    -247.8863184182936550 [Eh]
	 SCS Total Energy          =    -247.8748757928907764 [Eh]
    Molecular point group: c1
  Basis Set: AUG-CC-PVQZ
    Blend: AUG-CC-PVQZ
  Basis Set: (AUG-CC-PVQZ AUX)
    Blend: AUG-CC-PVQZ-JKFIT
  @DF-RHF Final Energy:  -246.79290049982990
    Total Energy =                       -246.7929004998298979
  Basis Set: (AUG-CC-PVQZ AUX)
  @DF-RHF Final Energy:  -246.77882334705129
    Total Energy =                       -246.7788233470512864
  @DF-RHF Final Energy:  -246.79291914453842
    Total Energy =                       -246.7929191445384163
  @DF-RHF Final Energy:   -76.05996361248063
    Total Energy =                        -76.0599636124806295
  @DF-RHF Final Energy:   -76.06527620215088
    Total Energy =                        -76.0652762021508835
  @DF-RHF Final Energy:   -76.05989083289657
    Total Energy =                        -76.0598908328965706
  @DF-RHF Final Energy:   -76.06524945224206
    Total Energy =                        -76.0652494522420568
  Multiplicity = 1
  @DF-RHF Final Energy:  -322.84615519100259
    Total Energy =                       -322.8461551910025946
	 Singles Energy            =      -0.0000000000000000 [Eh]
	 Same-Spin Energy          =      -0.3388753851173202 [Eh]
	 Opposite-Spin Energy      =      -1.0571468527368426 [Eh]
	 Correlation Energy        =      -1.3960222378541629 [Eh]
	 Total Energy              =    -324.2421774288567349 [Eh]
	 SCS Total Energy          =    -324.2276898759925530 [Eh]
    Molecular point group: c1

    Geometry (in Angstrom), charge = 0, multiplicity = 1:

       Center              X                  Y                   Z               Mass
    ------------   -----------------  -----------------  -----------------  -----------------
         O           -3.708279122358    -0.127845541196    -0.000512155011    15.994914619570
         H           -4.027208122358     0.775643458804     0.000130844989     1.007825032230
         H           -2.742789122358    -0.027980541196    -0.000265155011     1.007825032230
         N           -0.550405122358     0.082634458804     0.000182844989    14.003074004430
         C            0.145500877642     0.048664458804     1.144930844989    12.000000000000
         H           -0.439171122358     0.072274458804     2.055798844989     1.007825032230
         C            1.534524877642    -0.016518541196     1.194926844989    12.000000000000
         H            2.040430877642    -0.041372541196     2.149255844989     1.007825032230
         C            2.245687877642    -0.049644541196     0.000015844989    12.000000000000
         H            3.325527877642    -0.101417541196    -0.000065155011     1.007825032230
         C            1.534379877642    -0.016585541196    -1.194785155011    12.000000000000
         H            2.040176877642    -0.041458541196    -2.149184155011     1.007825032230
         C            0.145349877642     0.048609458804    -1.144639155011    12.000000000000
         H           -0.439419122358     0.072210458804    -2.055432155011     1.007825032230

  Charge       = 0
  Multiplicity = 1
  Basis Set: AUG-CC-PVQZ
    Blend: AUG-CC-PVQZ
  Basis Set: (AUG-CC-PVQZ AUX)
    Blend: AUG-CC-PVQZ-JKFIT

    Orbital Energies [Eh]
    ---------------------

    Doubly Occupied:

       1A    -20.530325     2A    -15.579410     3A    -11.286074
       4A    -11.286056     5A    -11.269633     6A    -11.250837
       7A    -11.250786     8A     -1.316617     9A     -1.269742
      10A     -1.100266    11A     -1.045116    12A     -0.870147
      13A     -0.867818    14A     -0.734272    15A     -0.680440
      16A     -0.672429    17A     -0.664209    18A     -0.609798
      19A     -0.589831    20A     -0.554431    21A     -0.553372
      22A     -0.531299    23A     -0.477050    24A     -0.435831
      25A     -0.396243    26A     -0.358486

  @DF-RHF Final Energy:  -322.86558294090378

   => Energetics <=

    Nuclear Repulsion Energy =            266.3000293449049991
    One-Electron Energy =                -965.9701841784375347
    Two-Electron Energy =                 376.8045718926287009
    Total Energy =                       -322.8655829409037779

  Dipole Moment: [D]
     X:     4.2245      Y:     1.4979      Z:     0.0013     Total:     4.4822

  Basis Set: (AUG-CC-PVQZ AUX)
    Blend: AUG-CC-PVQZ-RI
	 Reference Energy          =    -322.8655829409037779 [Eh]
	 Singles Energy            =      -0.0000000000000000 [Eh]
	 Same-Spin Energy          =      -0.3585282902909965 [Eh]
	 Opposite-Spin Energy      =      -1.1887361282257745 [Eh]
	 Correlation Energy        =      -1.5472644185167710 [Eh]
	 Total Energy              =    -324.4128473594205389 [Eh]

	 ================> DF-SCS-MP2 Energies <==================
	-----------------------------------------------------------
	 SCS Same-Spin Scale       =       0.3333333333333333 [-]
	 SCS Opposite-Spin Scale   =       1.2000000000000000 [-]
	 SCS Same-Spin Energy      =      -0.1195094300969988 [Eh]
	 SCS Opposite-Spin Energy  =      -1.4264833538709294 [Eh]
	 SCS Correlation Energy    =      -1.5459927839679282 [Eh]
	 SCS Total Energy          =    -324.4115757248716818 [Eh]
	-----------------------------------------------------------

*** Psi4 exiting successfully. Buy a developer a beer!
