                               Psi4 1.4a2.dev224

  ==> Input File <==

--------------------------------------------------------------------------
#Generated by lconvert.py for cbs job

memory 20 GB

molecule  {
0 1
  O      -0.552830   -0.101700   -0.000500
  H      -0.871760    0.801790    0.000140
  H       0.412660   -0.001830   -0.000250
--
0 1
  N       3.601530    0.159060    0.000400
  C       4.297440    0.125090    1.145150
  H       3.712770    0.148700    2.056020
  C       5.686460    0.059910    1.195140
  H       6.192370    0.035060    2.149470
  C       6.397630    0.026780    0.000230
  H       7.477470   -0.024990    0.000150
  C       5.686320    0.059840   -1.194570
  H       6.192120    0.034970   -2.148970
  C       4.297290    0.125040   -1.144420
  H       3.712520    0.148640   -2.055210
units angstrom
no_reorient
symmetry c1
}

set {
scf_type DF
mp2_type DF
e_convergence 7
reference rhf
}

energy('mp2/aug-cc-pv[tq]z', bsse_type='cp')
--------------------------------------------------------------------------

    Molecular point group: c1
  Charge       = 0
  Multiplicity = 1
  Basis Set: AUG-CC-PVTZ
    Blend: AUG-CC-PVTZ
  Basis Set: (AUG-CC-PVTZ AUX)
    Blend: AUG-CC-PVTZ-JKFIT
  @DF-RHF Final Energy:  -246.77875322704614
    Total Energy =                       -246.7787532270461384
  Basis Set: (AUG-CC-PVTZ AUX)
    Blend: AUG-CC-PVTZ-RI
	 Reference Energy          =    -246.7787532270461384 [Eh]
	 Singles Energy            =      -0.0000000000000000 [Eh]
	 Same-Spin Energy          =      -0.2687949845935230 [Eh]
	 Opposite-Spin Energy      =      -0.8387701697112334 [Eh]
	 Correlation Energy        =      -1.1075651543047564 [Eh]
	 Total Energy              =    -247.8863183813508897 [Eh]
	 SCS Total Energy          =    -247.8748757588974456 [Eh]
    Molecular point group: c1
  Basis Set: AUG-CC-PVQZ
    Blend: AUG-CC-PVQZ
  Basis Set: (AUG-CC-PVQZ AUX)
    Blend: AUG-CC-PVQZ-JKFIT
  @DF-RHF Final Energy:  -246.79290023636608
    Total Energy =                       -246.7929002363661084
  Basis Set: (AUG-CC-PVQZ AUX)
  @DF-RHF Final Energy:  -246.77877695292767
    Total Energy =                       -246.7787769529276716
  @DF-RHF Final Energy:  -246.79290643723306
    Total Energy =                       -246.7929064372330572
  @DF-RHF Final Energy:   -76.05991561289090
    Total Energy =                        -76.0599156128909044
  @DF-RHF Final Energy:   -76.06526060412131
    Total Energy =                        -76.0652606041213062
  @DF-RHF Final Energy:   -76.05989073482630
    Total Energy =                        -76.0598907348262969
  @DF-RHF Final Energy:   -76.06524934993584
    Total Energy =                        -76.0652493499358400
  Multiplicity = 1
  @DF-RHF Final Energy:  -322.84212159221909
    Total Energy =                       -322.8421215922190868
	 Singles Energy            =      -0.0000000000000000 [Eh]
	 Same-Spin Energy          =      -0.3376211506860123 [Eh]
	 Opposite-Spin Energy      =      -1.0552011262797611 [Eh]
	 Correlation Energy        =      -1.3928222769657734 [Eh]
	 Total Energy              =    -324.2349438691848604 [Eh]
	 SCS Total Energy          =    -324.2209033273168188 [Eh]
    Molecular point group: c1

    Geometry (in Angstrom), charge = 0, multiplicity = 1:

       Center              X                  Y                   Z               Mass
    ------------   -----------------  -----------------  -----------------  -----------------
         O           -4.519845140394    -0.168795925179    -0.000678504304    15.994914619570
         H           -4.838775140394     0.734694074821    -0.000038504304     1.007825032230
         H           -3.554355140394    -0.068925925179    -0.000428504304     1.007825032230
         N           -0.365485140394     0.091964074821     0.000221495696    14.003074004430
         C            0.330424859606     0.057994074821     1.144971495696    12.000000000000
         H           -0.254245140394     0.081604074821     2.055841495696     1.007825032230
         C            1.719444859606    -0.007185925179     1.194961495696    12.000000000000
         H            2.225354859606    -0.032035925179     2.149291495696     1.007825032230
         C            2.430614859606    -0.040315925179     0.000051495696    12.000000000000
         H            3.510454859606    -0.092085925179    -0.000028504304     1.007825032230
         C            1.719304859606    -0.007255925179    -1.194748504304    12.000000000000
         H            2.225104859606    -0.032125925179    -2.149148504304     1.007825032230
         C            0.330274859606     0.057944074821    -1.144598504304    12.000000000000
         H           -0.254495140394     0.081544074821    -2.055388504304     1.007825032230

  Charge       = 0
  Multiplicity = 1
  Basis Set: AUG-CC-PVQZ
    Blend: AUG-CC-PVQZ
  Basis Set: (AUG-CC-PVQZ AUX)
    Blend: AUG-CC-PVQZ-JKFIT

    Orbital Energies [Eh]
    ---------------------

    Doubly Occupied:

       1A    -20.549852     2A    -15.572739     3A    -11.280806
       4A    -11.280789     5A    -11.265098     6A    -11.246872
       7A    -11.246819     8A     -1.333737     9A     -1.263364
      10A     -1.095369    11A     -1.040466    12A     -0.865397
      13A     -0.862695    14A     -0.728702    15A     -0.695665
      16A     -0.667270    17A     -0.660363    18A     -0.605549
      19A     -0.583767    20A     -0.569876    21A     -0.548349
      22A     -0.526972    23A     -0.494332    24A     -0.427668
      25A     -0.390557    26A     -0.354362

  @DF-RHF Final Energy:  -322.86158976064746

   => Energetics <=

    Nuclear Repulsion Energy =            256.6295631031169933
    One-Electron Energy =                -946.6674141621539320
    Two-Electron Energy =                 367.1762612983894769
    Total Energy =                       -322.8615897606474618

  Dipole Moment: [D]
     X:     3.7457      Y:     1.5261      Z:     0.0013     Total:     4.0447

  Basis Set: (AUG-CC-PVQZ AUX)
    Blend: AUG-CC-PVQZ-RI
	 Reference Energy          =    -322.8615897606474618 [Eh]
	 Singles Energy            =      -0.0000000000000000 [Eh]
	 Same-Spin Energy          =      -0.3572969384282821 [Eh]
	 Opposite-Spin Energy      =      -1.1873110938042473 [Eh]
	 Correlation Energy        =      -1.5446080322325293 [Eh]
	 Total Energy              =    -324.4061977928799934 [Eh]

	 ================> DF-SCS-MP2 Energies <==================
	-----------------------------------------------------------
	 SCS Same-Spin Scale       =       0.3333333333333333 [-]
	 SCS Opposite-Spin Scale   =       1.2000000000000000 [-]
	 SCS Same-Spin Energy      =      -0.1190989794760940 [Eh]
	 SCS Opposite-Spin Energy  =      -1.4247733125650968 [Eh]
	 SCS Correlation Energy    =      -1.5438722920411907 [Eh]
	 SCS Total Energy          =    -324.4054620526886765 [Eh]
	-----------------------------------------------------------

*** Psi4 exiting successfully. Buy a developer a beer!
