                               Psi4 1.4a2.dev224

  ==> Input File <==

--------------------------------------------------------------------------
#Generated by lconvert.py for cbs job

memory 40 GB

molecule  {
0 1
  O       -0.5528310    -0.1016970    -0.0004990
  H       -0.8717600     0.8017920     0.0001440
  H        0.4126590    -0.0018320    -0.0002520
--
0 1
  N        2.2064460     0.0886720     0.0001150
  C        2.9023520     0.0547020     1.1448620
  H        2.3176800     0.0783120     2.0557300
  C        4.2913760    -0.0104810     1.1948590
  H        4.7972820    -0.0353350     2.1491880
  C        5.0025390    -0.0436070    -0.0000530
  H        6.0823790    -0.0953800    -0.0001330
  C        4.2912310    -0.0105480    -1.1948540
  H        4.7970280    -0.0354210    -2.1492530
  C        2.9022010     0.0546470    -1.1447080
  H        2.3174320     0.0782480    -2.0555000
units angstrom
no_reorient
symmetry c1
}

set {
scf_type DF
mp2_type DF
e_convergence 7
reference rhf
}

energy('mp2/aug-cc-pv[tq]z', bsse_type='cp')
--------------------------------------------------------------------------

    Molecular point group: c1
  Charge       = 0
  Multiplicity = 1
  Basis Set: AUG-CC-PVTZ
    Blend: AUG-CC-PVTZ
  Basis Set: (AUG-CC-PVTZ AUX)
    Blend: AUG-CC-PVTZ-JKFIT
  @DF-RHF Final Energy:  -246.77875347325690
    Total Energy =                       -246.7787534732568702
  Basis Set: (AUG-CC-PVTZ AUX)
    Blend: AUG-CC-PVTZ-RI
	 Reference Energy          =    -246.7787534732568986 [Eh]
	 Singles Energy            =      -0.0000000000000000 [Eh]
	 Same-Spin Energy          =      -0.2687949357025103 [Eh]
	 Opposite-Spin Energy      =      -0.8387700034731029 [Eh]
	 Correlation Energy        =      -1.1075649391756133 [Eh]
	 Total Energy              =    -247.8863184124325016 [Eh]
	 SCS Total Energy          =    -247.8748757893254719 [Eh]
    Molecular point group: c1
  Basis Set: AUG-CC-PVQZ
    Blend: AUG-CC-PVQZ
  Basis Set: (AUG-CC-PVQZ AUX)
    Blend: AUG-CC-PVQZ-JKFIT
  @DF-RHF Final Energy:  -246.79290049493000
    Total Energy =                       -246.7929004949299951
  Basis Set: (AUG-CC-PVQZ AUX)
  @DF-RHF Final Energy:  -246.77885436430861
    Total Energy =                       -246.7788543643085859
  @DF-RHF Final Energy:  -246.79292905828240
    Total Energy =                       -246.7929290582824251
  @DF-RHF Final Energy:   -76.06000485878768
    Total Energy =                        -76.0600048587876643
  @DF-RHF Final Energy:   -76.06528436220933
    Total Energy =                        -76.0652843622093258
  @DF-RHF Final Energy:   -76.05989083289248
    Total Energy =                        -76.0598908328924779
  @DF-RHF Final Energy:   -76.06524945223174
    Total Energy =                        -76.0652494522317397
  Multiplicity = 1
  @DF-RHF Final Energy:  -322.84407872266064
    Total Energy =                       -322.8440787226606403
	 Singles Energy            =      -0.0000000000000000 [Eh]
	 Same-Spin Energy          =      -0.3403656408503792 [Eh]
	 Opposite-Spin Energy      =      -1.0587853367815978 [Eh]
	 Correlation Energy        =      -1.3991509776319770 [Eh]
	 Total Energy              =    -324.2432297002926020 [Eh]
	 SCS Total Energy          =    -324.2280763404153276 [Eh]
    Molecular point group: c1

    Geometry (in Angstrom), charge = 0, multiplicity = 1:

       Center              X                  Y                   Z               Mass
    ------------   -----------------  -----------------  -----------------  -----------------
         O           -3.383651752553    -0.111466639614    -0.000445671240    15.994914619570
         H           -3.702580752553     0.792022360386     0.000197328760     1.007825032230
         H           -2.418161752553    -0.011601639614    -0.000198671240     1.007825032230
         N           -0.624374752553     0.078902360386     0.000168328760    14.003074004430
         C            0.071531247447     0.044932360386     1.144915328760    12.000000000000
         H           -0.513140752553     0.068542360386     2.055783328760     1.007825032230
         C            1.460555247447    -0.020250639614     1.194912328760    12.000000000000
         H            1.966461247447    -0.045104639614     2.149241328760     1.007825032230
         C            2.171718247447    -0.053376639614     0.000000328760    12.000000000000
         H            3.251558247447    -0.105149639614    -0.000079671240     1.007825032230
         C            1.460410247447    -0.020317639614    -1.194800671240    12.000000000000
         H            1.966207247447    -0.045190639614    -2.149199671240     1.007825032230
         C            0.071380247447     0.044877360386    -1.144654671240    12.000000000000
         H           -0.513388752553     0.068478360386    -2.055446671240     1.007825032230

  Charge       = 0
  Multiplicity = 1
  Basis Set: AUG-CC-PVQZ
    Blend: AUG-CC-PVQZ
  Basis Set: (AUG-CC-PVQZ AUX)
    Blend: AUG-CC-PVQZ-JKFIT

    Orbital Energies [Eh]
    ---------------------

    Doubly Occupied:

       1A    -20.510837     2A    -15.583035     3A    -11.290222
       4A    -11.290204     5A    -11.273273     6A    -11.253900
       7A    -11.253850     8A     -1.303011     9A     -1.274371
      10A     -1.104377    11A     -1.048755    12A     -0.874353
      13A     -0.871897    14A     -0.740240    15A     -0.676573
      16A     -0.675325    17A     -0.665157    18A     -0.613061
      19A     -0.592695    20A     -0.558676    21A     -0.541742
      22A     -0.534639    23A     -0.461220    24A     -0.437580
      25A     -0.400849    26A     -0.361671

  @DF-RHF Final Energy:  -322.86345448925238

   => Energetics <=

    Nuclear Repulsion Energy =            271.6461442852398704
    One-Electron Energy =                -976.6361644716881756
    Two-Electron Energy =                 382.1265656971959288
    Total Energy =                       -322.8634544892523763

  Dipole Moment: [D]
     X:     4.6552      Y:     1.4798      Z:     0.0014     Total:     4.8848

  Basis Set: (AUG-CC-PVQZ AUX)
    Blend: AUG-CC-PVQZ-RI
	 Reference Energy          =    -322.8634544892523763 [Eh]
	 Singles Energy            =      -0.0000000000000000 [Eh]
	 Same-Spin Energy          =      -0.3600268389541230 [Eh]
	 Opposite-Spin Energy      =      -1.1902966037991802 [Eh]
	 Correlation Energy        =      -1.5503234427533032 [Eh]
	 Total Energy              =    -324.4137779320057007 [Eh]

	 ================> DF-SCS-MP2 Energies <==================
	-----------------------------------------------------------
	 SCS Same-Spin Scale       =       0.3333333333333333 [-]
	 SCS Opposite-Spin Scale   =       1.2000000000000000 [-]
	 SCS Same-Spin Energy      =      -0.1200089463180410 [Eh]
	 SCS Opposite-Spin Energy  =      -1.4283559245590163 [Eh]
	 SCS Correlation Energy    =      -1.5483648708770572 [Eh]
	 SCS Total Energy          =    -324.4118193601294138 [Eh]
	-----------------------------------------------------------

*** Psi4 exiting successfully. Buy a developer a beer!
