                               Psi4 1.4a2.dev224

  ==> Input File <==

--------------------------------------------------------------------------
#Generated by lconvert.py for cbs job

memory 20 GB

molecule  {
0 1
  O      -0.627650    0.087470    0.001470
  H       0.343600    0.122300   -0.000600
  C      -0.977930   -1.278560    0.001240
  H      -2.063390   -1.342040    0.005010
  H      -0.614880   -1.806380   -0.885380
  H      -0.608640   -1.808240    0.884170
--
0 1
  N       3.463470   -0.048950   -0.002260
  C       4.159840   -0.073390   -1.146980
  H       3.575360   -0.050160   -2.057960
  C       5.549470   -0.123130   -1.195670
  H       6.056820   -0.140420   -2.149450
  C       6.259850   -0.148840   -0.000050
  H       7.340180   -0.186610    0.000800
  C       5.547600   -0.123820    1.194490
  H       6.053400   -0.141640    2.148970
  C       4.158050   -0.074070    1.143530
  H       3.572040   -0.051400    2.053650
units angstrom
no_reorient
symmetry c1
}

set {
scf_type DF
mp2_type DF
e_convergence 7
reference rhf
}

energy('mp2/aug-cc-pv[tq]z', bsse_type='cp')
--------------------------------------------------------------------------

    Molecular point group: c1
  Charge       = 0
  Multiplicity = 1
  Basis Set: AUG-CC-PVTZ
    Blend: AUG-CC-PVTZ
  Basis Set: (AUG-CC-PVTZ AUX)
    Blend: AUG-CC-PVTZ-JKFIT
  @DF-RHF Final Energy:  -246.77874975409739
    Total Energy =                       -246.7787497540974186
  Basis Set: (AUG-CC-PVTZ AUX)
    Blend: AUG-CC-PVTZ-RI
	 Reference Energy          =    -246.7787497540973902 [Eh]
	 Singles Energy            =      -0.0000000000000000 [Eh]
	 Same-Spin Energy          =      -0.2687957618667974 [Eh]
	 Opposite-Spin Energy      =      -0.8387689232412805 [Eh]
	 Correlation Energy        =      -1.1075646851080778 [Eh]
	 Total Energy              =    -247.8863144392054778 [Eh]
	 SCS Total Energy          =    -247.8748710492758676 [Eh]
    Molecular point group: c1
  Basis Set: AUG-CC-PVQZ
    Blend: AUG-CC-PVQZ
  Basis Set: (AUG-CC-PVQZ AUX)
    Blend: AUG-CC-PVQZ-JKFIT
  @DF-RHF Final Energy:  -246.79289705393188
    Total Energy =                       -246.7928970539318811
  Basis Set: (AUG-CC-PVQZ AUX)
  @DF-RHF Final Energy:  -246.77878417830058
    Total Energy =                       -246.7787841783006115
  @DF-RHF Final Energy:  -246.79290594534373
    Total Energy =                       -246.7929059453437048
  @DF-RHF Final Energy:  -115.09137742205064
    Total Energy =                       -115.0913774220506411
  @DF-RHF Final Energy:  -115.09886260981978
    Total Energy =                       -115.0988626098197756
  @DF-RHF Final Energy:  -115.09134063714347
    Total Energy =                       -115.0913406371434746
  @DF-RHF Final Energy:  -115.09884762517420
    Total Energy =                       -115.0988476251742014
  Multiplicity = 1
  @DF-RHF Final Energy:  -361.87376834492551
    Total Energy =                       -361.8737683449255087
	 Singles Energy            =      -0.0000000000000000 [Eh]
	 Same-Spin Energy          =      -0.3752240488826023 [Eh]
	 Opposite-Spin Energy      =      -1.2048461509128061 [Eh]
	 Correlation Energy        =      -1.5800701997954083 [Eh]
	 Total Energy              =    -363.4538385447208952 [Eh]
	 SCS Total Energy          =    -363.4446584089817520 [Eh]
    Molecular point group: c1

    Geometry (in Angstrom), charge = 0, multiplicity = 1:

       Center              X                  Y                   Z               Mass
    ------------   -----------------  -----------------  -----------------  -----------------
         O           -3.856850391619     0.326916800800     0.001922069160    15.994914619570
         H           -2.885600391619     0.361746800800    -0.000147930840     1.007825032230
         C           -4.207130391619    -1.039113199200     0.001692069160    12.000000000000
         H           -5.292590391619    -1.102593199200     0.005462069160     1.007825032230
         H           -3.844080391619    -1.566933199200    -0.884927930840     1.007825032230
         H           -3.837840391619    -1.568793199200     0.884622069160     1.007825032230
         N            0.234269608381     0.190496800800    -0.001807930840    14.003074004430
         C            0.930639608381     0.166056800800    -1.146527930840    12.000000000000
         H            0.346159608381     0.189286800800    -2.057507930840     1.007825032230
         C            2.320269608381     0.116316800800    -1.195217930840    12.000000000000
         H            2.827619608381     0.099026800800    -2.148997930840     1.007825032230
         C            3.030649608381     0.090606800800     0.000402069160    12.000000000000
         H            4.110979608381     0.052836800800     0.001252069160     1.007825032230
         C            2.318399608381     0.115626800800     1.194942069160    12.000000000000
         H            2.824199608381     0.097806800800     2.149422069160     1.007825032230
         C            0.928849608381     0.165376800800     1.143982069160    12.000000000000
         H            0.342839608381     0.188046800800     2.054102069160     1.007825032230

  Charge       = 0
  Multiplicity = 1
  Basis Set: AUG-CC-PVQZ
    Blend: AUG-CC-PVQZ
  Basis Set: (AUG-CC-PVQZ AUX)
    Blend: AUG-CC-PVQZ-JKFIT

    Orbital Energies [Eh]
    ---------------------

    Doubly Occupied:

       1A    -20.543302     2A    -15.573368     3A    -11.281422
       4A    -11.281404     5A    -11.265605     6A    -11.257481
       7A    -11.247414     8A    -11.247361     9A     -1.344316
      10A     -1.263953    11A     -1.095837    12A     -1.041108
      13A     -0.911290    14A     -0.865918    15A     -0.863309
      16A     -0.729277    17A     -0.677379    18A     -0.667848
      19A     -0.660920    20A     -0.607923    21A     -0.606223
      22A     -0.584185    23A     -0.582392    24A     -0.548945
      25A     -0.527599    26A     -0.491130    27A     -0.436916
      28A     -0.428216    29A     -0.391080    30A     -0.354961

  @DF-RHF Final Energy:  -361.89537146300916

   => Energetics <=

    Nuclear Repulsion Energy =            318.0978373035090954
    One-Electron Energy =               -1121.2302378657875579
    Two-Electron Energy =                 441.2370290992693072
    Total Energy =                       -361.8953714630091554

  Dipole Moment: [D]
     X:     3.8881      Y:    -1.4011      Z:    -0.0017     Total:     4.1329

  Basis Set: (AUG-CC-PVQZ AUX)
    Blend: AUG-CC-PVQZ-RI
	 Reference Energy          =    -361.8953714630091554 [Eh]
	 Singles Energy            =      -0.0000000000000000 [Eh]
	 Same-Spin Energy          =      -0.3972970183995936 [Eh]
	 Opposite-Spin Energy      =      -1.3538255969077810 [Eh]
	 Correlation Energy        =      -1.7511226153073747 [Eh]
	 Total Energy              =    -363.6464940783165503 [Eh]

	 ================> DF-SCS-MP2 Energies <==================
	-----------------------------------------------------------
	 SCS Same-Spin Scale       =       0.3333333333333333 [-]
	 SCS Opposite-Spin Scale   =       1.2000000000000000 [-]
	 SCS Same-Spin Energy      =      -0.1324323394665312 [Eh]
	 SCS Opposite-Spin Energy  =      -1.6245907162893372 [Eh]
	 SCS Correlation Energy    =      -1.7570230557558684 [Eh]
	 SCS Total Energy          =    -363.6523945187650497 [Eh]
	-----------------------------------------------------------

*** Psi4 exiting successfully. Buy a developer a beer!
