                               Psi4 1.4a2.dev224

  ==> Input File <==

--------------------------------------------------------------------------
#Generated by lconvert.py for cbs job

memory 20 GB

molecule  {
0 1
  O      -0.627650    0.087470    0.001470
  H       0.343600    0.122300   -0.000600
  C      -0.977930   -1.278560    0.001240
  H      -2.063390   -1.342040    0.005010
  H      -0.614880   -1.806380   -0.885380
  H      -0.608640   -1.808240    0.884170
--
0 1
  N       2.878510   -0.016840   -0.001950
  C       3.574880   -0.041280   -1.146670
  H       2.990400   -0.018050   -2.057640
  C       4.964520   -0.091020   -1.195350
  H       5.471870   -0.108310   -2.149140
  C       5.674890   -0.116730    0.000260
  H       6.755230   -0.154500    0.001110
  C       4.962640   -0.091710    1.194800
  H       5.468440   -0.109540    2.149280
  C       3.573090   -0.041960    1.143840
  H       2.987080   -0.019290    2.053960
units angstrom
no_reorient
symmetry c1
}

set {
scf_type DF
mp2_type DF
e_convergence 7
reference rhf
}

energy('mp2/aug-cc-pv[tq]z', bsse_type='cp')
--------------------------------------------------------------------------

    Molecular point group: c1
  Charge       = 0
  Multiplicity = 1
  Basis Set: AUG-CC-PVTZ
    Blend: AUG-CC-PVTZ
  Basis Set: (AUG-CC-PVTZ AUX)
    Blend: AUG-CC-PVTZ-JKFIT
  @DF-RHF Final Energy:  -246.77874971809734
    Total Energy =                       -246.7787497180973446
  Basis Set: (AUG-CC-PVTZ AUX)
    Blend: AUG-CC-PVTZ-RI
	 Reference Energy          =    -246.7787497180973446 [Eh]
	 Singles Energy            =      -0.0000000000000000 [Eh]
	 Same-Spin Energy          =      -0.2687957874015734 [Eh]
	 Opposite-Spin Energy      =      -0.8387689510323924 [Eh]
	 Correlation Energy        =      -1.1075647384339657 [Eh]
	 Total Energy              =    -247.8863144565313235 [Eh]
	 SCS Total Energy          =    -247.8748710551367367 [Eh]
    Molecular point group: c1
  Basis Set: AUG-CC-PVQZ
    Blend: AUG-CC-PVQZ
  Basis Set: (AUG-CC-PVQZ AUX)
    Blend: AUG-CC-PVQZ-JKFIT
  @DF-RHF Final Energy:  -246.79289701698085
    Total Energy =                       -246.7928970169808167
  Basis Set: (AUG-CC-PVQZ AUX)
  @DF-RHF Final Energy:  -246.77881524766647
    Total Energy =                       -246.7788152476665005
  @DF-RHF Final Energy:  -246.79291349347670
    Total Energy =                       -246.7929134934767035
  @DF-RHF Final Energy:  -115.09140561747924
    Total Energy =                       -115.0914056174792393
  @DF-RHF Final Energy:  -115.09887114675576
    Total Energy =                       -115.0988711467557550
  @DF-RHF Final Energy:  -115.09134063715234
    Total Energy =                       -115.0913406371523422
  @DF-RHF Final Energy:  -115.09884762511936
    Total Energy =                       -115.0988476251193617
  Multiplicity = 1
  @DF-RHF Final Energy:  -361.87619626284283
    Total Energy =                       -361.8761962628428250
	 Singles Energy            =      -0.0000000000000000 [Eh]
	 Same-Spin Energy          =      -0.3759138282105166 [Eh]
	 Opposite-Spin Energy      =      -1.2059933412555752 [Eh]
	 Correlation Energy        =      -1.5819071694660918 [Eh]
	 Total Energy              =    -363.4581034323089170 [Eh]
	 SCS Total Energy          =    -363.4486928817530043 [Eh]
    Molecular point group: c1

    Geometry (in Angstrom), charge = 0, multiplicity = 1:

       Center              X                  Y                   Z               Mass
    ------------   -----------------  -----------------  -----------------  -----------------
         O           -3.440562960854     0.304065705268     0.001700285494    15.994914619570
         H           -2.469312960854     0.338895705268    -0.000369714506     1.007825032230
         C           -3.790842960854    -1.061964294732     0.001470285494    12.000000000000
         H           -4.876302960854    -1.125444294732     0.005240285494     1.007825032230
         H           -3.427792960854    -1.589784294732    -0.885149714506     1.007825032230
         H           -3.421552960854    -1.591644294732     0.884400285494     1.007825032230
         N            0.065597039146     0.199755705268    -0.001719714506    14.003074004430
         C            0.761967039146     0.175315705268    -1.146439714506    12.000000000000
         H            0.177487039146     0.198545705268    -2.057409714506     1.007825032230
         C            2.151607039146     0.125575705268    -1.195119714506    12.000000000000
         H            2.658957039146     0.108285705268    -2.148909714506     1.007825032230
         C            2.861977039146     0.099865705268     0.000490285494    12.000000000000
         H            3.942317039146     0.062095705268     0.001340285494     1.007825032230
         C            2.149727039146     0.124885705268     1.195030285494    12.000000000000
         H            2.655527039146     0.107055705268     2.149510285494     1.007825032230
         C            0.760177039146     0.174635705268     1.144070285494    12.000000000000
         H            0.174167039146     0.197305705268     2.054190285494     1.007825032230

  Charge       = 0
  Multiplicity = 1
  Basis Set: AUG-CC-PVQZ
    Blend: AUG-CC-PVQZ
  Basis Set: (AUG-CC-PVQZ AUX)
    Blend: AUG-CC-PVQZ-JKFIT

    Orbital Energies [Eh]
    ---------------------

    Doubly Occupied:

       1A    -20.534871     2A    -15.577147     3A    -11.284271
       4A    -11.284253     5A    -11.268042     6A    -11.253046
       7A    -11.249598     8A    -11.249546     9A     -1.336950
      10A     -1.267344    11A     -1.098450    12A     -1.043643
      13A     -0.906279    14A     -0.868434    15A     -0.866081
      16A     -0.732048    17A     -0.671582    18A     -0.670626
      19A     -0.663051    20A     -0.608597    21A     -0.602545
      22A     -0.586977    23A     -0.576320    24A     -0.551970
      25A     -0.529976    26A     -0.486059    27A     -0.432444
      28A     -0.430514    29A     -0.394099    30A     -0.357232

  @DF-RHF Final Energy:  -361.89776727095347

   => Energetics <=

    Nuclear Repulsion Energy =            326.4523790269867618
    One-Electron Energy =               -1137.9362899205511894
    Two-Electron Energy =                 449.5861436226109049
    Total Energy =                       -361.8977672709534659

  Dipole Moment: [D]
     X:     4.1411      Y:    -1.3518      Z:    -0.0018     Total:     4.3561

  Basis Set: (AUG-CC-PVQZ AUX)
    Blend: AUG-CC-PVQZ-RI
	 Reference Energy          =    -361.8977672709534659 [Eh]
	 Singles Energy            =      -0.0000000000000000 [Eh]
	 Same-Spin Energy          =      -0.3979545012170074 [Eh]
	 Opposite-Spin Energy      =      -1.3545966938320961 [Eh]
	 Correlation Energy        =      -1.7525511950491035 [Eh]
	 Total Energy              =    -363.6503184660025454 [Eh]

	 ================> DF-SCS-MP2 Energies <==================
	-----------------------------------------------------------
	 SCS Same-Spin Scale       =       0.3333333333333333 [-]
	 SCS Opposite-Spin Scale   =       1.2000000000000000 [-]
	 SCS Same-Spin Energy      =      -0.1326515004056691 [Eh]
	 SCS Opposite-Spin Energy  =      -1.6255160325985154 [Eh]
	 SCS Correlation Energy    =      -1.7581675330041846 [Eh]
	 SCS Total Energy          =    -363.6559348039576776 [Eh]
	-----------------------------------------------------------

*** Psi4 exiting successfully. Buy a developer a beer!
