                               Psi4 1.4a2.dev224

  ==> Input File <==

--------------------------------------------------------------------------
#Generated by lconvert.py for cbs job

memory 40 GB

molecule  {
0 1
  O       -0.6276520     0.0874670     0.0014710
  H        0.3436020     0.1223030    -0.0006000
  C       -0.9779310    -1.2785560     0.0012380
  H       -2.0633920    -1.3420430     0.0050090
  H       -0.6148840    -1.8063760    -0.8853840
  H       -0.6086400    -1.8082370     0.8841730
--
0 1
  N        2.1960640     0.0206190    -0.0015860
  C        2.8924330    -0.0038160    -1.1463060
  H        2.3079540     0.0194070    -2.0572810
  C        4.2820700    -0.0535590    -1.1949910
  H        4.7894220    -0.0708510    -2.1487740
  C        4.9924430    -0.0792720     0.0006220
  H        6.0727790    -0.1170370     0.0014710
  C        4.2801950    -0.0542510     1.1951620
  H        4.7859940    -0.0720750     2.1496470
  C        2.8906420    -0.0045010     1.1442080
  H        2.3046360     0.0181730     2.0543260
units angstrom
no_reorient
symmetry c1
}

set {
scf_type DF
mp2_type DF
e_convergence 7
reference rhf
}

energy('mp2/aug-cc-pv[tq]z', bsse_type='cp')
--------------------------------------------------------------------------

    Molecular point group: c1
  Charge       = 0
  Multiplicity = 1
  Basis Set: AUG-CC-PVTZ
    Blend: AUG-CC-PVTZ
  Basis Set: (AUG-CC-PVTZ AUX)
    Blend: AUG-CC-PVTZ-JKFIT
  @DF-RHF Final Energy:  -246.77874961606528
    Total Energy =                       -246.7787496160652836
  Basis Set: (AUG-CC-PVTZ AUX)
    Blend: AUG-CC-PVTZ-RI
	 Reference Energy          =    -246.7787496160652836 [Eh]
	 Singles Energy            =      -0.0000000000000000 [Eh]
	 Same-Spin Energy          =      -0.2687957947623287 [Eh]
	 Opposite-Spin Energy      =      -0.8387690022431733 [Eh]
	 Correlation Energy        =      -1.1075647970055020 [Eh]
	 Total Energy              =    -247.8863144130707781 [Eh]
	 SCS Total Energy          =    -247.8748710170112020 [Eh]
    Molecular point group: c1
  Basis Set: AUG-CC-PVQZ
    Blend: AUG-CC-PVQZ
  Basis Set: (AUG-CC-PVQZ AUX)
    Blend: AUG-CC-PVQZ-JKFIT
  @DF-RHF Final Energy:  -246.79289691405239
    Total Energy =                       -246.7928969140523918
  Basis Set: (AUG-CC-PVQZ AUX)
  @DF-RHF Final Energy:  -246.77886712840800
    Total Energy =                       -246.7788671284080237
  @DF-RHF Final Energy:  -246.79293118747907
    Total Energy =                       -246.7929311874790983
  @DF-RHF Final Energy:  -115.09145990528414
    Total Energy =                       -115.0914599052841396
  @DF-RHF Final Energy:  -115.09888561731719
    Total Energy =                       -115.0988856173171939
  @DF-RHF Final Energy:  -115.09134047149615
    Total Energy =                       -115.0913404714961530
  @DF-RHF Final Energy:  -115.09884745849691
    Total Energy =                       -115.0988474584969055
  Multiplicity = 1
  @DF-RHF Final Energy:  -361.87629341555555
    Total Energy =                       -361.8762934155555513
	 Singles Energy            =      -0.0000000000000000 [Eh]
	 Same-Spin Energy          =      -0.3782048888971489 [Eh]
	 Opposite-Spin Energy      =      -1.2087508155237772 [Eh]
	 Correlation Energy        =      -1.5869557044209261 [Eh]
	 Total Energy              =    -363.4632491199764672 [Eh]
	 SCS Total Energy          =    -363.4528626904831299 [Eh]
    Molecular point group: c1

    Geometry (in Angstrom), charge = 0, multiplicity = 1:

       Center              X                  Y                   Z               Mass
    ------------   -----------------  -----------------  -----------------  -----------------
         O           -2.954898804194     0.277404064903     0.001442883209    15.994914619570
         H           -1.983644804194     0.312240064903    -0.000628116791     1.007825032230
         C           -3.305177804194    -1.088618935097     0.001209883209    12.000000000000
         H           -4.390638804194    -1.152105935097     0.004980883209     1.007825032230
         H           -2.942130804194    -1.616438935097    -0.885412116791     1.007825032230
         H           -2.935886804194    -1.618299935097     0.884144883209     1.007825032230
         N           -0.131182804194     0.210556064903    -0.001614116791    14.003074004430
         C            0.565186195806     0.186121064903    -1.146334116791    12.000000000000
         H           -0.019292804194     0.209344064903    -2.057309116791     1.007825032230
         C            1.954823195806     0.136378064903    -1.195019116791    12.000000000000
         H            2.462175195806     0.119086064903    -2.148802116791     1.007825032230
         C            2.665196195806     0.110665064903     0.000593883209    12.000000000000
         H            3.745532195806     0.072900064903     0.001442883209     1.007825032230
         C            1.952948195806     0.135686064903     1.195133883209    12.000000000000
         H            2.458747195806     0.117862064903     2.149618883209     1.007825032230
         C            0.563395195806     0.185436064903     1.144179883209    12.000000000000
         H           -0.022610804194     0.208110064903     2.054297883209     1.007825032230

  Charge       = 0
  Multiplicity = 1
  Basis Set: AUG-CC-PVQZ
    Blend: AUG-CC-PVQZ
  Basis Set: (AUG-CC-PVQZ AUX)
    Blend: AUG-CC-PVQZ-JKFIT

    Orbital Energies [Eh]
    ---------------------

    Doubly Occupied:

       1A    -20.511184     2A    -15.583547     3A    -11.290495
       4A    -11.290477     5A    -11.273444     6A    -11.254263
       7A    -11.254213     8A    -11.243219     9A     -1.319831
      10A     -1.274906    11A     -1.104462    12A     -1.049136
      13A     -0.895919    14A     -0.874109    15A     -0.872183
      16A     -0.739586    17A     -0.676793    18A     -0.670293
      19A     -0.662172    20A     -0.613616    21A     -0.590805
      22A     -0.590336    23A     -0.563427    24A     -0.557112
      25A     -0.535055    26A     -0.481561    27A     -0.432374
      28A     -0.414514    29A     -0.400865    30A     -0.362076

  @DF-RHF Final Energy:  -361.89780826011241

   => Energetics <=

    Nuclear Repulsion Energy =            339.1103561921336222
    One-Electron Energy =               -1163.2523843754440804
    Two-Electron Energy =                 462.2442199231980453
    Total Energy =                       -361.8978082601124129

  Dipole Moment: [D]
     X:     4.7516      Y:    -1.2186      Z:    -0.0021     Total:     4.9053

  Basis Set: (AUG-CC-PVQZ AUX)
    Blend: AUG-CC-PVQZ-RI
	 Reference Energy          =    -361.8978082601124129 [Eh]
	 Singles Energy            =      -0.0000000000000000 [Eh]
	 Same-Spin Energy          =      -0.4002318350716520 [Eh]
	 Opposite-Spin Energy      =      -1.3570044321058743 [Eh]
	 Correlation Energy        =      -1.7572362671775263 [Eh]
	 Total Energy              =    -363.6550445272899310 [Eh]

	 ================> DF-SCS-MP2 Energies <==================
	-----------------------------------------------------------
	 SCS Same-Spin Scale       =       0.3333333333333333 [-]
	 SCS Opposite-Spin Scale   =       1.2000000000000000 [-]
	 SCS Same-Spin Energy      =      -0.1334106116905507 [Eh]
	 SCS Opposite-Spin Energy  =      -1.6284053185270491 [Eh]
	 SCS Correlation Energy    =      -1.7618159302175997 [Eh]
	 SCS Total Energy          =    -363.6596241903300211 [Eh]
	-----------------------------------------------------------

*** Psi4 exiting successfully. Buy a developer a beer!
