                               Psi4 1.4a2.dev224

  ==> Input File <==

--------------------------------------------------------------------------
#Generated by lconvert.py for cbs job

memory 40 GB

molecule  {
0 1
  O       -0.6276520     0.0874670     0.0014710
  H        0.3436020     0.1223030    -0.0006000
  C       -0.9779310    -1.2785560     0.0012380
  H       -2.0633920    -1.3420430     0.0050090
  H       -0.6148840    -1.8063760    -0.8853840
  H       -0.6086400    -1.8082370     0.8841730
--
0 1
  N        1.9034860     0.0366790    -0.0014310
  C        2.5998540     0.0122440    -1.1461500
  H        2.0153760     0.0354670    -2.0571260
  C        3.9894920    -0.0374990    -1.1948350
  H        4.4968440    -0.0547910    -2.1486180
  C        4.6998650    -0.0632120     0.0007780
  H        5.7802010    -0.1009770     0.0016270
  C        3.9876170    -0.0381910     1.1953170
  H        4.4934160    -0.0560150     2.1498030
  C        2.5980640     0.0115590     1.1443630
  H        2.0120580     0.0342330     2.0544820
units angstrom
no_reorient
symmetry c1
}

set {
scf_type DF
mp2_type DF
e_convergence 7
reference rhf
}

energy('mp2/aug-cc-pv[tq]z', bsse_type='cp')
--------------------------------------------------------------------------

    Molecular point group: c1
  Charge       = 0
  Multiplicity = 1
  Basis Set: AUG-CC-PVTZ
    Blend: AUG-CC-PVTZ
  Basis Set: (AUG-CC-PVTZ AUX)
    Blend: AUG-CC-PVTZ-JKFIT
  @DF-RHF Final Energy:  -246.77874965402742
    Total Energy =                       -246.7787496540274219
  Basis Set: (AUG-CC-PVTZ AUX)
    Blend: AUG-CC-PVTZ-RI
	 Reference Energy          =    -246.7787496540274219 [Eh]
	 Singles Energy            =      -0.0000000000000000 [Eh]
	 Same-Spin Energy          =      -0.2687957897334633 [Eh]
	 Opposite-Spin Energy      =      -0.8387689798828313 [Eh]
	 Correlation Energy        =      -1.1075647696162947 [Eh]
	 Total Energy              =    -247.8863144236437108 [Eh]
	 SCS Total Energy          =    -247.8748710264646320 [Eh]
    Molecular point group: c1
  Basis Set: AUG-CC-PVQZ
    Blend: AUG-CC-PVQZ
  Basis Set: (AUG-CC-PVQZ AUX)
    Blend: AUG-CC-PVQZ-JKFIT
  @DF-RHF Final Energy:  -246.79289695544520
    Total Energy =                       -246.7928969554452010
  Basis Set: (AUG-CC-PVQZ AUX)
  @DF-RHF Final Energy:  -246.77890113740733
    Total Energy =                       -246.7789011374073311
  @DF-RHF Final Energy:  -246.79293902759508
    Total Energy =                       -246.7929390275950823
  @DF-RHF Final Energy:  -115.09149700043371
    Total Energy =                       -115.0914970004337050
  @DF-RHF Final Energy:  -115.09889320414428
    Total Energy =                       -115.0988932041442752
  @DF-RHF Final Energy:  -115.09134047150053
    Total Energy =                       -115.0913404715005299
  @DF-RHF Final Energy:  -115.09884745860040
    Total Energy =                       -115.0988474586004031
  Multiplicity = 1
  @DF-RHF Final Energy:  -361.86716244550576
    Total Energy =                       -361.8671624455057554
	 Singles Energy            =      -0.0000000000000000 [Eh]
	 Same-Spin Energy          =      -0.3802422503166001 [Eh]
	 Opposite-Spin Energy      =      -1.2109237285652266 [Eh]
	 Correlation Energy        =      -1.5911659788818266 [Eh]
	 Total Energy              =    -363.4583284243875596 [Eh]
	 SCS Total Energy          =    -363.4470183365562548 [Eh]
    Molecular point group: c1

    Geometry (in Angstrom), charge = 0, multiplicity = 1:

       Center              X                  Y                   Z               Mass
    ------------   -----------------  -----------------  -----------------  -----------------
         O           -2.746684607803     0.265974913501     0.001332216533    15.994914619570
         H           -1.775430607803     0.300810913501    -0.000738783467     1.007825032230
         C           -3.096963607803    -1.100048086499     0.001099216533    12.000000000000
         H           -4.182424607803    -1.163535086499     0.004870216533     1.007825032230
         H           -2.733916607803    -1.627868086499    -0.885522783467     1.007825032230
         H           -2.727672607803    -1.629729086499     0.884034216533     1.007825032230
         N           -0.215546607803     0.215186913501    -0.001569783467    14.003074004430
         C            0.480821392197     0.190751913501    -1.146288783467    12.000000000000
         H           -0.103656607803     0.213974913501    -2.057264783467     1.007825032230
         C            1.870459392197     0.141008913501    -1.194973783467    12.000000000000
         H            2.377811392197     0.123716913501    -2.148756783467     1.007825032230
         C            2.580832392197     0.115295913501     0.000639216533    12.000000000000
         H            3.661168392197     0.077530913501     0.001488216533     1.007825032230
         C            1.868584392197     0.140316913501     1.195178216533    12.000000000000
         H            2.374383392197     0.122492913501     2.149664216533     1.007825032230
         C            0.479031392197     0.190066913501     1.144224216533    12.000000000000
         H           -0.106974607803     0.212740913501     2.054343216533     1.007825032230

  Charge       = 0
  Multiplicity = 1
  Basis Set: AUG-CC-PVQZ
    Blend: AUG-CC-PVQZ
  Basis Set: (AUG-CC-PVQZ AUX)
    Blend: AUG-CC-PVQZ-JKFIT

    Orbital Energies [Eh]
    ---------------------

    Doubly Occupied:

       1A    -20.490277     2A    -15.586579     3A    -11.295139
       4A    -11.295120     5A    -11.277509     6A    -11.257661
       7A    -11.257611     8A    -11.236059     9A     -1.310299
      10A     -1.278877    11A     -1.109280    12A     -1.053207
      13A     -0.891213    14A     -0.877232    15A     -0.876810
      16A     -0.747004    17A     -0.681518    18A     -0.676835
      19A     -0.663045    20A     -0.617273    21A     -0.589335
      22A     -0.581493    23A     -0.565870    24A     -0.549332
      25A     -0.538789    26A     -0.485316    27A     -0.419727
      28A     -0.405960    29A     -0.401806    30A     -0.365593

  @DF-RHF Final Energy:  -361.88864556899568

   => Energetics <=

    Nuclear Repulsion Energy =            345.9043412738435563
    One-Electron Energy =               -1176.8224152950217558
    Two-Electron Energy =                 469.0294284521825148
    Total Energy =                       -361.8886455689956847

  Dipole Moment: [D]
     X:     5.2200      Y:    -1.1088      Z:    -0.0024     Total:     5.3365

  Basis Set: (AUG-CC-PVQZ AUX)
    Blend: AUG-CC-PVQZ-RI
	 Reference Energy          =    -361.8886455689956847 [Eh]
	 Singles Energy            =      -0.0000000000000000 [Eh]
	 Same-Spin Energy          =      -0.4023080252321906 [Eh]
	 Opposite-Spin Energy      =      -1.3591627230488466 [Eh]
	 Correlation Energy        =      -1.7614707482810372 [Eh]
	 Total Energy              =    -363.6501163172767406 [Eh]

	 ================> DF-SCS-MP2 Energies <==================
	-----------------------------------------------------------
	 SCS Same-Spin Scale       =       0.3333333333333333 [-]
	 SCS Opposite-Spin Scale   =       1.2000000000000000 [-]
	 SCS Same-Spin Energy      =      -0.1341026750773969 [Eh]
	 SCS Opposite-Spin Energy  =      -1.6309952676586159 [Eh]
	 SCS Correlation Energy    =      -1.7650979427360127 [Eh]
	 SCS Total Energy          =    -363.6537435117317045 [Eh]
	-----------------------------------------------------------

*** Psi4 exiting successfully. Buy a developer a beer!
