                               Psi4 1.4a2.dev224

  ==> Input File <==

--------------------------------------------------------------------------
#Generated by lconvert.py for cbs job

memory 40 GB

molecule  {
0 1
  O       -0.6276520     0.0874670     0.0014710
  H        0.3436020     0.1223030    -0.0006000
  C       -0.9779310    -1.2785560     0.0012380
  H       -2.0633920    -1.3420430     0.0050090
  H       -0.6148840    -1.8063760    -0.8853840
  H       -0.6086400    -1.8082370     0.8841730
--
0 1
  N        2.0985710     0.0259710    -0.0015340
  C        2.7949400     0.0015350    -1.1462540
  H        2.2104610     0.0247590    -2.0572290
  C        4.1845770    -0.0482080    -1.1949390
  H        4.6919290    -0.0655000    -2.1487220
  C        4.8949500    -0.0739200     0.0006740
  H        5.9752860    -0.1116850     0.0015230
  C        4.1827030    -0.0488990     1.1952140
  H        4.6885010    -0.0667240     2.1496990
  C        2.7931490     0.0008510     1.1442600
  H        2.2071430     0.0235250     2.0543780
units angstrom
no_reorient
symmetry c1
}

set {
scf_type DF
mp2_type DF
e_convergence 7
reference rhf
}

energy('mp2/aug-cc-pv[tq]z', bsse_type='cp')
--------------------------------------------------------------------------

    Molecular point group: c1
  Charge       = 0
  Multiplicity = 1
  Basis Set: AUG-CC-PVTZ
    Blend: AUG-CC-PVTZ
  Basis Set: (AUG-CC-PVTZ AUX)
    Blend: AUG-CC-PVTZ-JKFIT
  @DF-RHF Final Energy:  -246.77874961205535
    Total Energy =                       -246.7787496120553214
  Basis Set: (AUG-CC-PVTZ AUX)
    Blend: AUG-CC-PVTZ-RI
	 Reference Energy          =    -246.7787496120553499 [Eh]
	 Singles Energy            =      -0.0000000000000000 [Eh]
	 Same-Spin Energy          =      -0.2687957939558608 [Eh]
	 Opposite-Spin Energy      =      -0.8387690037500234 [Eh]
	 Correlation Energy        =      -1.1075647977058842 [Eh]
	 Total Energy              =    -247.8863144097612405 [Eh]
	 SCS Total Energy          =    -247.8748710145406733 [Eh]
    Molecular point group: c1
  Basis Set: AUG-CC-PVQZ
    Blend: AUG-CC-PVQZ
  Basis Set: (AUG-CC-PVQZ AUX)
    Blend: AUG-CC-PVQZ-JKFIT
  @DF-RHF Final Energy:  -246.79289691232842
    Total Energy =                       -246.7928969123284446
  Basis Set: (AUG-CC-PVQZ AUX)
  @DF-RHF Final Energy:  -246.77887733189741
    Total Energy =                       -246.7788773318974336
  @DF-RHF Final Energy:  -246.79293407705089
    Total Energy =                       -246.7929340770508588
  @DF-RHF Final Energy:  -115.09147257015485
    Total Energy =                       -115.0914725701548491
  @DF-RHF Final Energy:  -115.09888789319835
    Total Energy =                       -115.0988878931983521
  @DF-RHF Final Energy:  -115.09134047152826
    Total Energy =                       -115.0913404715282553
  @DF-RHF Final Energy:  -115.09884745857434
    Total Energy =                       -115.0988474585743404
  Multiplicity = 1
  @DF-RHF Final Energy:  -361.87458942223924
    Total Energy =                       -361.8745894222392394
	 Singles Energy            =      -0.0000000000000000 [Eh]
	 Same-Spin Energy          =      -0.3787892423347270 [Eh]
	 Opposite-Spin Energy      =      -1.2093757959155564 [Eh]
	 Correlation Energy        =      -1.5881650382502834 [Eh]
	 Total Energy              =    -363.4627544604895206 [Eh]
	 SCS Total Energy          =    -363.4521034581161416 [Eh]
    Molecular point group: c1

    Geometry (in Angstrom), charge = 0, multiplicity = 1:

       Center              X                  Y                   Z               Mass
    ------------   -----------------  -----------------  -----------------  -----------------
         O           -2.885517700677     0.273595530871     0.001405877239    15.994914619570
         H           -1.914263700677     0.308431530871    -0.000665122761     1.007825032230
         C           -3.235796700677    -1.092427469129     0.001172877239    12.000000000000
         H           -4.321257700677    -1.155914469129     0.004943877239     1.007825032230
         H           -2.872749700677    -1.620247469129    -0.885449122761     1.007825032230
         H           -2.866505700677    -1.622108469129     0.884107877239     1.007825032230
         N           -0.159294700677     0.212099530871    -0.001599122761    14.003074004430
         C            0.537074299323     0.187663530871    -1.146319122761    12.000000000000
         H           -0.047404700677     0.210887530871    -2.057294122761     1.007825032230
         C            1.926711299323     0.137920530871    -1.195004122761    12.000000000000
         H            2.434063299323     0.120628530871    -2.148787122761     1.007825032230
         C            2.637084299323     0.112208530871     0.000608877239    12.000000000000
         H            3.717420299323     0.074443530871     0.001457877239     1.007825032230
         C            1.924837299323     0.137229530871     1.195148877239    12.000000000000
         H            2.430635299323     0.119404530871     2.149633877239     1.007825032230
         C            0.535283299323     0.186979530871     1.144194877239    12.000000000000
         H           -0.050722700677     0.209653530871     2.054312877239     1.007825032230

  Charge       = 0
  Multiplicity = 1
  Basis Set: AUG-CC-PVQZ
    Blend: AUG-CC-PVQZ
  Basis Set: (AUG-CC-PVQZ AUX)
    Blend: AUG-CC-PVQZ-JKFIT

    Orbital Energies [Eh]
    ---------------------

    Doubly Occupied:

       1A    -20.505264     2A    -15.584569     3A    -11.291856
       4A    -11.291837     5A    -11.274634     6A    -11.255266
       7A    -11.255216     8A    -11.241094     9A     -1.316456
      10A     -1.276409    11A     -1.105845    12A     -1.050331
      13A     -0.894070    14A     -0.875275    15A     -0.873531
      16A     -0.741587    17A     -0.678165    18A     -0.671893
      19A     -0.661920    20A     -0.614696    21A     -0.590778
      22A     -0.587696    23A     -0.562991    24A     -0.555872
      25A     -0.536153    26A     -0.482325    27A     -0.429606
      28A     -0.410812    29A     -0.402360    30A     -0.363116

  @DF-RHF Final Energy:  -361.89608800203035

   => Energetics <=

    Nuclear Repulsion Energy =            341.2640112705179831
    One-Electron Energy =               -1167.5569524901736713
    Two-Electron Energy =                 464.3968532176252779
    Total Energy =                       -361.8960880020303534

  Dipole Moment: [D]
     X:     4.8890      Y:    -1.1869      Z:    -0.0022     Total:     5.0310

  Basis Set: (AUG-CC-PVQZ AUX)
    Blend: AUG-CC-PVQZ-RI
	 Reference Energy          =    -361.8960880020303534 [Eh]
	 Singles Energy            =      -0.0000000000000000 [Eh]
	 Same-Spin Energy          =      -0.4008228918021081 [Eh]
	 Opposite-Spin Energy      =      -1.3576106743195908 [Eh]
	 Correlation Energy        =      -1.7584335661216990 [Eh]
	 Total Energy              =    -363.6545215681520631 [Eh]

	 ================> DF-SCS-MP2 Energies <==================
	-----------------------------------------------------------
	 SCS Same-Spin Scale       =       0.3333333333333333 [-]
	 SCS Opposite-Spin Scale   =       1.2000000000000000 [-]
	 SCS Same-Spin Energy      =      -0.1336076306007027 [Eh]
	 SCS Opposite-Spin Energy  =      -1.6291328091835089 [Eh]
	 SCS Correlation Energy    =      -1.7627404397842117 [Eh]
	 SCS Total Energy          =    -363.6588284418145918 [Eh]
	-----------------------------------------------------------

*** Psi4 exiting successfully. Buy a developer a beer!
