                               Psi4 1.4a2.dev224

  ==> Input File <==

--------------------------------------------------------------------------
#Generated by lconvert.py for cbs job

memory 40 GB

molecule  {
0 1
  O       -0.6276520     0.0874670     0.0014710
  H        0.3436020     0.1223030    -0.0006000
  C       -0.9779310    -1.2785560     0.0012380
  H       -2.0633920    -1.3420430     0.0050090
  H       -0.6148840    -1.8063760    -0.8853840
  H       -0.6086400    -1.8082370     0.8841730
--
0 1
  N        2.2934570     0.0152730    -0.0016380
  C        2.9898250    -0.0091620    -1.1463580
  H        2.4053470     0.0140610    -2.0573330
  C        4.3794630    -0.0589050    -1.1950430
  H        4.8868150    -0.0761970    -2.1488260
  C        5.0898360    -0.0846180     0.0005700
  H        6.1701720    -0.1223830     0.0014190
  C        4.3775880    -0.0595970     1.1951100
  H        4.8833870    -0.0774210     2.1495960
  C        2.9880350    -0.0098470     1.1441560
  H        2.4020290     0.0128270     2.0542750
units angstrom
no_reorient
symmetry c1
}

set {
scf_type DF
mp2_type DF
e_convergence 7
reference rhf
}

energy('mp2/aug-cc-pv[tq]z', bsse_type='cp')
--------------------------------------------------------------------------

    Molecular point group: c1
  Charge       = 0
  Multiplicity = 1
  Basis Set: AUG-CC-PVTZ
    Blend: AUG-CC-PVTZ
  Basis Set: (AUG-CC-PVTZ AUX)
    Blend: AUG-CC-PVTZ-JKFIT
  @DF-RHF Final Energy:  -246.77874960575929
    Total Energy =                       -246.7787496057592875
  Basis Set: (AUG-CC-PVTZ AUX)
    Blend: AUG-CC-PVTZ-RI
	 Reference Energy          =    -246.7787496057592875 [Eh]
	 Singles Energy            =      -0.0000000000000000 [Eh]
	 Same-Spin Energy          =      -0.2687957943120521 [Eh]
	 Opposite-Spin Energy      =      -0.8387690067199320 [Eh]
	 Correlation Energy        =      -1.1075648010319843 [Eh]
	 Total Energy              =    -247.8863144067912856 [Eh]
	 SCS Total Energy          =    -247.8748710119272118 [Eh]
    Molecular point group: c1
  Basis Set: AUG-CC-PVQZ
    Blend: AUG-CC-PVQZ
  Basis Set: (AUG-CC-PVQZ AUX)
    Blend: AUG-CC-PVQZ-JKFIT
  @DF-RHF Final Energy:  -246.79289690016554
    Total Energy =                       -246.7928969001655446
  Basis Set: (AUG-CC-PVQZ AUX)
  @DF-RHF Final Energy:  -246.77885744597566
    Total Energy =                       -246.7788574459756319
  @DF-RHF Final Energy:  -246.79292774680883
    Total Energy =                       -246.7929277468088003
  @DF-RHF Final Energy:  -115.09144756854637
    Total Energy =                       -115.0914475685463714
  @DF-RHF Final Energy:  -115.09888345607654
    Total Energy =                       -115.0988834560765355
  @DF-RHF Final Energy:  -115.09134047154134
    Total Energy =                       -115.0913404715413435
  @DF-RHF Final Energy:  -115.09884745871877
    Total Energy =                       -115.0988474587187653
  Multiplicity = 1
  @DF-RHF Final Energy:  -361.87719933073004
    Total Energy =                       -361.8771993307300363
	 Singles Energy            =      -0.0000000000000000 [Eh]
	 Same-Spin Energy          =      -0.3777025007642798 [Eh]
	 Opposite-Spin Energy      =      -1.2082026292999011 [Eh]
	 Correlation Energy        =      -1.5859051300641809 [Eh]
	 Total Energy              =    -363.4631044607942272 [Eh]
	 SCS Total Energy          =    -363.4529433194780381 [Eh]
    Molecular point group: c1

    Geometry (in Angstrom), charge = 0, multiplicity = 1:

       Center              X                  Y                   Z               Mass
    ------------   -----------------  -----------------  -----------------  -----------------
         O           -3.024208742384     0.281208563246     0.001479871031    15.994914619570
         H           -2.052954742384     0.316044563246    -0.000591128969     1.007825032230
         C           -3.374487742384    -1.084814436754     0.001246871031    12.000000000000
         H           -4.459948742384    -1.148301436754     0.005017871031     1.007825032230
         H           -3.011440742384    -1.612634436754    -0.885375128969     1.007825032230
         H           -3.005196742384    -1.614495436754     0.884181871031     1.007825032230
         N           -0.103099742384     0.209014563246    -0.001629128969    14.003074004430
         C            0.593268257616     0.184579563246    -1.146349128969    12.000000000000
         H            0.008790257616     0.207802563246    -2.057324128969     1.007825032230
         C            1.982906257616     0.134836563246    -1.195034128969    12.000000000000
         H            2.490258257616     0.117544563246    -2.148817128969     1.007825032230
         C            2.693279257616     0.109123563246     0.000578871031    12.000000000000
         H            3.773615257616     0.071358563246     0.001427871031     1.007825032230
         C            1.981031257616     0.134144563246     1.195118871031    12.000000000000
         H            2.486830257616     0.116320563246     2.149604871031     1.007825032230
         C            0.591478257616     0.183894563246     1.144164871031    12.000000000000
         H            0.005472257616     0.206568563246     2.054283871031     1.007825032230

  Charge       = 0
  Multiplicity = 1
  Basis Set: AUG-CC-PVQZ
    Blend: AUG-CC-PVQZ
  Basis Set: (AUG-CC-PVQZ AUX)
    Blend: AUG-CC-PVQZ-JKFIT

    Orbital Energies [Eh]
    ---------------------

    Doubly Occupied:

       1A    -20.516247     2A    -15.582537     3A    -11.289289
       4A    -11.289271     5A    -11.272392     6A    -11.253370
       7A    -11.253319     8A    -11.245115     9A     -1.323033
      10A     -1.273480    11A     -1.103259    12A     -1.048076
      13A     -0.897741    14A     -0.873020    15A     -0.870994
      16A     -0.737926    17A     -0.675586    18A     -0.669109
      19A     -0.662770    20A     -0.612654    21A     -0.592701
      22A     -0.590524    23A     -0.565257    24A     -0.556805
      25A     -0.534080    26A     -0.481352    27A     -0.433995
      28A     -0.417757    29A     -0.399544    30A     -0.361149

  @DF-RHF Final Energy:  -361.89873110063445

   => Energetics <=

    Nuclear Repulsion Energy =            337.0577316661831446
    One-Electron Energy =               -1159.1482232233290688
    Two-Electron Energy =                 460.1917604565114743
    Total Energy =                       -361.8987311006344498

  Dipole Moment: [D]
     X:     4.6302      Y:    -1.2462      Z:    -0.0020     Total:     4.7950

  Basis Set: (AUG-CC-PVQZ AUX)
    Blend: AUG-CC-PVQZ-RI
	 Reference Energy          =    -361.8987311006344498 [Eh]
	 Singles Energy            =      -0.0000000000000000 [Eh]
	 Same-Spin Energy          =      -0.3997281927883702 [Eh]
	 Opposite-Spin Energy      =      -1.3564913679324460 [Eh]
	 Correlation Energy        =      -1.7562195607208162 [Eh]
	 Total Energy              =    -363.6549506613552580 [Eh]

	 ================> DF-SCS-MP2 Energies <==================
	-----------------------------------------------------------
	 SCS Same-Spin Scale       =       0.3333333333333333 [-]
	 SCS Opposite-Spin Scale   =       1.2000000000000000 [-]
	 SCS Same-Spin Energy      =      -0.1332427309294567 [Eh]
	 SCS Opposite-Spin Energy  =      -1.6277896415189350 [Eh]
	 SCS Correlation Energy    =      -1.7610323724483918 [Eh]
	 SCS Total Energy          =    -363.6597634730828190 [Eh]
	-----------------------------------------------------------

*** Psi4 exiting successfully. Buy a developer a beer!
