                               Psi4 1.4a2.dev224

  ==> Input File <==

--------------------------------------------------------------------------
#Generated by lconvert.py for cbs job

memory 40 GB

molecule  {
0 1
  O       -0.6276520     0.0874670     0.0014710
  H        0.3436020     0.1223030    -0.0006000
  C       -0.9779310    -1.2785560     0.0012380
  H       -2.0633920    -1.3420430     0.0050090
  H       -0.6148840    -1.8063760    -0.8853840
  H       -0.6086400    -1.8082370     0.8841730
--
0 1
  N        2.3910500     0.0099160    -0.0016900
  C        3.0874180    -0.0145190    -1.1464100
  H        2.5029390     0.0087040    -2.0573850
  C        4.4770550    -0.0642620    -1.1950950
  H        4.9844070    -0.0815540    -2.1488780
  C        5.1874280    -0.0899750     0.0005180
  H        6.2677640    -0.1277400     0.0013670
  C        4.4751810    -0.0649540     1.1950580
  H        4.9809800    -0.0827780     2.1495440
  C        3.0856270    -0.0152040     1.1441040
  H        2.4996210     0.0074700     2.0542230
units angstrom
no_reorient
symmetry c1
}

set {
scf_type DF
mp2_type DF
e_convergence 7
reference rhf
}

energy('mp2/aug-cc-pv[tq]z', bsse_type='cp')
--------------------------------------------------------------------------

    Molecular point group: c1
  Charge       = 0
  Multiplicity = 1
  Basis Set: AUG-CC-PVTZ
    Blend: AUG-CC-PVTZ
  Basis Set: (AUG-CC-PVTZ AUX)
    Blend: AUG-CC-PVTZ-JKFIT
  @DF-RHF Final Energy:  -246.77874963218784
    Total Energy =                       -246.7787496321878393
  Basis Set: (AUG-CC-PVTZ AUX)
    Blend: AUG-CC-PVTZ-RI
	 Reference Energy          =    -246.7787496321878393 [Eh]
	 Singles Energy            =      -0.0000000000000000 [Eh]
	 Same-Spin Energy          =      -0.2687957909157648 [Eh]
	 Opposite-Spin Energy      =      -0.8387689874487458 [Eh]
	 Correlation Energy        =      -1.1075647783645106 [Eh]
	 Total Energy              =    -247.8863144105523588 [Eh]
	 SCS Total Energy          =    -247.8748710140982610 [Eh]
    Molecular point group: c1
  Basis Set: AUG-CC-PVQZ
    Blend: AUG-CC-PVQZ
  Basis Set: (AUG-CC-PVQZ AUX)
    Blend: AUG-CC-PVQZ-JKFIT
  @DF-RHF Final Energy:  -246.79289693233909
    Total Energy =                       -246.7928969323390902
  Basis Set: (AUG-CC-PVQZ AUX)
  @DF-RHF Final Energy:  -246.77884805021884
    Total Energy =                       -246.7788480502188122
  @DF-RHF Final Energy:  -246.79292432648762
    Total Energy =                       -246.7929243264875936
  @DF-RHF Final Energy:  -115.09143668622922
    Total Energy =                       -115.0914366862292155
  @DF-RHF Final Energy:  -115.09888137066919
    Total Energy =                       -115.0988813706691900
  @DF-RHF Final Energy:  -115.09134047148595
    Total Energy =                       -115.0913404714859496
  @DF-RHF Final Energy:  -115.09884745861193
    Total Energy =                       -115.0988474586119281
  Multiplicity = 1
  @DF-RHF Final Energy:  -361.87757114497015
    Total Energy =                       -361.8775711449701475
	 Singles Energy            =      -0.0000000000000000 [Eh]
	 Same-Spin Energy          =      -0.3772719955334218 [Eh]
	 Opposite-Spin Energy      =      -1.2077183061231134 [Eh]
	 Correlation Energy        =      -1.5849903016565352 [Eh]
	 Total Energy              =    -363.4625614466266939 [Eh]
	 SCS Total Energy          =    -363.4525904441623538 [Eh]
    Molecular point group: c1

    Geometry (in Angstrom), charge = 0, multiplicity = 1:

       Center              X                  Y                   Z               Mass
    ------------   -----------------  -----------------  -----------------  -----------------
         O           -3.093660758849     0.285020889776     0.001516877000    15.994914619570
         H           -2.122406758849     0.319856889776    -0.000554123000     1.007825032230
         C           -3.443939758849    -1.081002110224     0.001283877000    12.000000000000
         H           -4.529400758849    -1.144489110224     0.005054877000     1.007825032230
         H           -3.080892758849    -1.608822110224    -0.885338123000     1.007825032230
         H           -3.074648758849    -1.610683110224     0.884218877000     1.007825032230
         N           -0.074958758849     0.207469889776    -0.001644123000    14.003074004430
         C            0.621409241151     0.183034889776    -1.146364123000    12.000000000000
         H            0.036930241151     0.206257889776    -2.057339123000     1.007825032230
         C            2.011046241151     0.133291889776    -1.195049123000    12.000000000000
         H            2.518398241151     0.115999889776    -2.148832123000     1.007825032230
         C            2.721419241151     0.107578889776     0.000563877000    12.000000000000
         H            3.801755241151     0.069813889776     0.001412877000     1.007825032230
         C            2.009172241151     0.132599889776     1.195103877000    12.000000000000
         H            2.514971241151     0.114775889776     2.149589877000     1.007825032230
         C            0.619618241151     0.182349889776     1.144149877000    12.000000000000
         H            0.033612241151     0.205023889776     2.054268877000     1.007825032230

  Charge       = 0
  Multiplicity = 1
  Basis Set: AUG-CC-PVQZ
    Blend: AUG-CC-PVQZ
  Basis Set: (AUG-CC-PVQZ AUX)
    Blend: AUG-CC-PVQZ-JKFIT

    Orbital Energies [Eh]
    ---------------------

    Doubly Occupied:

       1A    -20.520596     2A    -15.581546     3A    -11.288214
       4A    -11.288196     5A    -11.271455     6A    -11.252569
       7A    -11.252517     8A    -11.246815     9A     -1.325991
      10A     -1.272173    11A     -1.102202    12A     -1.047128
      13A     -0.899472    14A     -0.872030    15A     -0.869937
      16A     -0.736532    17A     -0.674515    18A     -0.668335
      19A     -0.663485    20A     -0.611792    21A     -0.594821
      22A     -0.590049    23A     -0.567457    24A     -0.555977
      25A     -0.533207    26A     -0.481618    27A     -0.434732
      28A     -0.420608    29A     -0.398368    30A     -0.360317

  @DF-RHF Final Energy:  -361.89911730755512

   => Energetics <=

    Nuclear Repulsion Energy =            335.0928421447381993
    One-Electron Energy =               -1155.2186064503353009
    Two-Electron Energy =                 458.2266469980420425
    Total Energy =                       -361.8991173075551160

  Dipole Moment: [D]
     X:     4.5227      Y:    -1.2702      Z:    -0.0020     Total:     4.6977

  Basis Set: (AUG-CC-PVQZ AUX)
    Blend: AUG-CC-PVQZ-RI
	 Reference Energy          =    -361.8991173075551160 [Eh]
	 Singles Energy            =      -0.0000000000000000 [Eh]
	 Same-Spin Energy          =      -0.3992989969353242 [Eh]
	 Opposite-Spin Energy      =      -1.3560517631768763 [Eh]
	 Correlation Energy        =      -1.7553507601122005 [Eh]
	 Total Energy              =    -363.6544680676673238 [Eh]

	 ================> DF-SCS-MP2 Energies <==================
	-----------------------------------------------------------
	 SCS Same-Spin Scale       =       0.3333333333333333 [-]
	 SCS Opposite-Spin Scale   =       1.2000000000000000 [-]
	 SCS Same-Spin Energy      =      -0.1330996656451081 [Eh]
	 SCS Opposite-Spin Energy  =      -1.6272621158122516 [Eh]
	 SCS Correlation Energy    =      -1.7603617814573596 [Eh]
	 SCS Total Energy          =    -363.6594790890124500 [Eh]
	-----------------------------------------------------------

*** Psi4 exiting successfully. Buy a developer a beer!
