                               Psi4 1.4a2.dev224

  ==> Input File <==

--------------------------------------------------------------------------
#Generated by lconvert.py for cbs job

memory 40 GB

molecule  {
0 1
  O       -0.6276520     0.0874670     0.0014710
  H        0.3436020     0.1223030    -0.0006000
  C       -0.9779310    -1.2785560     0.0012380
  H       -2.0633920    -1.3420430     0.0050090
  H       -0.6148840    -1.8063760    -0.8853840
  H       -0.6086400    -1.8082370     0.8841730
--
0 1
  N        1.7085010     0.0473820    -0.0013270
  C        2.4048690     0.0229470    -1.1460460
  H        1.8203900     0.0461700    -2.0570220
  C        3.7945060    -0.0267960    -1.1947320
  H        4.3018580    -0.0440880    -2.1485140
  C        4.5048790    -0.0525090     0.0008810
  H        5.5852150    -0.0902730     0.0017310
  C        3.7926320    -0.0274880     1.1954210
  H        4.2984310    -0.0453120     2.1499070
  C        2.4030780     0.0222620     1.1444670
  H        1.8170720     0.0449360     2.0545860
units angstrom
no_reorient
symmetry c1
}

set {
scf_type DF
mp2_type DF
e_convergence 7
reference rhf
}

energy('mp2/aug-cc-pv[tq]z', bsse_type='cp')
--------------------------------------------------------------------------

    Molecular point group: c1
  Charge       = 0
  Multiplicity = 1
  Basis Set: AUG-CC-PVTZ
    Blend: AUG-CC-PVTZ
  Basis Set: (AUG-CC-PVTZ AUX)
    Blend: AUG-CC-PVTZ-JKFIT
  @DF-RHF Final Energy:  -246.77874968032492
    Total Energy =                       -246.7787496803249496
  Basis Set: (AUG-CC-PVTZ AUX)
    Blend: AUG-CC-PVTZ-RI
	 Reference Energy          =    -246.7787496803249212 [Eh]
	 Singles Energy            =      -0.0000000000000000 [Eh]
	 Same-Spin Energy          =      -0.2687957833923846 [Eh]
	 Opposite-Spin Energy      =      -0.8387689617775411 [Eh]
	 Correlation Energy        =      -1.1075647451699258 [Eh]
	 Total Energy              =    -247.8863144254948452 [Eh]
	 SCS Total Energy          =    -247.8748710289220867 [Eh]
    Molecular point group: c1
  Basis Set: AUG-CC-PVQZ
    Blend: AUG-CC-PVQZ
  Basis Set: (AUG-CC-PVQZ AUX)
    Blend: AUG-CC-PVQZ-JKFIT
  @DF-RHF Final Energy:  -246.79289697932717
    Total Energy =                       -246.7928969793271676
  Basis Set: (AUG-CC-PVQZ AUX)
  @DF-RHF Final Energy:  -246.77893093711754
    Total Energy =                       -246.7789309371175364
  @DF-RHF Final Energy:  -246.79294528716542
    Total Energy =                       -246.7929452871654235
  @DF-RHF Final Energy:  -115.09152796781645
    Total Energy =                       -115.0915279678164467
  @DF-RHF Final Energy:  -115.09890204055395
    Total Energy =                       -115.0989020405539520
  @DF-RHF Final Energy:  -115.09134047151514
    Total Energy =                       -115.0913404715151387
  @DF-RHF Final Energy:  -115.09884745849264
    Total Energy =                       -115.0988474584926422
  Multiplicity = 1
  @DF-RHF Final Energy:  -361.84979066503320
    Total Energy =                       -361.8497906650331970
	 Singles Energy            =      -0.0000000000000000 [Eh]
	 Same-Spin Energy          =      -0.3821364496161717 [Eh]
	 Opposite-Spin Energy      =      -1.2129790243013179 [Eh]
	 Correlation Energy        =      -1.5951154739174895 [Eh]
	 Total Energy              =    -363.4449061389506710 [Eh]
	 SCS Total Energy          =    -363.4327443107334830 [Eh]
    Molecular point group: c1

    Geometry (in Angstrom), charge = 0, multiplicity = 1:

       Center              X                  Y                   Z               Mass
    ------------   -----------------  -----------------  -----------------  -----------------
         O           -2.607922535919     0.258358079554     0.001258420677    15.994914619570
         H           -1.636668535919     0.293194079554    -0.000812579323     1.007825032230
         C           -2.958201535919    -1.107664920446     0.001025420677    12.000000000000
         H           -4.043662535919    -1.171151920446     0.004796420677     1.007825032230
         H           -2.595154535919    -1.635484920446    -0.885596579323     1.007825032230
         H           -2.588910535919    -1.637345920446     0.883960420677     1.007825032230
         N           -0.271769535919     0.218273079554    -0.001539579323    14.003074004430
         C            0.424598464081     0.193838079554    -1.146258579323    12.000000000000
         H           -0.159880535919     0.217061079554    -2.057234579323     1.007825032230
         C            1.814235464081     0.144095079554    -1.194944579323    12.000000000000
         H            2.321587464081     0.126803079554    -2.148726579323     1.007825032230
         C            2.524608464081     0.118382079554     0.000668420677    12.000000000000
         H            3.604944464081     0.080618079554     0.001518420677     1.007825032230
         C            1.812361464081     0.143403079554     1.195208420677    12.000000000000
         H            2.318160464081     0.125579079554     2.149694420677     1.007825032230
         C            0.422807464081     0.193153079554     1.144254420677    12.000000000000
         H           -0.163198535919     0.215827079554     2.054373420677     1.007825032230

  Charge       = 0
  Multiplicity = 1
  Basis Set: AUG-CC-PVQZ
    Blend: AUG-CC-PVQZ
  Basis Set: (AUG-CC-PVQZ AUX)
    Blend: AUG-CC-PVQZ-JKFIT

    Orbital Energies [Eh]
    ---------------------

    Doubly Occupied:

       1A    -20.470133     2A    -15.588319     3A    -11.299308
       4A    -11.299287     5A    -11.281176     6A    -11.260662
       7A    -11.260613     8A    -11.229871     9A     -1.310102
      10A     -1.276779    11A     -1.113835    12A     -1.056862
      13A     -0.893171    14A     -0.881055    15A     -0.876051
      16A     -0.755221    17A     -0.685895    18A     -0.685518
      19A     -0.666344    20A     -0.620500    21A     -0.585778
      22A     -0.574006    23A     -0.570902    24A     -0.542134
      25A     -0.540952    26A     -0.488528    27A     -0.410480
      28A     -0.402801    29A     -0.390397    30A     -0.368658

  @DF-RHF Final Energy:  -361.87127179010781

   => Energetics <=

    Nuclear Repulsion Energy =            351.0516008394072287
    One-Electron Energy =               -1187.0750641640659069
    Two-Electron Energy =                 474.1521915345508660
    Total Energy =                       -361.8712717901078122

  Dipole Moment: [D]
     X:     5.6348      Y:    -1.0076      Z:    -0.0027     Total:     5.7242

  Basis Set: (AUG-CC-PVQZ AUX)
    Blend: AUG-CC-PVQZ-RI
	 Reference Energy          =    -361.8712717901078122 [Eh]
	 Singles Energy            =      -0.0000000000000000 [Eh]
	 Same-Spin Energy          =      -0.4042246489301619 [Eh]
	 Opposite-Spin Energy      =      -1.3611207131157492 [Eh]
	 Correlation Energy        =      -1.7653453620459110 [Eh]
	 Total Energy              =    -363.6366171521537467 [Eh]

	 ================> DF-SCS-MP2 Energies <==================
	-----------------------------------------------------------
	 SCS Same-Spin Scale       =       0.3333333333333333 [-]
	 SCS Opposite-Spin Scale   =       1.2000000000000000 [-]
	 SCS Same-Spin Energy      =      -0.1347415496433873 [Eh]
	 SCS Opposite-Spin Energy  =      -1.6333448557388990 [Eh]
	 SCS Correlation Energy    =      -1.7680864053822862 [Eh]
	 SCS Total Energy          =    -363.6393581954901038 [Eh]
	-----------------------------------------------------------

*** Psi4 exiting successfully. Buy a developer a beer!
