                               Psi4 1.4a2.dev224

  ==> Input File <==

--------------------------------------------------------------------------
#Generated by lconvert.py for cbs job

memory 20 GB

molecule  {
0 1
  O      -0.627650    0.087470    0.001470
  H       0.343600    0.122300   -0.000600
  C      -0.977930   -1.278560    0.001240
  H      -2.063390   -1.342040    0.005010
  H      -0.614880   -1.806380   -0.885380
  H      -0.608640   -1.808240    0.884170
--
0 1
  N       4.048420   -0.081060   -0.002570
  C       4.744790   -0.105500   -1.147290
  H       4.160310   -0.082270   -2.058270
  C       6.134430   -0.155240   -1.195980
  H       6.641780   -0.172530   -2.149760
  C       6.844800   -0.180950   -0.000370
  H       7.925140   -0.218710    0.000480
  C       6.132550   -0.155930    1.194170
  H       6.638350   -0.173750    2.148660
  C       4.743000   -0.106180    1.143220
  H       4.156990   -0.083500    2.053340
units angstrom
no_reorient
symmetry c1
}

set {
scf_type DF
mp2_type DF
e_convergence 7
reference rhf
}

energy('mp2/aug-cc-pv[tq]z', bsse_type='cp')
--------------------------------------------------------------------------

    Molecular point group: c1
  Charge       = 0
  Multiplicity = 1
  Basis Set: AUG-CC-PVTZ
    Blend: AUG-CC-PVTZ
  Basis Set: (AUG-CC-PVTZ AUX)
    Blend: AUG-CC-PVTZ-JKFIT
  @DF-RHF Final Energy:  -246.77874961437044
    Total Energy =                       -246.7787496143704402
  Basis Set: (AUG-CC-PVTZ AUX)
    Blend: AUG-CC-PVTZ-RI
	 Reference Energy          =    -246.7787496143704402 [Eh]
	 Singles Energy            =      -0.0000000000000000 [Eh]
	 Same-Spin Energy          =      -0.2687958052744293 [Eh]
	 Opposite-Spin Energy      =      -0.8387690130991499 [Eh]
	 Correlation Energy        =      -1.1075648183735791 [Eh]
	 Total Energy              =    -247.8863144327440295 [Eh]
	 SCS Total Energy          =    -247.8748710318475617 [Eh]
    Molecular point group: c1
  Basis Set: AUG-CC-PVQZ
    Blend: AUG-CC-PVQZ
  Basis Set: (AUG-CC-PVQZ AUX)
    Blend: AUG-CC-PVQZ-JKFIT
  @DF-RHF Final Energy:  -246.79289691180060
    Total Energy =                       -246.7928969118005966
  Basis Set: (AUG-CC-PVQZ AUX)
  @DF-RHF Final Energy:  -246.77876532670592
    Total Energy =                       -246.7787653267059227
  @DF-RHF Final Energy:  -246.79290281072517
    Total Energy =                       -246.7929028107251952
  @DF-RHF Final Energy:  -115.09136324129673
    Total Energy =                       -115.0913632412967331
  @DF-RHF Final Energy:  -115.09885649418702
    Total Energy =                       -115.0988564941870180
  @DF-RHF Final Energy:  -115.09134063713907
    Total Energy =                       -115.0913406371390693
  @DF-RHF Final Energy:  -115.09884762512498
    Total Energy =                       -115.0988476251249750
  Multiplicity = 1
  @DF-RHF Final Energy:  -361.87230502648009
    Total Energy =                       -361.8723050264800918
	 Singles Energy            =      -0.0000000000000000 [Eh]
	 Same-Spin Energy          =      -0.3749467304708535 [Eh]
	 Opposite-Spin Energy      =      -1.2042383971840258 [Eh]
	 Correlation Energy        =      -1.5791851276548794 [Eh]
	 Total Energy              =    -363.4514901541349445 [Eh]
	 SCS Total Energy          =    -363.4423733465911823 [Eh]
    Molecular point group: c1

    Geometry (in Angstrom), charge = 0, multiplicity = 1:

       Center              X                  Y                   Z               Mass
    ------------   -----------------  -----------------  -----------------  -----------------
         O           -4.273133229638     0.349767805593     0.002144933241    15.994914619570
         H           -3.301883229638     0.384597805593     0.000074933241     1.007825032230
         C           -4.623413229638    -1.016262194407     0.001914933241    12.000000000000
         H           -5.708873229638    -1.079742194407     0.005684933241     1.007825032230
         H           -4.260363229638    -1.544082194407    -0.884705066759     1.007825032230
         H           -4.254123229638    -1.545942194407     0.884844933241     1.007825032230
         N            0.402936770362     0.181237805593    -0.001895066759    14.003074004430
         C            1.099306770362     0.156797805593    -1.146615066759    12.000000000000
         H            0.514826770362     0.180027805593    -2.057595066759     1.007825032230
         C            2.488946770362     0.107057805593    -1.195305066759    12.000000000000
         H            2.996296770362     0.089767805593    -2.149085066759     1.007825032230
         C            3.199316770362     0.081347805593     0.000304933241    12.000000000000
         H            4.279656770362     0.043587805593     0.001154933241     1.007825032230
         C            2.487066770362     0.106367805593     1.194844933241    12.000000000000
         H            2.992866770362     0.088547805593     2.149334933241     1.007825032230
         C            1.097516770362     0.156117805593     1.143894933241    12.000000000000
         H            0.511506770362     0.178797805593     2.054014933241     1.007825032230

  Charge       = 0
  Multiplicity = 1
  Basis Set: AUG-CC-PVQZ
    Blend: AUG-CC-PVQZ
  Basis Set: (AUG-CC-PVQZ AUX)
    Blend: AUG-CC-PVQZ-JKFIT

    Orbital Energies [Eh]
    ---------------------

    Doubly Occupied:

       1A    -20.547811     2A    -15.570958     3A    -11.279654
       4A    -11.279636     5A    -11.264103     6A    -11.260225
       7A    -11.246027     8A    -11.245974     9A     -1.348503
      10A     -1.261910    11A     -1.094242    12A     -1.039519
      13A     -0.914360    14A     -0.864371    15A     -0.861591
      16A     -0.727651    17A     -0.681143    18A     -0.666137
      19A     -0.659525    20A     -0.611121    21A     -0.604741
      22A     -0.585919    23A     -0.582439    24A     -0.547087
      25A     -0.526095    26A     -0.494414    27A     -0.440573
      28A     -0.425500    29A     -0.389250    30A     -0.353516

  @DF-RHF Final Energy:  -361.89393102781514

   => Energetics <=

    Nuclear Repulsion Energy =            311.3345881220661795
    One-Electron Energy =               -1107.7090345920310028
    Two-Electron Energy =                 434.4805154421496809
    Total Energy =                       -361.8939310278151424

  Dipole Moment: [D]
     X:     3.7465      Y:    -1.4270      Z:    -0.0017     Total:     4.0091

  Basis Set: (AUG-CC-PVQZ AUX)
    Blend: AUG-CC-PVQZ-RI
	 Reference Energy          =    -361.8939310278151424 [Eh]
	 Singles Energy            =      -0.0000000000000000 [Eh]
	 Same-Spin Energy          =      -0.3970365423840133 [Eh]
	 Opposite-Spin Energy      =      -1.3534866007609949 [Eh]
	 Correlation Energy        =      -1.7505231431450081 [Eh]
	 Total Energy              =    -363.6444541709601594 [Eh]

	 ================> DF-SCS-MP2 Energies <==================
	-----------------------------------------------------------
	 SCS Same-Spin Scale       =       0.3333333333333333 [-]
	 SCS Opposite-Spin Scale   =       1.2000000000000000 [-]
	 SCS Same-Spin Energy      =      -0.1323455141280044 [Eh]
	 SCS Opposite-Spin Energy  =      -1.6241839209131939 [Eh]
	 SCS Correlation Energy    =      -1.7565294350411982 [Eh]
	 SCS Total Energy          =    -363.6504604628563584 [Eh]
	-----------------------------------------------------------

*** Psi4 exiting successfully. Buy a developer a beer!
