                               Psi4 1.4a2.dev224

  ==> Input File <==

--------------------------------------------------------------------------
#Generated by lconvert.py for cbs job

memory 40 GB

molecule  {
0 1
  O       -0.6276520     0.0874670     0.0014710
  H        0.3436020     0.1223030    -0.0006000
  C       -0.9779310    -1.2785560     0.0012380
  H       -2.0633920    -1.3420430     0.0050090
  H       -0.6148840    -1.8063760    -0.8853840
  H       -0.6086400    -1.8082370     0.8841730
--
0 1
  N        2.4885420     0.0045640    -0.0017420
  C        3.1849110    -0.0198710    -1.1464610
  H        2.6004320     0.0033530    -2.0574370
  C        4.5745480    -0.0696140    -1.1951470
  H        5.0819000    -0.0869060    -2.1489290
  C        5.2849210    -0.0953260     0.0004660
  H        6.3652570    -0.1330910     0.0013160
  C        4.5726740    -0.0703050     1.1950060
  H        5.0784720    -0.0881300     2.1494920
  C        3.1831200    -0.0205560     1.1440520
  H        2.5971140     0.0021190     2.0541710
units angstrom
no_reorient
symmetry c1
}

set {
scf_type DF
mp2_type DF
e_convergence 7
reference rhf
}

energy('mp2/aug-cc-pv[tq]z', bsse_type='cp')
--------------------------------------------------------------------------

    Molecular point group: c1
  Charge       = 0
  Multiplicity = 1
  Basis Set: AUG-CC-PVTZ
    Blend: AUG-CC-PVTZ
  Basis Set: (AUG-CC-PVTZ AUX)
    Blend: AUG-CC-PVTZ-JKFIT
  @DF-RHF Final Energy:  -246.77874963885182
    Total Energy =                       -246.7787496388518207
  Basis Set: (AUG-CC-PVTZ AUX)
    Blend: AUG-CC-PVTZ-RI
	 Reference Energy          =    -246.7787496388518207 [Eh]
	 Singles Energy            =      -0.0000000000000000 [Eh]
	 Same-Spin Energy          =      -0.2687957897038730 [Eh]
	 Opposite-Spin Energy      =      -0.8387689896496016 [Eh]
	 Correlation Energy        =      -1.1075647793534746 [Eh]
	 Total Energy              =    -247.8863144182053020 [Eh]
	 SCS Total Energy          =    -247.8748710229992867 [Eh]
    Molecular point group: c1
  Basis Set: AUG-CC-PVQZ
    Blend: AUG-CC-PVQZ
  Basis Set: (AUG-CC-PVQZ AUX)
    Blend: AUG-CC-PVQZ-JKFIT
  @DF-RHF Final Energy:  -246.79289693527056
    Total Energy =                       -246.7928969352705622
  Basis Set: (AUG-CC-PVQZ AUX)
  @DF-RHF Final Energy:  -246.77883942246666
    Total Energy =                       -246.7788394224666604
  @DF-RHF Final Energy:  -246.79292135956464
    Total Energy =                       -246.7929213595646161
  @DF-RHF Final Energy:  -115.09142795931935
    Total Energy =                       -115.0914279593193470
  @DF-RHF Final Energy:  -115.09887929904832
    Total Energy =                       -115.0988792990483205
  @DF-RHF Final Energy:  -115.09134047153104
    Total Energy =                       -115.0913404715310406
  @DF-RHF Final Energy:  -115.09884745852554
    Total Energy =                       -115.0988474585255403
  Multiplicity = 1
  @DF-RHF Final Energy:  -361.87759173634572
    Total Energy =                       -361.8775917363457211
	 Singles Energy            =      -0.0000000000000000 [Eh]
	 Same-Spin Energy          =      -0.3769060113729595 [Eh]
	 Opposite-Spin Energy      =      -1.2072905619291279 [Eh]
	 Correlation Energy        =      -1.5841965733020875 [Eh]
	 Total Energy              =    -363.4617883096478295 [Eh]
	 SCS Total Energy          =    -363.4519757477850135 [Eh]
    Molecular point group: c1

    Geometry (in Angstrom), charge = 0, multiplicity = 1:

       Center              X                  Y                   Z               Mass
    ------------   -----------------  -----------------  -----------------  -----------------
         O           -3.163041835258     0.288829414734     0.001553756781    15.994914619570
         H           -2.191787835258     0.323665414734    -0.000517243219     1.007825032230
         C           -3.513320835258    -1.077193585266     0.001320756781    12.000000000000
         H           -4.598781835258    -1.140680585266     0.005091756781     1.007825032230
         H           -3.150273835258    -1.605013585266    -0.885301243219     1.007825032230
         H           -3.144029835258    -1.606874585266     0.884255756781     1.007825032230
         N           -0.046847835258     0.205926414734    -0.001659243219    14.003074004430
         C            0.649521164742     0.181491414734    -1.146378243219    12.000000000000
         H            0.065042164742     0.204715414734    -2.057354243219     1.007825032230
         C            2.039158164742     0.131748414734    -1.195064243219    12.000000000000
         H            2.546510164742     0.114456414734    -2.148846243219     1.007825032230
         C            2.749531164742     0.106036414734     0.000548756781    12.000000000000
         H            3.829867164742     0.068271414734     0.001398756781     1.007825032230
         C            2.037284164742     0.131057414734     1.195088756781    12.000000000000
         H            2.543082164742     0.113232414734     2.149574756781     1.007825032230
         C            0.647730164742     0.180806414734     1.144134756781    12.000000000000
         H            0.061724164742     0.203481414734     2.054253756781     1.007825032230

  Charge       = 0
  Multiplicity = 1
  Basis Set: AUG-CC-PVQZ
    Blend: AUG-CC-PVQZ
  Basis Set: (AUG-CC-PVQZ AUX)
    Blend: AUG-CC-PVQZ-JKFIT

    Orbital Energies [Eh]
    ---------------------

    Doubly Occupied:

       1A    -20.524329     2A    -15.580587     3A    -11.287254
       4A    -11.287236     5A    -11.270621     6A    -11.251850
       7A    -11.251799     8A    -11.248336     9A     -1.328674
      10A     -1.270993    11A     -1.101271    12A     -1.046282
      13A     -0.901079    14A     -0.871145    15A     -0.868995
      16A     -0.735353    17A     -0.673562    18A     -0.668097
      19A     -0.664014    20A     -0.611019    21A     -0.596717
      22A     -0.589466    23A     -0.569584    24A     -0.555071
      25A     -0.532425    26A     -0.482235    27A     -0.434832
      28A     -0.423110    29A     -0.397322    30A     -0.359571

  @DF-RHF Final Energy:  -361.89914797449586

   => Energetics <=

    Nuclear Repulsion Energy =            333.2153916445577124
    One-Electron Energy =               -1151.4634218179426171
    Two-Electron Energy =                 456.3488821988890436
    Total Energy =                       -361.8991479744958610

  Dipole Moment: [D]
     X:     4.4276      Y:    -1.2912      Z:    -0.0019     Total:     4.6121

  Basis Set: (AUG-CC-PVQZ AUX)
    Blend: AUG-CC-PVQZ-RI
	 Reference Energy          =    -361.8991479744958610 [Eh]
	 Singles Energy            =      -0.0000000000000000 [Eh]
	 Same-Spin Energy          =      -0.3989350099794877 [Eh]
	 Opposite-Spin Energy      =      -1.3556731740693815 [Eh]
	 Correlation Energy        =      -1.7546081840488692 [Eh]
	 Total Energy              =    -363.6537561585447520 [Eh]

	 ================> DF-SCS-MP2 Energies <==================
	-----------------------------------------------------------
	 SCS Same-Spin Scale       =       0.3333333333333333 [-]
	 SCS Opposite-Spin Scale   =       1.2000000000000000 [-]
	 SCS Same-Spin Energy      =      -0.1329783366598292 [Eh]
	 SCS Opposite-Spin Energy  =      -1.6268078088832578 [Eh]
	 SCS Correlation Energy    =      -1.7597861455430870 [Eh]
	 SCS Total Energy          =    -363.6589341200389640 [Eh]
	-----------------------------------------------------------

*** Psi4 exiting successfully. Buy a developer a beer!
