                               Psi4 1.4a2.dev224

  ==> Input File <==

--------------------------------------------------------------------------
#Generated by lconvert.py for cbs job

memory 40 GB

molecule  {
0 1
  C       -1.0617090     1.2971410     0.2920600
  O       -0.3581610     2.2704590     0.5318130
  O       -0.5893040     0.0949180     0.0037890
  H        0.4044360     0.1277230     0.0184120
  C       -2.5584280     1.3425500     0.2962570
  H       -2.8959980     2.3474640     0.5183160
  H       -2.9328890     1.0223900    -0.6729960
  H       -2.9372120     0.6449100     1.0395570
--
0 1
  C        2.6305140     1.1077160     0.2699680
  O        1.9268960     0.1344020     0.0301810
  O        2.1580880     2.3101520     0.5577470
  H        1.1642990     2.2772540     0.5433460
  C        4.1272260     1.0618140     0.2680040
  H        4.4648060     0.0604940     0.0304780
  H        4.5087250     1.7721670    -0.4614650
  H        4.4987430     1.3645080     1.2440590
units angstrom
no_reorient
symmetry c1
}

set {
scf_type DF
mp2_type DF
e_convergence 7
reference rhf
}

energy('mp2/aug-cc-pv[tq]z', bsse_type='cp')
--------------------------------------------------------------------------

    Molecular point group: c1
  Charge       = 0
  Multiplicity = 1
  Basis Set: AUG-CC-PVTZ
    Blend: AUG-CC-PVTZ
  Basis Set: (AUG-CC-PVTZ AUX)
    Blend: AUG-CC-PVTZ-JKFIT
  @DF-RHF Final Energy:  -227.90261453348950
    Total Energy =                       -227.9026145334894977
  Basis Set: (AUG-CC-PVTZ AUX)
    Blend: AUG-CC-PVTZ-RI
	 Reference Energy          =    -227.9026145334894977 [Eh]
	 Singles Energy            =      -0.0000000000000000 [Eh]
	 Same-Spin Energy          =      -0.2152390187798598 [Eh]
	 Opposite-Spin Energy      =      -0.6696504839363090 [Eh]
	 Correlation Energy        =      -0.8848895027161688 [Eh]
	 Total Energy              =    -228.7875040362056609 [Eh]
	 SCS Total Energy          =    -228.7779414538063634 [Eh]
    Molecular point group: c1
  Basis Set: AUG-CC-PVQZ
    Blend: AUG-CC-PVQZ
  Basis Set: (AUG-CC-PVQZ AUX)
    Blend: AUG-CC-PVQZ-JKFIT
  @DF-RHF Final Energy:  -227.91729065237593
    Total Energy =                       -227.9172906523759252
  Basis Set: (AUG-CC-PVQZ AUX)
  @DF-RHF Final Energy:  -227.90292434968535
    Total Energy =                       -227.9029243496853496
  @DF-RHF Final Energy:  -227.91737318178690
    Total Energy =                       -227.9173731817868997
  @DF-RHF Final Energy:  -227.90293278397675
    Total Energy =                       -227.9029327839767518
  @DF-RHF Final Energy:  -227.91738214364671
    Total Energy =                       -227.9173821436467051
  @DF-RHF Final Energy:  -227.90262296112934
    Total Energy =                       -227.9026229611293388
  @DF-RHF Final Energy:  -227.91729961036168
    Total Energy =                       -227.9172996103616811
  Multiplicity = 1
  @DF-RHF Final Energy:  -455.82645201426840
    Total Energy =                       -455.8264520142683978
	 Singles Energy            =      -0.0000000000000000 [Eh]
	 Same-Spin Energy          =      -0.4365068139969783 [Eh]
	 Opposite-Spin Energy      =      -1.3446525550418174 [Eh]
	 Correlation Energy        =      -1.7811593690387957 [Eh]
	 Total Energy              =    -457.6076113833071872 [Eh]
	 SCS Total Energy          =    -457.5855373516508848 [Eh]
    Molecular point group: c1

    Geometry (in Angstrom), charge = 0, multiplicity = 1:

       Center              X                  Y                   Z               Mass
    ------------   -----------------  -----------------  -----------------  -----------------
         C           -1.846096072408     0.094754008774     0.010795518157    12.000000000000
         O           -1.142548072408     1.068072008774     0.250548518157    15.994914619570
         O           -1.373691072408    -1.107468991226    -0.277475481843    15.994914619570
         H           -0.379951072408    -1.074663991226    -0.262852481843     1.007825032230
         C           -3.342815072408     0.140163008774     0.014992518157    12.000000000000
         H           -3.680385072408     1.145077008774     0.237051518157     1.007825032230
         H           -3.717276072408    -0.179996991226    -0.954260481843     1.007825032230
         H           -3.721599072408    -0.557476991226     0.758292518157     1.007825032230
         C            1.846126927592    -0.094670991226    -0.011296481843    12.000000000000
         O            1.142508927592    -1.067984991226    -0.251083481843    15.994914619570
         O            1.373700927592     1.107765008774     0.276482518157    15.994914619570
         H            0.379911927592     1.074867008774     0.262081518157     1.007825032230
         C            3.342838927592    -0.140572991226    -0.013260481843    12.000000000000
         H            3.680418927592    -1.141892991226    -0.250786481843     1.007825032230
         H            3.724337927592     0.569780008774    -0.742729481843     1.007825032230
         H            3.714355927592     0.162121008774     0.962794518157     1.007825032230

  Charge       = 0
  Multiplicity = 1
  Basis Set: AUG-CC-PVQZ
    Blend: AUG-CC-PVQZ
  Basis Set: (AUG-CC-PVQZ AUX)
    Blend: AUG-CC-PVQZ-JKFIT

    Orbital Energies [Eh]
    ---------------------

    Doubly Occupied:

       1A    -20.587532     2A    -20.587525     3A    -20.557387
       4A    -20.557374     5A    -11.396956     6A    -11.396937
       7A    -11.242644     8A    -11.242638     9A     -1.474226
      10A     -1.454562    11A     -1.374915    12A     -1.352697
      13A     -1.036308    14A     -1.024652    15A     -0.845020
      16A     -0.814921    17A     -0.758309    18A     -0.697078
      19A     -0.682998    20A     -0.673248    21A     -0.656471
      22A     -0.647426    23A     -0.592671    24A     -0.582334
      25A     -0.573151    26A     -0.561569    27A     -0.555829
      28A     -0.555331    29A     -0.496856    30A     -0.480363
      31A     -0.475485    32A     -0.454853

  @DF-RHF Final Energy:  -455.85549789487897

   => Energetics <=

    Nuclear Repulsion Energy =            387.5850947560966802
    One-Electron Energy =               -1394.1006297542496668
    Two-Electron Energy =                 550.6600371032741350
    Total Energy =                       -455.8554978948789085

  Dipole Moment: [D]
     X:     0.0003      Y:    -0.0012      Z:     0.0042     Total:     0.0044

  Basis Set: (AUG-CC-PVQZ AUX)
    Blend: AUG-CC-PVQZ-RI
	 Reference Energy          =    -455.8554978948789653 [Eh]
	 Singles Energy            =      -0.0000000000000000 [Eh]
	 Same-Spin Energy          =      -0.4634290927882723 [Eh]
	 Opposite-Spin Energy      =      -1.5203168437235213 [Eh]
	 Correlation Energy        =      -1.9837459365117935 [Eh]
	 Total Energy              =    -457.8392438313907746 [Eh]

	 ================> DF-SCS-MP2 Energies <==================
	-----------------------------------------------------------
	 SCS Same-Spin Scale       =       0.3333333333333333 [-]
	 SCS Opposite-Spin Scale   =       1.2000000000000000 [-]
	 SCS Same-Spin Energy      =      -0.1544763642627574 [Eh]
	 SCS Opposite-Spin Energy  =      -1.8243802124682253 [Eh]
	 SCS Correlation Energy    =      -1.9788565767309827 [Eh]
	 SCS Total Energy          =    -457.8343544716099700 [Eh]
	-----------------------------------------------------------

*** Psi4 exiting successfully. Buy a developer a beer!
