                               Psi4 1.4a2.dev224

  ==> Input File <==

--------------------------------------------------------------------------
#Generated by lconvert.py for cbs job

memory 40 GB

molecule  {
0 1
  C       -1.0617090     1.2971410     0.2920600
  O       -0.3581610     2.2704590     0.5318130
  O       -0.5893040     0.0949180     0.0037890
  H        0.4044360     0.1277230     0.0184120
  C       -2.5584280     1.3425500     0.2962570
  H       -2.8959980     2.3474640     0.5183160
  H       -2.9328890     1.0223900    -0.6729960
  H       -2.9372120     0.6449100     1.0395570
--
0 1
  C        2.7150890     1.1080910     0.2706150
  O        2.0114710     0.1347760     0.0308280
  O        2.2426630     2.3105260     0.5583940
  H        1.2488750     2.2776280     0.5439930
  C        4.2118020     1.0621880     0.2686510
  H        4.5493810     0.0608690     0.0311260
  H        4.5933000     1.7725410    -0.4608180
  H        4.5833180     1.3648820     1.2447060
units angstrom
no_reorient
symmetry c1
}

set {
scf_type DF
mp2_type DF
e_convergence 7
reference rhf
}

energy('mp2/aug-cc-pv[tq]z', bsse_type='cp')
--------------------------------------------------------------------------

    Molecular point group: c1
  Charge       = 0
  Multiplicity = 1
  Basis Set: AUG-CC-PVTZ
    Blend: AUG-CC-PVTZ
  Basis Set: (AUG-CC-PVTZ AUX)
    Blend: AUG-CC-PVTZ-JKFIT
  @DF-RHF Final Energy:  -227.90261453666787
    Total Energy =                       -227.9026145366678691
  Basis Set: (AUG-CC-PVTZ AUX)
    Blend: AUG-CC-PVTZ-RI
	 Reference Energy          =    -227.9026145366678691 [Eh]
	 Singles Energy            =      -0.0000000000000000 [Eh]
	 Same-Spin Energy          =      -0.2152390112938283 [Eh]
	 Opposite-Spin Energy      =      -0.6696504584956799 [Eh]
	 Correlation Energy        =      -0.8848894697895082 [Eh]
	 Total Energy              =    -228.7875040064573682 [Eh]
	 SCS Total Energy          =    -228.7779414239606410 [Eh]
    Molecular point group: c1
  Basis Set: AUG-CC-PVQZ
    Blend: AUG-CC-PVQZ
  Basis Set: (AUG-CC-PVQZ AUX)
    Blend: AUG-CC-PVQZ-JKFIT
  @DF-RHF Final Energy:  -227.91729065698169
    Total Energy =                       -227.9172906569816917
  Basis Set: (AUG-CC-PVQZ AUX)
  @DF-RHF Final Energy:  -227.90289678235646
    Total Energy =                       -227.9028967823564642
  @DF-RHF Final Energy:  -227.91736729293407
    Total Energy =                       -227.9173672929340739
  @DF-RHF Final Energy:  -227.90290521066291
    Total Energy =                       -227.9029052106629081
  @DF-RHF Final Energy:  -227.91737624926873
    Total Energy =                       -227.9173762492687274
  @DF-RHF Final Energy:  -227.90262296115887
    Total Energy =                       -227.9026229611588690
  @DF-RHF Final Energy:  -227.91729961109831
    Total Energy =                       -227.9172996110983149
  Multiplicity = 1
  @DF-RHF Final Energy:  -455.82934752510943
    Total Energy =                       -455.8293475251093696
	 Singles Energy            =      -0.0000000000000000 [Eh]
	 Same-Spin Energy          =      -0.4357024855362572 [Eh]
	 Opposite-Spin Energy      =      -1.3441205026164718 [Eh]
	 Correlation Energy        =      -1.7798229881527290 [Eh]
	 Total Energy              =    -457.6091705132621428 [Eh]
	 SCS Total Energy          =    -457.5875262900946154 [Eh]
    Molecular point group: c1

    Geometry (in Angstrom), charge = 0, multiplicity = 1:

       Center              X                  Y                   Z               Mass
    ------------   -----------------  -----------------  -----------------  -----------------
         C           -1.888383680768     0.094566900413     0.010472009762    12.000000000000
         O           -1.184835680768     1.067884900413     0.250225009762    15.994914619570
         O           -1.415978680768    -1.107656099587    -0.277798990238    15.994914619570
         H           -0.422238680768    -1.074851099587    -0.263175990238     1.007825032230
         C           -3.385102680768     0.139975900413     0.014669009762    12.000000000000
         H           -3.722672680768     1.144889900413     0.236728009762     1.007825032230
         H           -3.759563680768    -0.180184099587    -0.954583990238     1.007825032230
         H           -3.763886680768    -0.557664099587     0.757969009762     1.007825032230
         C            1.888414319232    -0.094483099587    -0.010972990238    12.000000000000
         O            1.184796319232    -1.067798099587    -0.250759990238    15.994914619570
         O            1.415988319232     1.107951900413     0.276806009762    15.994914619570
         H            0.422200319232     1.075053900413     0.262405009762     1.007825032230
         C            3.385127319232    -0.140386099587    -0.012936990238    12.000000000000
         H            3.722706319232    -1.141705099587    -0.250461990238     1.007825032230
         H            3.766625319232     0.569966900413    -0.742405990238     1.007825032230
         H            3.756643319232     0.162307900413     0.963118009762     1.007825032230

  Charge       = 0
  Multiplicity = 1
  Basis Set: AUG-CC-PVQZ
    Blend: AUG-CC-PVQZ
  Basis Set: (AUG-CC-PVQZ AUX)
    Blend: AUG-CC-PVQZ-JKFIT

    Orbital Energies [Eh]
    ---------------------

    Doubly Occupied:

       1A    -20.592515     2A    -20.592510     3A    -20.556244
       4A    -20.556229     5A    -11.396285     6A    -11.396266
       7A    -11.242775     8A    -11.242770     9A     -1.472145
      10A     -1.456726    11A     -1.371422    12A     -1.354074
      13A     -1.034892    14A     -1.025343    15A     -0.841022
      16A     -0.815025    17A     -0.751624    18A     -0.696235
      19A     -0.685334    20A     -0.674591    21A     -0.655997
      22A     -0.648500    23A     -0.591292    24A     -0.582287
      25A     -0.573905    26A     -0.561566    27A     -0.557453
      28A     -0.556586    29A     -0.494723    30A     -0.481369
      31A     -0.474907    32A     -0.455407

  @DF-RHF Final Energy:  -455.85843554646027

   => Energetics <=

    Nuclear Repulsion Energy =            384.2614544368842644
    One-Electron Energy =               -1387.4637229043871685
    Two-Electron Energy =                 547.3438329210426900
    Total Energy =                       -455.8584355464602140

  Dipole Moment: [D]
     X:     0.0003      Y:    -0.0012      Z:     0.0041     Total:     0.0043

  Basis Set: (AUG-CC-PVQZ AUX)
    Blend: AUG-CC-PVQZ-RI
	 Reference Energy          =    -455.8584355464602709 [Eh]
	 Singles Energy            =      -0.0000000000000000 [Eh]
	 Same-Spin Energy          =      -0.4625936073236422 [Eh]
	 Opposite-Spin Energy      =      -1.5198279562489496 [Eh]
	 Correlation Energy        =      -1.9824215635725917 [Eh]
	 Total Energy              =    -457.8408571100328572 [Eh]

	 ================> DF-SCS-MP2 Energies <==================
	-----------------------------------------------------------
	 SCS Same-Spin Scale       =       0.3333333333333333 [-]
	 SCS Opposite-Spin Scale   =       1.2000000000000000 [-]
	 SCS Same-Spin Energy      =      -0.1541978691078807 [Eh]
	 SCS Opposite-Spin Energy  =      -1.8237935474987395 [Eh]
	 SCS Correlation Energy    =      -1.9779914166066201 [Eh]
	 SCS Total Energy          =    -457.8364269630669128 [Eh]
	-----------------------------------------------------------

*** Psi4 exiting successfully. Buy a developer a beer!
