                               Psi4 1.4a2.dev224

  ==> Input File <==

--------------------------------------------------------------------------
#Generated by lconvert.py for cbs job

memory 40 GB

molecule  {
0 1
  C       -1.0617090     1.2971410     0.2920600
  O       -0.3581610     2.2704590     0.5318130
  O       -0.5893040     0.0949180     0.0037890
  H        0.4044360     0.1277230     0.0184120
  C       -2.5584280     1.3425500     0.2962570
  H       -2.8959980     2.3474640     0.5183160
  H       -2.9328890     1.0223900    -0.6729960
  H       -2.9372120     0.6449100     1.0395570
--
0 1
  C        2.4612630     1.1069560     0.2686960
  O        1.7576440     0.1336410     0.0289090
  O        1.9888360     2.3093910     0.5564750
  H        0.9950480     2.2764930     0.5420740
  C        3.9579750     1.0610530     0.2667320
  H        4.2955550     0.0597340     0.0292070
  H        4.3394740     1.7714060    -0.4627370
  H        4.3294910     1.3637480     1.2427870
units angstrom
no_reorient
symmetry c1
}

set {
scf_type DF
mp2_type DF
e_convergence 7
reference rhf
}

energy('mp2/aug-cc-pv[tq]z', bsse_type='cp')
--------------------------------------------------------------------------

    Molecular point group: c1
  Charge       = 0
  Multiplicity = 1
  Basis Set: AUG-CC-PVTZ
    Blend: AUG-CC-PVTZ
  Basis Set: (AUG-CC-PVTZ AUX)
    Blend: AUG-CC-PVTZ-JKFIT
  @DF-RHF Final Energy:  -227.90261447084407
    Total Energy =                       -227.9026144708440711
  Basis Set: (AUG-CC-PVTZ AUX)
    Blend: AUG-CC-PVTZ-RI
	 Reference Energy          =    -227.9026144708440711 [Eh]
	 Singles Energy            =      -0.0000000000000000 [Eh]
	 Same-Spin Energy          =      -0.2152390289001731 [Eh]
	 Opposite-Spin Energy      =      -0.6696504969356414 [Eh]
	 Correlation Energy        =      -0.8848895258358145 [Eh]
	 Total Energy              =    -228.7875039966798738 [Eh]
	 SCS Total Energy          =    -228.7779414101335647 [Eh]
    Molecular point group: c1
  Basis Set: AUG-CC-PVQZ
    Blend: AUG-CC-PVQZ
  Basis Set: (AUG-CC-PVQZ AUX)
    Blend: AUG-CC-PVQZ-JKFIT
  @DF-RHF Final Energy:  -227.91729058645291
    Total Energy =                       -227.9172905864529071
  Basis Set: (AUG-CC-PVQZ AUX)
  @DF-RHF Final Energy:  -227.90298350772787
    Total Energy =                       -227.9029835077278676
  @DF-RHF Final Energy:  -227.91738558210912
    Total Energy =                       -227.9173855821091195
  @DF-RHF Final Energy:  -227.90299201409653
    Total Energy =                       -227.9029920140965260
  @DF-RHF Final Energy:  -227.91739460989413
    Total Energy =                       -227.9173946098941315
  @DF-RHF Final Energy:  -227.90262296098183
    Total Energy =                       -227.9026229609818301
  @DF-RHF Final Energy:  -227.91729961159140
    Total Energy =                       -227.9172996115914032
  Multiplicity = 1
  @DF-RHF Final Energy:  -455.81199237062481
    Total Energy =                       -455.8119923706248073
	 Singles Energy            =      -0.0000000000000000 [Eh]
	 Same-Spin Energy          =      -0.4383711827898032 [Eh]
	 Opposite-Spin Energy      =      -1.3459127884845856 [Eh]
	 Correlation Energy        =      -1.7842839712743888 [Eh]
	 Total Energy              =    -457.5962763418991699 [Eh]
	 SCS Total Energy          =    -457.5732114444028866 [Eh]
    Molecular point group: c1

    Geometry (in Angstrom), charge = 0, multiplicity = 1:

       Center              X                  Y                   Z               Mass
    ------------   -----------------  -----------------  -----------------  -----------------
         C           -1.761470297524     0.095134392018     0.011431509762    12.000000000000
         O           -1.057922297524     1.068452392018     0.251184509762    15.994914619570
         O           -1.289065297524    -1.107088607982    -0.276839490238    15.994914619570
         H           -0.295325297524    -1.074283607982    -0.262216490238     1.007825032230
         C           -3.258189297524     0.140543392018     0.015628509762    12.000000000000
         H           -3.595759297524     1.145457392018     0.237687509762     1.007825032230
         H           -3.632650297524    -0.179616607982    -0.953624490238     1.007825032230
         H           -3.636973297524    -0.557096607982     0.758928509762     1.007825032230
         C            1.761501702476    -0.095050607982    -0.011932490238    12.000000000000
         O            1.057882702476    -1.068365607982    -0.251719490238    15.994914619570
         O            1.289074702476     1.107384392018     0.275846509762    15.994914619570
         H            0.295286702476     1.074486392018     0.261445509762     1.007825032230
         C            3.258213702476    -0.140953607982    -0.013896490238    12.000000000000
         H            3.595793702476    -1.142272607982    -0.251421490238     1.007825032230
         H            3.639712702476     0.569399392018    -0.743365490238     1.007825032230
         H            3.629729702476     0.161741392018     0.962158509762     1.007825032230

  Charge       = 0
  Multiplicity = 1
  Basis Set: AUG-CC-PVQZ
    Blend: AUG-CC-PVQZ
  Basis Set: (AUG-CC-PVQZ AUX)
    Blend: AUG-CC-PVQZ-JKFIT

    Orbital Energies [Eh]
    ---------------------

    Doubly Occupied:

       1A    -20.574848     2A    -20.574841     3A    -20.559751
       4A    -20.559740     5A    -11.398387     6A    -11.398369
       7A    -11.242285     8A    -11.242279     9A     -1.481535
      10A     -1.449768    11A     -1.384598    12A     -1.348356
      13A     -1.040499    14A     -1.022939    15A     -0.857156
      16A     -0.822604    17A     -0.768057    18A     -0.700409
      19A     -0.676416    20A     -0.670315    21A     -0.658257
      22A     -0.645061    23A     -0.595205    24A     -0.582322
      25A     -0.570829    26A     -0.562159    27A     -0.553091
      28A     -0.552608    29A     -0.501781    30A     -0.476802
      31A     -0.475115    32A     -0.452024

  @DF-RHF Final Energy:  -455.84099277447967

   => Energetics <=

    Nuclear Repulsion Energy =            394.7737204866022012
    One-Electron Energy =               -1408.4325941109248106
    Two-Electron Energy =                 557.8178808498429362
    Total Energy =                       -455.8409927744796732

  Dipole Moment: [D]
     X:     0.0003      Y:    -0.0012      Z:     0.0042     Total:     0.0044

  Basis Set: (AUG-CC-PVQZ AUX)
    Blend: AUG-CC-PVQZ-RI
	 Reference Energy          =    -455.8409927744796732 [Eh]
	 Singles Energy            =      -0.0000000000000000 [Eh]
	 Same-Spin Energy          =      -0.4653608421659773 [Eh]
	 Opposite-Spin Energy      =      -1.5213724847418582 [Eh]
	 Correlation Energy        =      -1.9867333269078356 [Eh]
	 Total Energy              =    -457.8277261013874977 [Eh]

	 ================> DF-SCS-MP2 Energies <==================
	-----------------------------------------------------------
	 SCS Same-Spin Scale       =       0.3333333333333333 [-]
	 SCS Opposite-Spin Scale   =       1.2000000000000000 [-]
	 SCS Same-Spin Energy      =      -0.1551202807219924 [Eh]
	 SCS Opposite-Spin Energy  =      -1.8256469816902297 [Eh]
	 SCS Correlation Energy    =      -1.9807672624122221 [Eh]
	 SCS Total Energy          =    -457.8217600368918738 [Eh]
	-----------------------------------------------------------

*** Psi4 exiting successfully. Buy a developer a beer!
