                               Psi4 1.4a2.dev224

  ==> Input File <==

--------------------------------------------------------------------------
#Generated by lconvert.py for cbs job

memory 40 GB

molecule  {
0 1
  C       -1.0617090     1.2971410     0.2920600
  O       -0.3581610     2.2704590     0.5318130
  O       -0.5893040     0.0949180     0.0037890
  H        0.4044360     0.1277230     0.0184120
  C       -2.5584280     1.3425500     0.2962570
  H       -2.8959980     2.3474640     0.5183160
  H       -2.9328890     1.0223900    -0.6729960
  H       -2.9372120     0.6449100     1.0395570
--
0 1
  C        2.2921120     1.1062020     0.2674140
  O        1.5884930     0.1328870     0.0276260
  O        1.8196850     2.3086370     0.5551920
  H        0.8258970     2.2757390     0.5407920
  C        3.7888240     1.0602990     0.2654490
  H        4.1264040     0.0589800     0.0279240
  H        4.1703230     1.7706520    -0.4640200
  H        4.1603400     1.3629930     1.2415050
units angstrom
no_reorient
symmetry c1
}

set {
scf_type DF
mp2_type DF
e_convergence 7
reference rhf
}

energy('mp2/aug-cc-pv[tq]z', bsse_type='cp')
--------------------------------------------------------------------------

    Molecular point group: c1
  Charge       = 0
  Multiplicity = 1
  Basis Set: AUG-CC-PVTZ
    Blend: AUG-CC-PVTZ
  Basis Set: (AUG-CC-PVTZ AUX)
    Blend: AUG-CC-PVTZ-JKFIT
  @DF-RHF Final Energy:  -227.90261444333464
    Total Energy =                       -227.9026144433346417
  Basis Set: (AUG-CC-PVTZ AUX)
    Blend: AUG-CC-PVTZ-RI
	 Reference Energy          =    -227.9026144433346417 [Eh]
	 Singles Energy            =      -0.0000000000000000 [Eh]
	 Same-Spin Energy          =      -0.2152390302241279 [Eh]
	 Opposite-Spin Energy      =      -0.6696505033084308 [Eh]
	 Correlation Energy        =      -0.8848895335325587 [Eh]
	 Total Energy              =    -228.7875039768672139 [Eh]
	 SCS Total Energy          =    -228.7779413907128117 [Eh]
    Molecular point group: c1
  Basis Set: AUG-CC-PVQZ
    Blend: AUG-CC-PVQZ
  Basis Set: (AUG-CC-PVQZ AUX)
    Blend: AUG-CC-PVQZ-JKFIT
  @DF-RHF Final Energy:  -227.91729055776997
    Total Energy =                       -227.9172905577699737
  Basis Set: (AUG-CC-PVQZ AUX)
  @DF-RHF Final Energy:  -227.90305311035527
    Total Energy =                       -227.9030531103552732
  @DF-RHF Final Energy:  -227.91739959345392
    Total Energy =                       -227.9173995934539221
  @DF-RHF Final Energy:  -227.90306165790372
    Total Energy =                       -227.9030616579037201
  @DF-RHF Final Energy:  -227.91740864608215
    Total Energy =                       -227.9174086460821513
  @DF-RHF Final Energy:  -227.90262296121915
    Total Energy =                       -227.9026229612191514
  @DF-RHF Final Energy:  -227.91729961073932
    Total Energy =                       -227.9172996107393203
  Multiplicity = 1
  @DF-RHF Final Energy:  -455.77532283605086
    Total Energy =                       -455.7753228360509183
	 Singles Energy            =      -0.0000000000000000 [Eh]
	 Same-Spin Energy          =      -0.4404550690468452 [Eh]
	 Opposite-Spin Energy      =      -1.3473030433687265 [Eh]
	 Correlation Energy        =      -1.7877581124155717 [Eh]
	 Total Energy              =    -457.5630809484664496 [Eh]
	 SCS Total Energy          =    -457.5389048444422997 [Eh]
    Molecular point group: c1

    Geometry (in Angstrom), charge = 0, multiplicity = 1:

       Center              X                  Y                   Z               Mass
    ------------   -----------------  -----------------  -----------------  -----------------
         C           -1.676894797524     0.095511400413     0.012072893006    12.000000000000
         O           -0.973346797524     1.068829400413     0.251825893006    15.994914619570
         O           -1.204489797524    -1.106711599587    -0.276198106994    15.994914619570
         H           -0.210749797524    -1.073906599587    -0.261575106994     1.007825032230
         C           -3.173613797524     0.140920400413     0.016269893006    12.000000000000
         H           -3.511183797524     1.145834400413     0.238328893006     1.007825032230
         H           -3.548074797524    -0.179239599587    -0.952983106994     1.007825032230
         H           -3.552397797524    -0.556719599587     0.759569893006     1.007825032230
         C            1.676926202476    -0.095427599587    -0.012573106994    12.000000000000
         O            0.973307202476    -1.068742599587    -0.252361106994    15.994914619570
         O            1.204499202476     1.107007400413     0.275204893006    15.994914619570
         H            0.210711202476     1.074109400413     0.260804893006     1.007825032230
         C            3.173638202476    -0.141330599587    -0.014538106994    12.000000000000
         H            3.511218202476    -1.142649599587    -0.252063106994     1.007825032230
         H            3.555137202476     0.569022400413    -0.744007106994     1.007825032230
         H            3.545154202476     0.161363400413     0.961517893006     1.007825032230

  Charge       = 0
  Multiplicity = 1
  Basis Set: AUG-CC-PVQZ
    Blend: AUG-CC-PVQZ
  Basis Set: (AUG-CC-PVQZ AUX)
    Blend: AUG-CC-PVQZ-JKFIT

    Orbital Energies [Eh]
    ---------------------

    Doubly Occupied:

       1A    -20.561794     2A    -20.561785     3A    -20.558071
       4A    -20.558064     5A    -11.399845     6A    -11.399827
       7A    -11.241791     8A    -11.241785     9A     -1.495892
      10A     -1.446589    11A     -1.398306    12A     -1.341141
      13A     -1.047823    14A     -1.020767    15A     -0.876460
      16A     -0.848612    17A     -0.766476    18A     -0.705994
      19A     -0.668118    20A     -0.667375    21A     -0.661992
      22A     -0.642690    23A     -0.596829    24A     -0.582104
      25A     -0.566920    26A     -0.563934    27A     -0.552392
      28A     -0.550623    29A     -0.506871    30A     -0.471430
      31A     -0.470293    32A     -0.445148

  @DF-RHF Final Energy:  -455.80434113199226

   => Energetics <=

    Nuclear Repulsion Energy =            402.8012511599054051
    One-Electron Energy =               -1424.3756910812735441
    Two-Electron Energy =                 565.7700987893758793
    Total Energy =                       -455.8043411319922598

  Dipole Moment: [D]
     X:     0.0002      Y:    -0.0013      Z:     0.0043     Total:     0.0045

  Basis Set: (AUG-CC-PVQZ AUX)
    Blend: AUG-CC-PVQZ-RI
	 Reference Energy          =    -455.8043411319922598 [Eh]
	 Singles Energy            =      -0.0000000000000000 [Eh]
	 Same-Spin Energy          =      -0.4674809862750148 [Eh]
	 Opposite-Spin Energy      =      -1.5221675953562688 [Eh]
	 Correlation Energy        =      -1.9896485816312837 [Eh]
	 Total Energy              =    -457.7939897136235459 [Eh]

	 ================> DF-SCS-MP2 Energies <==================
	-----------------------------------------------------------
	 SCS Same-Spin Scale       =       0.3333333333333333 [-]
	 SCS Opposite-Spin Scale   =       1.2000000000000000 [-]
	 SCS Same-Spin Energy      =      -0.1558269954250049 [Eh]
	 SCS Opposite-Spin Energy  =      -1.8266011144275225 [Eh]
	 SCS Correlation Energy    =      -1.9824281098525274 [Eh]
	 SCS Total Energy          =    -457.7867692418448087 [Eh]
	-----------------------------------------------------------

*** Psi4 exiting successfully. Buy a developer a beer!
