                               Psi4 1.4a2.dev224

  ==> Input File <==

--------------------------------------------------------------------------
#Generated by lconvert.py for cbs job

memory 40 GB

molecule  {
0 1
  C       -1.0617090     1.2971410     0.2920600
  O       -0.3581610     2.2704590     0.5318130
  O       -0.5893040     0.0949180     0.0037890
  H        0.4044360     0.1277230     0.0184120
  C       -2.5584280     1.3425500     0.2962570
  H       -2.8959980     2.3474640     0.5183160
  H       -2.9328890     1.0223900    -0.6729960
  H       -2.9372120     0.6449100     1.0395570
--
0 1
  C        2.8842400     1.1088390     0.2719100
  O        2.1806220     0.1355250     0.0321220
  O        2.4118140     2.3112750     0.5596880
  H        1.4180260     2.2783760     0.5452880
  C        4.3809530     1.0629360     0.2699460
  H        4.7185330     0.0616170     0.0324200
  H        4.7624510     1.7732890    -0.4595230
  H        4.7524690     1.3656310     1.2460010
units angstrom
no_reorient
symmetry c1
}

set {
scf_type DF
mp2_type DF
e_convergence 7
reference rhf
}

energy('mp2/aug-cc-pv[tq]z', bsse_type='cp')
--------------------------------------------------------------------------

    Molecular point group: c1
  Charge       = 0
  Multiplicity = 1
  Basis Set: AUG-CC-PVTZ
    Blend: AUG-CC-PVTZ
  Basis Set: (AUG-CC-PVTZ AUX)
    Blend: AUG-CC-PVTZ-JKFIT
  @DF-RHF Final Energy:  -227.90261460214970
    Total Energy =                       -227.9026146021496970
  Basis Set: (AUG-CC-PVTZ AUX)
    Blend: AUG-CC-PVTZ-RI
	 Reference Energy          =    -227.9026146021496970 [Eh]
	 Singles Energy            =      -0.0000000000000000 [Eh]
	 Same-Spin Energy          =      -0.2152390030681812 [Eh]
	 Opposite-Spin Energy      =      -0.6696504520484352 [Eh]
	 Correlation Energy        =      -0.8848894551166164 [Eh]
	 Total Energy              =    -228.7875040572663181 [Eh]
	 SCS Total Energy          =    -228.7779414789638679 [Eh]
    Molecular point group: c1
  Basis Set: AUG-CC-PVQZ
    Blend: AUG-CC-PVQZ
  Basis Set: (AUG-CC-PVQZ AUX)
    Blend: AUG-CC-PVQZ-JKFIT
  @DF-RHF Final Energy:  -227.91729072208051
    Total Energy =                       -227.9172907220805087
  Basis Set: (AUG-CC-PVQZ AUX)
  @DF-RHF Final Energy:  -227.90284109812541
    Total Energy =                       -227.9028410981254069
  @DF-RHF Final Energy:  -227.91735505918032
    Total Energy =                       -227.9173550591803235
  @DF-RHF Final Energy:  -227.90284945699776
    Total Energy =                       -227.9028494569977568
  @DF-RHF Final Energy:  -227.91736395015621
    Total Energy =                       -227.9173639501562150
  @DF-RHF Final Energy:  -227.90262296076605
    Total Energy =                       -227.9026229607660525
  @DF-RHF Final Energy:  -227.91729961061711
    Total Energy =                       -227.9172996106171070
  Multiplicity = 1
  @DF-RHF Final Energy:  -455.83061990247813
    Total Energy =                       -455.8306199024781336
	 Singles Energy            =      -0.0000000000000000 [Eh]
	 Same-Spin Energy          =      -0.4343609917833205 [Eh]
	 Opposite-Spin Energy      =      -1.3432622474342599 [Eh]
	 Correlation Energy        =      -1.7776232392175806 [Eh]
	 Total Energy              =    -457.6082431416957093 [Eh]
	 SCS Total Energy          =    -457.5873215966603311 [Eh]
    Molecular point group: c1

    Geometry (in Angstrom), charge = 0, multiplicity = 1:

       Center              X                  Y                   Z               Mass
    ------------   -----------------  -----------------  -----------------  -----------------
         C           -1.972959189164     0.094192625530     0.009824784645    12.000000000000
         O           -1.269411189164     1.067510625530     0.249577784645    15.994914619570
         O           -1.500554189164    -1.108030374470    -0.278446215355    15.994914619570
         H           -0.506814189164    -1.075225374470    -0.263823215355     1.007825032230
         C           -3.469678189164     0.139601625530     0.014021784645    12.000000000000
         H           -3.807248189164     1.144515625530     0.236080784645     1.007825032230
         H           -3.844139189164    -0.180558374470    -0.955231215355     1.007825032230
         H           -3.848462189164    -0.558038374470     0.757321784645     1.007825032230
         C            1.972989810836    -0.094109374470    -0.010325215355    12.000000000000
         O            1.269371810836    -1.067423374470    -0.250113215355    15.994914619570
         O            1.500563810836     1.108326625530     0.277452784645    15.994914619570
         H            0.506775810836     1.075427625530     0.263052784645     1.007825032230
         C            3.469702810836    -0.140012374470    -0.012289215355    12.000000000000
         H            3.807282810836    -1.141331374470    -0.249815215355     1.007825032230
         H            3.851200810836     0.570340625530    -0.741758215355     1.007825032230
         H            3.841218810836     0.162682625530     0.963765784645     1.007825032230

  Charge       = 0
  Multiplicity = 1
  Basis Set: AUG-CC-PVQZ
    Blend: AUG-CC-PVQZ
  Basis Set: (AUG-CC-PVQZ AUX)
    Blend: AUG-CC-PVQZ-JKFIT

    Orbital Energies [Eh]
    ---------------------

    Doubly Occupied:

       1A    -20.600289     2A    -20.600284     3A    -20.554142
       4A    -20.554127     5A    -11.395056     6A    -11.395037
       7A    -11.242952     8A    -11.242946     9A     -1.469801
      10A     -1.460320    11A     -1.366328    12A     -1.355751
      13A     -1.032882    14A     -1.026436    15A     -0.835858
      16A     -0.817523    17A     -0.739225    18A     -0.696593
      19A     -0.687469    20A     -0.676915    21A     -0.655507
      22A     -0.650347    23A     -0.588657    24A     -0.582129
      25A     -0.574840    26A     -0.561854    27A     -0.560624
      28A     -0.558685    29A     -0.491165    30A     -0.482397
      31A     -0.472905    32A     -0.455659

  @DF-RHF Final Energy:  -455.85980624465697

   => Energetics <=

    Nuclear Repulsion Energy =            378.0782858764715684
    One-Electron Energy =               -1375.1067550958971424
    Two-Electron Energy =                 541.1686629747686084
    Total Energy =                       -455.8598062446569656

  Dipole Moment: [D]
     X:     0.0003      Y:    -0.0012      Z:     0.0041     Total:     0.0043

  Basis Set: (AUG-CC-PVQZ AUX)
    Blend: AUG-CC-PVQZ-RI
	 Reference Energy          =    -455.8598062446569656 [Eh]
	 Singles Energy            =      -0.0000000000000000 [Eh]
	 Same-Spin Energy          =      -0.4612116374973609 [Eh]
	 Opposite-Spin Energy      =      -1.5190409889936995 [Eh]
	 Correlation Energy        =      -1.9802526264910605 [Eh]
	 Total Energy              =    -457.8400588711480168 [Eh]

	 ================> DF-SCS-MP2 Energies <==================
	-----------------------------------------------------------
	 SCS Same-Spin Scale       =       0.3333333333333333 [-]
	 SCS Opposite-Spin Scale   =       1.2000000000000000 [-]
	 SCS Same-Spin Energy      =      -0.1537372124991203 [Eh]
	 SCS Opposite-Spin Energy  =      -1.8228491867924395 [Eh]
	 SCS Correlation Energy    =      -1.9765863992915598 [Eh]
	 SCS Total Energy          =    -457.8363926439484999 [Eh]
	-----------------------------------------------------------

*** Psi4 exiting successfully. Buy a developer a beer!
