                               Psi4 1.4a2.dev224

  ==> Input File <==

--------------------------------------------------------------------------
#Generated by lconvert.py for cbs job

memory 40 GB

molecule  {
0 1
  C       -1.0617090     1.2971410     0.2920600
  O       -0.3581610     2.2704590     0.5318130
  O       -0.5893040     0.0949180     0.0037890
  H        0.4044360     0.1277230     0.0184120
  C       -2.5584280     1.3425500     0.2962570
  H       -2.8959980     2.3474640     0.5183160
  H       -2.9328890     1.0223900    -0.6729960
  H       -2.9372120     0.6449100     1.0395570
--
0 1
  C        2.2921120     1.1062020     0.2674140
  O        1.5884930     0.1328870     0.0276260
  O        1.8196850     2.3086370     0.5551920
  H        0.8258970     2.2757390     0.5407920
  C        3.7888240     1.0602990     0.2654490
  H        4.1264040     0.0589800     0.0279240
  H        4.1703230     1.7706520    -0.4640200
  H        4.1603400     1.3629930     1.2415050
units angstrom
no_reorient
symmetry c1
}

set {
scf_type DF
mp2_type DF
e_convergence 7
reference rhf
}

energy('mp2/aug-cc-pv[tq]z', bsse_type='cp')
--------------------------------------------------------------------------

    Molecular point group: c1
  Charge       = 0
  Multiplicity = 1
  Basis Set: AUG-CC-PVTZ
    Blend: AUG-CC-PVTZ
  Basis Set: (AUG-CC-PVTZ AUX)
    Blend: AUG-CC-PVTZ-JKFIT
  @DF-RHF Final Energy:  -227.90261444333464
    Total Energy =                       -227.9026144433346417
  Basis Set: (AUG-CC-PVTZ AUX)
    Blend: AUG-CC-PVTZ-RI
	 Reference Energy          =    -227.9026144433346417 [Eh]
	 Singles Energy            =      -0.0000000000000000 [Eh]
	 Same-Spin Energy          =      -0.2152390302241279 [Eh]
	 Opposite-Spin Energy      =      -0.6696505033084308 [Eh]
	 Correlation Energy        =      -0.8848895335325587 [Eh]
	 Total Energy              =    -228.7875039768672139 [Eh]
	 SCS Total Energy          =    -228.7779413907128117 [Eh]
    Molecular point group: c1
  Basis Set: AUG-CC-PVQZ
    Blend: AUG-CC-PVQZ
  Basis Set: (AUG-CC-PVQZ AUX)
    Blend: AUG-CC-PVQZ-JKFIT
  @DF-RHF Final Energy:  -227.91729055776997
    Total Energy =                       -227.9172905577699737
  Basis Set: (AUG-CC-PVQZ AUX)
  @DF-RHF Final Energy:  -227.90305311035527
    Total Energy =                       -227.9030531103552732
  @DF-RHF Final Energy:  -227.91739959345392
    Total Energy =                       -227.9173995934539221
  @DF-RHF Final Energy:  -227.90306165790372
    Total Energy =                       -227.9030616579037201
  @DF-RHF Final Energy:  -227.91740864608215
    Total Energy =                       -227.9174086460821513
  @DF-RHF Final Energy:  -227.90262296121915
    Total Energy =                       -227.9026229612191514
  @DF-RHF Final Energy:  -227.91729961073932
    Total Energy =                       -227.9172996107393203
  @DF-RHF Final Energy:  -455.77532283605086
    Total Energy =                       -455.7753228360509183
  @DF-RHF Final Energy:  -455.80434113199226
    Total Energy =                       -455.8043411319922598
*** Psi4 exiting successfully. Buy a developer a beer!
                               Psi4 1.4a2.dev224
  @DF-RHF Final Energy:  -227.90261447084407
    Total Energy =                       -227.9026144708440711
  @DF-RHF Final Energy:  -227.91729058645291
    Total Energy =                       -227.9172905864529071
  @DF-RHF Final Energy:  -227.90298350772787
    Total Energy =                       -227.9029835077278676
  @DF-RHF Final Energy:  -227.91738558210912
    Total Energy =                       -227.9173855821091195
  @DF-RHF Final Energy:  -227.90299201409653
    Total Energy =                       -227.9029920140965260
  @DF-RHF Final Energy:  -227.91739460989413
    Total Energy =                       -227.9173946098941315
  @DF-RHF Final Energy:  -227.90262296098183
    Total Energy =                       -227.9026229609818301
  @DF-RHF Final Energy:  -227.91729961159140
    Total Energy =                       -227.9172996115914032
  @DF-RHF Final Energy:  -455.81199237062481
    Total Energy =                       -455.8119923706248073
  @DF-RHF Final Energy:  -455.84099277447967
    Total Energy =                       -455.8409927744796732
*** Psi4 exiting successfully. Buy a developer a beer!
                               Psi4 1.4a2.dev224
                               Psi4 1.4a2.dev224
                               Psi4 1.4a2.dev224
                               Psi4 1.4a2.dev224
                               Psi4 1.4a2.dev224
                               Psi4 1.4a2.dev224
                               Psi4 1.4a2.dev224
  @DF-RHF Final Energy:  -227.90261550667370
    Total Energy =                       -227.9026155066736976
  @DF-RHF Final Energy:  -227.91729163607636
    Total Energy =                       -227.9172916360763566
  @DF-RHF Final Energy:  -227.90269642784506
    Total Energy =                       -227.9026964278450578
  @DF-RHF Final Energy:  -227.91731738867776
    Total Energy =                       -227.9173173886777590
  @DF-RHF Final Energy:  -227.90270368134478
    Total Energy =                       -227.9027036813447751
  @DF-RHF Final Energy:  -227.91732515703507
    Total Energy =                       -227.9173251570350658
  @DF-RHF Final Energy:  -227.90262276203208
    Total Energy =                       -227.9026227620320810
  @DF-RHF Final Energy:  -227.91729940499749
    Total Energy =                       -227.9172994049974932
  @DF-RHF Final Energy:  -455.81677401627701
    Total Energy =                       -455.8167740162770087
  @DF-RHF Final Energy:  -455.84602155738673
    Total Energy =                       -455.8460215573867345
*** Psi4 exiting successfully. Buy a developer a beer!
                               Psi4 1.4a2.dev224
  @DF-RHF Final Energy:  -227.90261447266062
    Total Energy =                       -227.9026144726606162
  @DF-RHF Final Energy:  -227.91729061146438
    Total Energy =                       -227.9172906114643808
  @DF-RHF Final Energy:  -227.90264972489840
    Total Energy =                       -227.9026497248983958
  @DF-RHF Final Energy:  -227.91730562805830
    Total Energy =                       -227.9173056280583012
  @DF-RHF Final Energy:  -227.90265801296238
    Total Energy =                       -227.9026580129623767
  @DF-RHF Final Energy:  -227.91731441992385
    Total Energy =                       -227.9173144199238550
  @DF-RHF Final Energy:  -227.90262276179391
    Total Energy =                       -227.9026227617939071
  @DF-RHF Final Energy:  -227.91729940351951
    Total Energy =                       -227.9172994035195075
  Multiplicity = 1
  @DF-RHF Final Energy:  -455.81202946159738
    Total Energy =                       -455.8120294615973762
	 Singles Energy            =      -0.0000000000000000 [Eh]
	 Same-Spin Energy          =      -0.4307850684189415 [Eh]
	 Opposite-Spin Energy      =      -1.3396562666502285 [Eh]
	 Correlation Energy        =      -1.7704413350691701 [Eh]
	 Total Energy              =    -457.5824707966665414 [Eh]
	 SCS Total Energy          =    -457.5632120043839564 [Eh]
    Molecular point group: c1

    Geometry (in Angstrom), charge = 0, multiplicity = 1:

       Center              X                  Y                   Z               Mass
    ------------   -----------------  -----------------  -----------------  -----------------
         C           -2.691853322154     0.090988325938     0.004372976962    12.000000000000
         O           -1.988303322154     1.064308325938     0.244122976962    15.994914619570
         O           -2.219443322154    -1.111231674062    -0.283897023038    15.994914619570
         H           -1.225703322154    -1.078431674062    -0.269277023038     1.007825032230
         C           -4.188573322154     0.136398325938     0.008572976962    12.000000000000
         H           -4.526143322154     1.141308325938     0.230632976962     1.007825032230
         H           -4.563033322154    -0.183761674062    -0.960687023038     1.007825032230
         H           -4.567353322154    -0.561241674062     0.751872976962     1.007825032230
         C            2.691876677846    -0.090901674062    -0.004877023038    12.000000000000
         O            1.988266677846    -1.064221674062    -0.244657023038    15.994914619570
         O            2.219456677846     1.111528325938     0.282902976962    15.994914619570
         H            1.225666677846     1.078628325938     0.268502976962     1.007825032230
         C            4.188596677846    -0.136811674062    -0.006837023038    12.000000000000
         H            4.526176677846    -1.138131674062    -0.244367023038     1.007825032230
         H            4.570096677846     0.573548325938    -0.736307023038     1.007825032230
         H            4.560106677846     0.165888325938     0.969212976962     1.007825032230

  Charge       = 0
  Multiplicity = 1
  Basis Set: AUG-CC-PVQZ
    Blend: AUG-CC-PVQZ
  Basis Set: (AUG-CC-PVQZ AUX)
    Blend: AUG-CC-PVQZ-JKFIT

    Orbital Energies [Eh]
    ---------------------

    Doubly Occupied:

       1A    -20.618632     2A    -20.618631     3A    -20.544978
       4A    -20.544962     5A    -11.389581     6A    -11.389562
       7A    -11.242558     8A    -11.242552     9A     -1.469298
      10A     -1.469123    11A     -1.355211    12A     -1.355040
      13A     -1.028589    14A     -1.028354    15A     -0.831362
      16A     -0.830528    17A     -0.707175    18A     -0.705238
      19A     -0.682921    20A     -0.682239    21A     -0.655441
      22A     -0.655214    23A     -0.580851    24A     -0.580615
      25A     -0.573051    26A     -0.571269    27A     -0.564007
      28A     -0.563896    29A     -0.480096    30A     -0.479780
      31A     -0.456730    32A     -0.453494

  @DF-RHF Final Energy:  -455.84132705805519

   => Energetics <=

    Nuclear Repulsion Energy =            341.7545296647260784
    One-Electron Energy =               -1302.4897529125962592
    Two-Electron Energy =                 504.8938961898149955
    Total Energy =                       -455.8413270580551853

  Dipole Moment: [D]
     X:     0.0003      Y:    -0.0012      Z:     0.0040     Total:     0.0042

  Basis Set: (AUG-CC-PVQZ AUX)
    Blend: AUG-CC-PVQZ-RI
	 Reference Energy          =    -455.8413270580551853 [Eh]
	 Singles Energy            =      -0.0000000000000000 [Eh]
	 Same-Spin Energy          =      -0.4576486217518770 [Eh]
	 Opposite-Spin Energy      =      -1.5169984825422000 [Eh]
	 Correlation Energy        =      -1.9746471042940770 [Eh]
	 Total Energy              =    -457.8159741623492778 [Eh]

	 ================> DF-SCS-MP2 Energies <==================
	-----------------------------------------------------------
	 SCS Same-Spin Scale       =       0.3333333333333333 [-]
	 SCS Opposite-Spin Scale   =       1.2000000000000000 [-]
	 SCS Same-Spin Energy      =      -0.1525495405839590 [Eh]
	 SCS Opposite-Spin Energy  =      -1.8203981790506401 [Eh]
	 SCS Correlation Energy    =      -1.9729477196345990 [Eh]
	 SCS Total Energy          =    -457.8142747776897750 [Eh]
	-----------------------------------------------------------

*** Psi4 exiting successfully. Buy a developer a beer!
