                               Psi4 1.4a2.dev224

  ==> Input File <==

--------------------------------------------------------------------------
#Generated by lconvert.py for cbs job

memory 40 GB

molecule  {
0 1
  C       -1.0617090     1.2971410     0.2920600
  O       -0.3581610     2.2704590     0.5318130
  O       -0.5893040     0.0949180     0.0037890
  H        0.4044360     0.1277230     0.0184120
  C       -2.5584280     1.3425500     0.2962570
  H       -2.8959980     2.3474640     0.5183160
  H       -2.9328890     1.0223900    -0.6729960
  H       -2.9372120     0.6449100     1.0395570
--
0 1
  C        2.7995650     1.1084640     0.2712620
  O        2.0959470     0.1351500     0.0314740
  O        2.3271390     2.3109000     0.5590400
  H        1.3333500     2.2780020     0.5446400
  C        4.2962770     1.0625620     0.2692980
  H        4.6338570     0.0612430     0.0317720
  H        4.6777760     1.7729150    -0.4601710
  H        4.6677940     1.3652560     1.2453530
units angstrom
no_reorient
symmetry c1
}

set {
scf_type DF
mp2_type DF
e_convergence 7
reference rhf
}

energy('mp2/aug-cc-pv[tq]z', bsse_type='cp')
--------------------------------------------------------------------------

    Molecular point group: c1
  Charge       = 0
  Multiplicity = 1
  Basis Set: AUG-CC-PVTZ
    Blend: AUG-CC-PVTZ
  Basis Set: (AUG-CC-PVTZ AUX)
    Blend: AUG-CC-PVTZ-JKFIT
  @DF-RHF Final Energy:  -227.90261451801493
    Total Energy =                       -227.9026145180149285
  Basis Set: (AUG-CC-PVTZ AUX)
    Blend: AUG-CC-PVTZ-RI
	 Reference Energy          =    -227.9026145180149285 [Eh]
	 Singles Energy            =      -0.0000000000000000 [Eh]
	 Same-Spin Energy          =      -0.2152390212858444 [Eh]
	 Opposite-Spin Energy      =      -0.6696504816457460 [Eh]
	 Correlation Energy        =      -0.8848895029315904 [Eh]
	 Total Energy              =    -228.7875040209465283 [Eh]
	 SCS Total Energy          =    -228.7779414364184447 [Eh]
    Molecular point group: c1
  Basis Set: AUG-CC-PVQZ
    Blend: AUG-CC-PVQZ
  Basis Set: (AUG-CC-PVQZ AUX)
    Blend: AUG-CC-PVQZ-JKFIT
  @DF-RHF Final Energy:  -227.91729063693319
    Total Energy =                       -227.9172906369331884
  Basis Set: (AUG-CC-PVQZ AUX)
  @DF-RHF Final Energy:  -227.90286909724995
    Total Energy =                       -227.9028690972499476
  @DF-RHF Final Energy:  -227.91736115810932
    Total Energy =                       -227.9173611581093155
  @DF-RHF Final Energy:  -227.90287754253058
    Total Energy =                       -227.9028775425305753
  @DF-RHF Final Energy:  -227.91737013426388
    Total Energy =                       -227.9173701342638765
  @DF-RHF Final Energy:  -227.90262296116467
    Total Energy =                       -227.9026229611646670
  @DF-RHF Final Energy:  -227.91729961059070
    Total Energy =                       -227.9172996105907032
  Multiplicity = 1
  @DF-RHF Final Energy:  -455.83054653847057
    Total Energy =                       -455.8305465384705712
	 Singles Energy            =      -0.0000000000000000 [Eh]
	 Same-Spin Energy          =      -0.4349888387986603 [Eh]
	 Opposite-Spin Energy      =      -1.3436596767473654 [Eh]
	 Correlation Energy        =      -1.7786485155460259 [Eh]
	 Total Energy              =    -457.6091950540165953 [Eh]
	 SCS Total Energy          =    -457.5879344301669676 [Eh]
    Molecular point group: c1

    Geometry (in Angstrom), charge = 0, multiplicity = 1:

       Center              X                  Y                   Z               Mass
    ------------   -----------------  -----------------  -----------------  -----------------
         C           -1.930621572408     0.094380000378     0.010148784645    12.000000000000
         O           -1.227073572408     1.067698000378     0.249901784645    15.994914619570
         O           -1.458216572408    -1.107842999622    -0.278122215355    15.994914619570
         H           -0.464476572408    -1.075037999622    -0.263499215355     1.007825032230
         C           -3.427340572408     0.139789000378     0.014345784645    12.000000000000
         H           -3.764910572408     1.144703000378     0.236404784645     1.007825032230
         H           -3.801801572408    -0.180370999622    -0.954907215355     1.007825032230
         H           -3.806124572408    -0.557850999622     0.757645784645     1.007825032230
         C            1.930652427592    -0.094296999622    -0.010649215355    12.000000000000
         O            1.227034427592    -1.067610999622    -0.250437215355    15.994914619570
         O            1.458226427592     1.108139000378     0.277128784645    15.994914619570
         H            0.464437427592     1.075241000378     0.262728784645     1.007825032230
         C            3.427364427592    -0.140198999622    -0.012613215355    12.000000000000
         H            3.764944427592    -1.141517999622    -0.250139215355     1.007825032230
         H            3.808863427592     0.570154000378    -0.742082215355     1.007825032230
         H            3.798881427592     0.162495000378     0.963441784645     1.007825032230

  Charge       = 0
  Multiplicity = 1
  Basis Set: AUG-CC-PVQZ
    Blend: AUG-CC-PVQZ
  Basis Set: (AUG-CC-PVQZ AUX)
    Blend: AUG-CC-PVQZ-JKFIT

    Orbital Energies [Eh]
    ---------------------

    Doubly Occupied:

       1A    -20.596729     2A    -20.596723     3A    -20.555160
       4A    -20.555145     5A    -11.395651     6A    -11.395632
       7A    -11.242877     8A    -11.242871     9A     -1.470736
      10A     -1.458645    11A     -1.368609    12A     -1.355062
      13A     -1.033775    14A     -1.025934    15A     -0.838047
      16A     -0.816088    17A     -0.745134    18A     -0.696070
      19A     -0.686831    20A     -0.675816    21A     -0.655694
      22A     -0.649475    23A     -0.589939    24A     -0.582217
      25A     -0.574455    26A     -0.561675    27A     -0.559073
      28A     -0.557705    29A     -0.492833    30A     -0.482015
      31A     -0.474012    32A     -0.455635

  @DF-RHF Final Energy:  -455.85968402742805

   => Energetics <=

    Nuclear Repulsion Energy =            381.1003605843535524
    One-Electron Energy =               -1381.1475349570303024
    Two-Electron Energy =                 544.1874903452487615
    Total Energy =                       -455.8596840274279884

  Dipole Moment: [D]
     X:     0.0003      Y:    -0.0012      Z:     0.0041     Total:     0.0043

  Basis Set: (AUG-CC-PVQZ AUX)
    Blend: AUG-CC-PVQZ-RI
	 Reference Energy          =    -455.8596840274280453 [Eh]
	 Singles Energy            =      -0.0000000000000000 [Eh]
	 Same-Spin Energy          =      -0.4618563466005289 [Eh]
	 Opposite-Spin Energy      =      -1.5194035705586151 [Eh]
	 Correlation Energy        =      -1.9812599171591441 [Eh]
	 Total Energy              =    -457.8409439445871953 [Eh]

	 ================> DF-SCS-MP2 Energies <==================
	-----------------------------------------------------------
	 SCS Same-Spin Scale       =       0.3333333333333333 [-]
	 SCS Opposite-Spin Scale   =       1.2000000000000000 [-]
	 SCS Same-Spin Energy      =      -0.1539521155335096 [Eh]
	 SCS Opposite-Spin Energy  =      -1.8232842846703381 [Eh]
	 SCS Correlation Energy    =      -1.9772364002038478 [Eh]
	 SCS Total Energy          =    -457.8369204276318669 [Eh]
	-----------------------------------------------------------

*** Psi4 exiting successfully. Buy a developer a beer!
