                               Psi4 1.4a2.dev224

  ==> Input File <==

--------------------------------------------------------------------------
#Generated by lconvert.py for cbs job

memory 40 GB

molecule  {
0 1
  C       -1.0617090     1.2971410     0.2920600
  O       -0.3581610     2.2704590     0.5318130
  O       -0.5893040     0.0949180     0.0037890
  H        0.4044360     0.1277230     0.0184120
  C       -2.5584280     1.3425500     0.2962570
  H       -2.8959980     2.3474640     0.5183160
  H       -2.9328890     1.0223900    -0.6729960
  H       -2.9372120     0.6449100     1.0395570
--
0 1
  C        2.9688160     1.1092130     0.2725570
  O        2.2651980     0.1358990     0.0327700
  O        2.4963900     2.3116490     0.5603360
  H        1.5026010     2.2787510     0.5459350
  C        4.4655280     1.0633110     0.2705930
  H        4.8031080     0.0619910     0.0330670
  H        4.8470270     1.7736640    -0.4588760
  H        4.8370450     1.3660050     1.2466480
units angstrom
no_reorient
symmetry c1
}

set {
scf_type DF
mp2_type DF
e_convergence 7
reference rhf
}

energy('mp2/aug-cc-pv[tq]z', bsse_type='cp')
--------------------------------------------------------------------------

    Molecular point group: c1
  Charge       = 0
  Multiplicity = 1
  Basis Set: AUG-CC-PVTZ
    Blend: AUG-CC-PVTZ
  Basis Set: (AUG-CC-PVTZ AUX)
    Blend: AUG-CC-PVTZ-JKFIT
  @DF-RHF Final Energy:  -227.90261453340153
    Total Energy =                       -227.9026145334015325
  Basis Set: (AUG-CC-PVTZ AUX)
    Blend: AUG-CC-PVTZ-RI
	 Reference Energy          =    -227.9026145334015325 [Eh]
	 Singles Energy            =      -0.0000000000000000 [Eh]
	 Same-Spin Energy          =      -0.2152390187796689 [Eh]
	 Opposite-Spin Energy      =      -0.6696504839343198 [Eh]
	 Correlation Energy        =      -0.8848895027139887 [Eh]
	 Total Energy              =    -228.7875040361155072 [Eh]
	 SCS Total Energy          =    -228.7779414537159255 [Eh]
    Molecular point group: c1
  Basis Set: AUG-CC-PVQZ
    Blend: AUG-CC-PVQZ
  Basis Set: (AUG-CC-PVQZ AUX)
    Blend: AUG-CC-PVQZ-JKFIT
  @DF-RHF Final Energy:  -227.91729065237891
    Total Energy =                       -227.9172906523789095
  Basis Set: (AUG-CC-PVQZ AUX)
  @DF-RHF Final Energy:  -227.90281414458374
    Total Energy =                       -227.9028141445837434
  @DF-RHF Final Energy:  -227.91734946923094
    Total Energy =                       -227.9173494692309418
  @DF-RHF Final Energy:  -227.90282257080446
    Total Energy =                       -227.9028225708044602
  @DF-RHF Final Energy:  -227.91735843076086
    Total Energy =                       -227.9173584307608564
  @DF-RHF Final Energy:  -227.90262296120295
    Total Energy =                       -227.9026229612029510
  @DF-RHF Final Energy:  -227.91729961100236
    Total Energy =                       -227.9172996110023632
  Multiplicity = 1
  @DF-RHF Final Energy:  -455.82996821134873
    Total Energy =                       -455.8299682113487279
	 Singles Energy            =      -0.0000000000000000 [Eh]
	 Same-Spin Energy          =      -0.4338163081773819 [Eh]
	 Opposite-Spin Energy      =      -1.3429179943117073 [Eh]
	 Correlation Energy        =      -1.7767343024890891 [Eh]
	 Total Energy              =    -457.6067025138378312 [Eh]
	 SCS Total Energy          =    -457.5860752405819198 [Eh]
    Molecular point group: c1

    Geometry (in Angstrom), charge = 0, multiplicity = 1:

       Center              X                  Y                   Z               Mass
    ------------   -----------------  -----------------  -----------------  -----------------
         C           -2.015247072408     0.094005508774     0.009501018157    12.000000000000
         O           -1.311699072408     1.067323508774     0.249254018157    15.994914619570
         O           -1.542842072408    -1.108217491226    -0.278769981843    15.994914619570
         H           -0.549102072408    -1.075412491226    -0.264146981843     1.007825032230
         C           -3.511966072408     0.139414508774     0.013698018157    12.000000000000
         H           -3.849536072408     1.144328508774     0.235757018157     1.007825032230
         H           -3.886427072408    -0.180745491226    -0.955554981843     1.007825032230
         H           -3.890750072408    -0.558225491226     0.756998018157     1.007825032230
         C            2.015277927592    -0.093922491226    -0.010001981843    12.000000000000
         O            1.311659927592    -1.067236491226    -0.249788981843    15.994914619570
         O            1.542851927592     1.108513508774     0.277777018157    15.994914619570
         H            0.549062927592     1.075615508774     0.263376018157     1.007825032230
         C            3.511989927592    -0.139824491226    -0.011965981843    12.000000000000
         H            3.849569927592    -1.141144491226    -0.249491981843     1.007825032230
         H            3.893488927592     0.570528508774    -0.741434981843     1.007825032230
         H            3.883506927592     0.162869508774     0.964089018157     1.007825032230

  Charge       = 0
  Multiplicity = 1
  Basis Set: AUG-CC-PVQZ
    Blend: AUG-CC-PVQZ
  Basis Set: (AUG-CC-PVQZ AUX)
    Blend: AUG-CC-PVQZ-JKFIT

    Orbital Energies [Eh]
    ---------------------

    Doubly Occupied:

       1A    -20.603280     2A    -20.603275     3A    -20.553194
       4A    -20.553178     5A    -11.394502     6A    -11.394482
       7A    -11.243003     8A    -11.242998     9A     -1.469203
      10A     -1.461760    11A     -1.364475    12A     -1.356210
      13A     -1.032162    14A     -1.026856    15A     -0.834273
      16A     -0.819041    17A     -0.734045    18A     -0.697564
      19A     -0.687482    20A     -0.677880    21A     -0.655397
      22A     -0.651113    23A     -0.587483    24A     -0.582031
      25A     -0.575087    26A     -0.562096    27A     -0.562028
      28A     -0.559529    29A     -0.489705    30A     -0.482583
      31A     -0.471671    32A     -0.455563

  @DF-RHF Final Energy:  -455.85919461305525

   => Energetics <=

    Nuclear Repulsion Energy =            375.1951210856016132
    One-Electron Energy =               -1369.3423119025394499
    Two-Electron Energy =                 538.2879962038825852
    Total Energy =                       -455.8591946130552515

  Dipole Moment: [D]
     X:     0.0003      Y:    -0.0012      Z:     0.0041     Total:     0.0043

  Basis Set: (AUG-CC-PVQZ AUX)
    Blend: AUG-CC-PVQZ-RI
	 Reference Energy          =    -455.8591946130552515 [Eh]
	 Singles Energy            =      -0.0000000000000000 [Eh]
	 Same-Spin Energy          =      -0.4606548740978260 [Eh]
	 Opposite-Spin Energy      =      -1.5187332414432995 [Eh]
	 Correlation Energy        =      -1.9793881155411255 [Eh]
	 Total Energy              =    -457.8385827285963501 [Eh]

	 ================> DF-SCS-MP2 Energies <==================
	-----------------------------------------------------------
	 SCS Same-Spin Scale       =       0.3333333333333333 [-]
	 SCS Opposite-Spin Scale   =       1.2000000000000000 [-]
	 SCS Same-Spin Energy      =      -0.1535516246992753 [Eh]
	 SCS Opposite-Spin Energy  =      -1.8224798897319592 [Eh]
	 SCS Correlation Energy    =      -1.9760315144312344 [Eh]
	 SCS Total Energy          =    -457.8352261274864645 [Eh]
	-----------------------------------------------------------

*** Psi4 exiting successfully. Buy a developer a beer!
