                               Psi4 1.4a2.dev224

  ==> Input File <==

--------------------------------------------------------------------------
#Generated by lconvert.py for cbs job

memory 20 GB

molecule  {
0 1
  C      -1.061710    1.297140    0.292060
  O      -0.358160    2.270460    0.531810
  O      -0.589300    0.094920    0.003790
  H       0.404440    0.127720    0.018410
  C      -2.558430    1.342550    0.296260
  H      -2.896000    2.347460    0.518320
  H      -2.932890    1.022390   -0.673000
  H      -2.937210    0.644910    1.039560
--
0 1
  C       3.307120    1.110720    0.275120
  O       2.603500    0.137410    0.035330
  O       2.834690    2.313160    0.562900
  H       1.840900    2.280260    0.548500
  C       4.803830    1.064820    0.273160
  H       5.141410    0.063500    0.035630
  H       5.185330    1.775170   -0.456310
  H       5.175350    1.367510    1.249210
units angstrom
no_reorient
symmetry c1
}

set {
scf_type DF
mp2_type DF
e_convergence 7
reference rhf
}

energy('mp2/aug-cc-pv[tq]z', bsse_type='cp')
--------------------------------------------------------------------------

    Molecular point group: c1
  Charge       = 0
  Multiplicity = 1
  Basis Set: AUG-CC-PVTZ
    Blend: AUG-CC-PVTZ
  Basis Set: (AUG-CC-PVTZ AUX)
    Blend: AUG-CC-PVTZ-JKFIT
  @DF-RHF Final Energy:  -227.90261468334802
    Total Energy =                       -227.9026146833480198
  Basis Set: (AUG-CC-PVTZ AUX)
    Blend: AUG-CC-PVTZ-RI
	 Reference Energy          =    -227.9026146833480198 [Eh]
	 Singles Energy            =      -0.0000000000000000 [Eh]
	 Same-Spin Energy          =      -0.2152390391066813 [Eh]
	 Opposite-Spin Energy      =      -0.6696505565850374 [Eh]
	 Correlation Energy        =      -0.8848895956917187 [Eh]
	 Total Energy              =    -228.7875042790397515 [Eh]
	 SCS Total Energy          =    -228.7779416976189566 [Eh]
    Molecular point group: c1
  Basis Set: AUG-CC-PVQZ
    Blend: AUG-CC-PVQZ
  Basis Set: (AUG-CC-PVQZ AUX)
    Blend: AUG-CC-PVQZ-JKFIT
  @DF-RHF Final Energy:  -227.91729079667562
    Total Energy =                       -227.9172907966756156
  Basis Set: (AUG-CC-PVQZ AUX)
  @DF-RHF Final Energy:  -227.90275039216354
    Total Energy =                       -227.9027503921635400
  @DF-RHF Final Energy:  -227.91733518660948
    Total Energy =                       -227.9173351866094777
  @DF-RHF Final Energy:  -227.90275847024216
    Total Energy =                       -227.9027584702421620
  @DF-RHF Final Energy:  -227.91734379572364
    Total Energy =                       -227.9173437957236388
  @DF-RHF Final Energy:  -227.90262276148169
    Total Energy =                       -227.9026227614816946
  @DF-RHF Final Energy:  -227.91729940388299
    Total Energy =                       -227.9172994038829927
  Multiplicity = 1
  @DF-RHF Final Energy:  -455.82457324111260
    Total Energy =                       -455.8245732411126028
	 Singles Energy            =      -0.0000000000000000 [Eh]
	 Same-Spin Energy          =      -0.4323055691953122 [Eh]
	 Opposite-Spin Energy      =      -1.3417721759877428 [Eh]
	 Correlation Energy        =      -1.7740777451830549 [Eh]
	 Total Energy              =    -457.5986509862956382 [Eh]
	 SCS Total Energy          =    -457.5788017086963464 [Eh]
    Molecular point group: c1

    Geometry (in Angstrom), charge = 0, multiplicity = 1:

       Center              X                  Y                   Z               Mass
    ------------   -----------------  -----------------  -----------------  -----------------
         C           -2.184399405758     0.093249493498     0.008219309402    12.000000000000
         O           -1.480849405758     1.066569493498     0.247969309402    15.994914619570
         O           -1.711989405758    -1.108970506502    -0.280050690598    15.994914619570
         H           -0.718249405758    -1.076170506502    -0.265430690598     1.007825032230
         C           -3.681119405758     0.138659493498     0.012419309402    12.000000000000
         H           -4.018689405758     1.143569493498     0.234479309402     1.007825032230
         H           -4.055579405758    -0.181500506502    -0.956840690598     1.007825032230
         H           -4.059899405758    -0.558980506502     0.755719309402     1.007825032230
         C            2.184430594242    -0.093170506502    -0.008720690598    12.000000000000
         O            1.480810594242    -1.066480506502    -0.248510690598    15.994914619570
         O            1.712000594242     1.109269493498     0.279059309402    15.994914619570
         H            0.718210594242     1.076369493498     0.264659309402     1.007825032230
         C            3.681140594242    -0.139070506502    -0.010680690598    12.000000000000
         H            4.018720594242    -1.140390506502    -0.248210690598     1.007825032230
         H            4.062640594242     0.571279493498    -0.740150690598     1.007825032230
         H            4.052660594242     0.163619493498     0.965369309402     1.007825032230

  Charge       = 0
  Multiplicity = 1
  Basis Set: AUG-CC-PVQZ
    Blend: AUG-CC-PVQZ
  Basis Set: (AUG-CC-PVQZ AUX)
    Blend: AUG-CC-PVQZ-JKFIT

    Orbital Energies [Eh]
    ---------------------

    Doubly Occupied:

       1A    -20.611180     2A    -20.611175     3A    -20.550048
       4A    -20.550030     5A    -11.392652     6A    -11.392632
       7A    -11.243030     8A    -11.243025     9A     -1.468507
      10A     -1.465654    11A     -1.359790    12A     -1.356686
      13A     -1.030349    14A     -1.027904    15A     -0.831426
      16A     -0.824219    17A     -0.719827    18A     -0.701645
      19A     -0.685861    20A     -0.680525    21A     -0.655310
      22A     -0.653264    23A     -0.584046    24A     -0.581604
      25A     -0.575114    26A     -0.566468    27A     -0.562896
      28A     -0.561816    29A     -0.485447    30A     -0.482284
      31A     -0.466506    32A     -0.454829

  @DF-RHF Final Energy:  -455.85382261689830

   => Energetics <=

    Nuclear Repulsion Energy =            364.8341880471696186
    One-Electron Energy =               -1348.6244952586166619
    Two-Electron Energy =                 527.9364845945486877
    Total Energy =                       -455.8538226168983556

  Dipole Moment: [D]
     X:     0.0004      Y:    -0.0013      Z:     0.0041     Total:     0.0043

  Basis Set: (AUG-CC-PVQZ AUX)
    Blend: AUG-CC-PVQZ-RI
	 Reference Energy          =    -455.8538226168982987 [Eh]
	 Singles Energy            =      -0.0000000000000000 [Eh]
	 Same-Spin Energy          =      -0.4591237889248417 [Eh]
	 Opposite-Spin Energy      =      -1.5178999048673052 [Eh]
	 Correlation Energy        =      -1.9770236937921468 [Eh]
	 Total Energy              =    -457.8308463106904469 [Eh]

	 ================> DF-SCS-MP2 Energies <==================
	-----------------------------------------------------------
	 SCS Same-Spin Scale       =       0.3333333333333333 [-]
	 SCS Opposite-Spin Scale   =       1.2000000000000000 [-]
	 SCS Same-Spin Energy      =      -0.1530412629749472 [Eh]
	 SCS Opposite-Spin Energy  =      -1.8214798858407661 [Eh]
	 SCS Correlation Energy    =      -1.9745211488157133 [Eh]
	 SCS Total Energy          =    -457.8283437657140098 [Eh]
	-----------------------------------------------------------

*** Psi4 exiting successfully. Buy a developer a beer!
