                               Psi4 1.4a2.dev224

  ==> Input File <==

--------------------------------------------------------------------------
#Generated by lconvert.py for cbs job

memory 20 GB

molecule  {
0 1
  C      -1.061710    1.297140    0.292060
  O      -0.358160    2.270460    0.531810
  O      -0.589300    0.094920    0.003790
  H       0.404440    0.127720    0.018410
  C      -2.558430    1.342550    0.296260
  H      -2.896000    2.347460    0.518320
  H      -2.932890    1.022390   -0.673000
  H      -2.937210    0.644910    1.039560
--
0 1
  C       3.814570    1.112980    0.278970
  O       3.110950    0.139670    0.039180
  O       3.342140    2.315420    0.566750
  H       2.348360    2.282520    0.552340
  C       5.311280    1.067080    0.277000
  H       5.648860    0.065760    0.039480
  H       5.692780    1.777430   -0.452470
  H       5.682800    1.369770    1.253060
units angstrom
no_reorient
symmetry c1
}

set {
scf_type DF
mp2_type DF
e_convergence 7
reference rhf
}

energy('mp2/aug-cc-pv[tq]z', bsse_type='cp')
--------------------------------------------------------------------------

    Molecular point group: c1
  Charge       = 0
  Multiplicity = 1
  Basis Set: AUG-CC-PVTZ
    Blend: AUG-CC-PVTZ
  Basis Set: (AUG-CC-PVTZ AUX)
    Blend: AUG-CC-PVTZ-JKFIT
  @DF-RHF Final Energy:  -227.90261550667370
    Total Energy =                       -227.9026155066736976
  Basis Set: (AUG-CC-PVTZ AUX)
    Blend: AUG-CC-PVTZ-RI
	 Reference Energy          =    -227.9026155066736976 [Eh]
	 Singles Energy            =      -0.0000000000000000 [Eh]
	 Same-Spin Energy          =      -0.2152389142631523 [Eh]
	 Opposite-Spin Energy      =      -0.6696503063765842 [Eh]
	 Correlation Energy        =      -0.8848892206397365 [Eh]
	 Total Energy              =    -228.7875047273134328 [Eh]
	 SCS Total Energy          =    -228.7779421790799859 [Eh]
    Molecular point group: c1
  Basis Set: AUG-CC-PVQZ
    Blend: AUG-CC-PVQZ
  Basis Set: (AUG-CC-PVQZ AUX)
    Blend: AUG-CC-PVQZ-JKFIT
  @DF-RHF Final Energy:  -227.91729163607636
    Total Energy =                       -227.9172916360763566
  Basis Set: (AUG-CC-PVQZ AUX)
  @DF-RHF Final Energy:  -227.90269642784506
    Total Energy =                       -227.9026964278450578
  @DF-RHF Final Energy:  -227.91731738867776
    Total Energy =                       -227.9173173886777590
  @DF-RHF Final Energy:  -227.90270368134478
    Total Energy =                       -227.9027036813447751
  @DF-RHF Final Energy:  -227.91732515703507
    Total Energy =                       -227.9173251570350658
  @DF-RHF Final Energy:  -227.90262276203208
    Total Energy =                       -227.9026227620320810
  @DF-RHF Final Energy:  -227.91729940499749
    Total Energy =                       -227.9172994049974932
  Multiplicity = 1
  @DF-RHF Final Energy:  -455.81677401627701
    Total Energy =                       -455.8167740162770087
	 Singles Energy            =      -0.0000000000000000 [Eh]
	 Same-Spin Energy          =      -0.4312252901685616 [Eh]
	 Opposite-Spin Energy      =      -1.3403899609976846 [Eh]
	 Correlation Energy        =      -1.7716152511662462 [Eh]
	 Total Energy              =    -457.5883892674432332 [Eh]
	 SCS Total Energy          =    -457.5689837328637282 [Eh]
    Molecular point group: c1

    Geometry (in Angstrom), charge = 0, multiplicity = 1:

       Center              X                  Y                   Z               Mass
    ------------   -----------------  -----------------  -----------------  -----------------
         C           -2.438124489713     0.092119493498     0.006295476962    12.000000000000
         O           -1.734574489713     1.065439493498     0.246045476962    15.994914619570
         O           -1.965714489713    -1.110100506502    -0.281974523038    15.994914619570
         H           -0.971974489713    -1.077300506502    -0.267354523038     1.007825032230
         C           -3.934844489713     0.137529493498     0.010495476962    12.000000000000
         H           -4.272414489713     1.142439493498     0.232555476962     1.007825032230
         H           -4.309304489713    -0.182630506502    -0.958764523038     1.007825032230
         H           -4.313624489713    -0.560110506502     0.753795476962     1.007825032230
         C            2.438155510287    -0.092040506502    -0.006794523038    12.000000000000
         O            1.734535510287    -1.065350506502    -0.246584523038    15.994914619570
         O            1.965725510287     1.110399493498     0.280985476962    15.994914619570
         H            0.971945510287     1.077499493498     0.266575476962     1.007825032230
         C            3.934865510287    -0.137940506502    -0.008764523038    12.000000000000
         H            4.272445510287    -1.139260506502    -0.246284523038     1.007825032230
         H            4.316365510287     0.572409493498    -0.738234523038     1.007825032230
         H            4.306385510287     0.164749493498     0.967295476962     1.007825032230

  Charge       = 0
  Multiplicity = 1
  Basis Set: AUG-CC-PVQZ
    Blend: AUG-CC-PVQZ
  Basis Set: (AUG-CC-PVQZ AUX)
    Blend: AUG-CC-PVQZ-JKFIT

    Orbital Energies [Eh]
    ---------------------

    Doubly Occupied:

       1A    -20.616455     2A    -20.616450     3A    -20.546881
       4A    -20.546862     5A    -11.390760     6A    -11.390739
       7A    -11.242812     8A    -11.242807     9A     -1.468887
      10A     -1.468194    11A     -1.356656    12A     -1.355931
      13A     -1.029135    14A     -1.028374    15A     -0.830988
      16A     -0.828569    17A     -0.710533    18A     -0.704548
      19A     -0.683911    20A     -0.682000    21A     -0.655390
      22A     -0.654709    23A     -0.581750    24A     -0.581036
      25A     -0.573989    26A     -0.569885    27A     -0.563659
      28A     -0.563325    29A     -0.481937    30A     -0.480954
      31A     -0.460400    32A     -0.453980

  @DF-RHF Final Energy:  -455.84602155738673

   => Energetics <=

    Nuclear Repulsion Energy =            352.0712177633735109
    One-Electron Energy =               -1323.1094563447311430
    Two-Electron Energy =                 515.1922170239708976
    Total Energy =                       -455.8460215573867345

  Dipole Moment: [D]
     X:     0.0004      Y:    -0.0013      Z:     0.0040     Total:     0.0043

  Basis Set: (AUG-CC-PVQZ AUX)
    Blend: AUG-CC-PVQZ-RI
	 Reference Energy          =    -455.8460215573867345 [Eh]
	 Singles Energy            =      -0.0000000000000000 [Eh]
	 Same-Spin Energy          =      -0.4580613156974049 [Eh]
	 Opposite-Spin Energy      =      -1.5172374156860977 [Eh]
	 Correlation Energy        =      -1.9752987313835026 [Eh]
	 Total Energy              =    -457.8213202887702096 [Eh]

	 ================> DF-SCS-MP2 Energies <==================
	-----------------------------------------------------------
	 SCS Same-Spin Scale       =       0.3333333333333333 [-]
	 SCS Opposite-Spin Scale   =       1.2000000000000000 [-]
	 SCS Same-Spin Energy      =      -0.1526871052324683 [Eh]
	 SCS Opposite-Spin Energy  =      -1.8206848988233171 [Eh]
	 SCS Correlation Energy    =      -1.9733720040557854 [Eh]
	 SCS Total Energy          =    -457.8193935614424959 [Eh]
	-----------------------------------------------------------

*** Psi4 exiting successfully. Buy a developer a beer!
