                               Psi4 1.4a2.dev224

  ==> Input File <==

--------------------------------------------------------------------------
#Generated by lconvert.py for cbs job

memory 40 GB

molecule  {
0 1
  C       -1.3097500     1.1801760    -0.0251700
  O       -0.7253000     2.1551480     0.4527130
  N       -0.6656210     0.0950550    -0.4919940
  H        0.3545830     0.0514480    -0.4593090
  H       -1.1836270    -0.6736000    -0.8707560
  C       -2.8167190     1.1559990    -0.1106060
  H       -3.2206290     1.2625410     0.8930820
  H       -3.2094280     0.2486340    -0.5619000
  H       -3.1431580     2.0165960    -0.6888930
--
0 1
  C        2.9794730     1.0680300     0.1467970
  O        2.3950510     0.0940100    -0.3329340
  N        2.3353860     2.1527730     0.6146440
  H        1.3152800     2.1972110     0.5803420
  H        2.8534100     2.9207350     0.9947640
  C        4.4864720     1.0923150     0.2320220
  H        4.8783430     1.9919640     0.6992060
  H        4.8900280     1.0047700    -0.7737580
  H        4.8142510     0.2217400     0.7942030
units angstrom
no_reorient
symmetry c1
}

set {
scf_type DF
mp2_type DF
e_convergence 7
reference rhf
}

energy('mp2/aug-cc-pv[tq]z', bsse_type='cp')
--------------------------------------------------------------------------

    Molecular point group: c1
  Charge       = 0
  Multiplicity = 1
  Basis Set: AUG-CC-PVTZ
    Blend: AUG-CC-PVTZ
  Basis Set: (AUG-CC-PVTZ AUX)
    Blend: AUG-CC-PVTZ-JKFIT
  @DF-RHF Final Energy:  -208.06135963586138
    Total Energy =                       -208.0613596358613790
  Basis Set: (AUG-CC-PVTZ AUX)
    Blend: AUG-CC-PVTZ-RI
	 Reference Energy          =    -208.0613596358613790 [Eh]
	 Singles Energy            =      -0.0000000000000000 [Eh]
	 Same-Spin Energy          =      -0.2048388393361691 [Eh]
	 Opposite-Spin Energy      =      -0.6562922292437845 [Eh]
	 Correlation Energy        =      -0.8611310685799536 [Eh]
	 Total Energy              =    -208.9224907044413442 [Eh]
	 SCS Total Energy          =    -208.9171899240659798 [Eh]
    Molecular point group: c1
  Basis Set: AUG-CC-PVQZ
    Blend: AUG-CC-PVQZ
  Basis Set: (AUG-CC-PVQZ AUX)
    Blend: AUG-CC-PVQZ-JKFIT
  @DF-RHF Final Energy:  -208.07449671231512
    Total Energy =                       -208.0744967123151241
  Basis Set: (AUG-CC-PVQZ AUX)
  @DF-RHF Final Energy:  -208.06150086407303
    Total Energy =                       -208.0615008640730252
  @DF-RHF Final Energy:  -208.07453685457654
    Total Energy =                       -208.0745368545765359
  @DF-RHF Final Energy:  -208.06149487558451
    Total Energy =                       -208.0614948755845148
  @DF-RHF Final Energy:  -208.07453067418612
    Total Energy =                       -208.0745306741861214
  @DF-RHF Final Energy:  -208.06135366253775
    Total Energy =                       -208.0613536625377549
  @DF-RHF Final Energy:  -208.07449053338996
    Total Energy =                       -208.0744905333899624
  Multiplicity = 1
  @DF-RHF Final Energy:  -416.14282293781258
    Total Energy =                       -416.1428229378126389
	 Singles Energy            =      -0.0000000000000000 [Eh]
	 Same-Spin Energy          =      -0.4126731562926520 [Eh]
	 Opposite-Spin Energy      =      -1.3172034377910271 [Eh]
	 Correlation Energy        =      -1.7298765940836791 [Eh]
	 Total Energy              =    -417.8726995318962736 [Eh]
	 SCS Total Energy          =    -417.8610247819260053 [Eh]
    Molecular point group: c1

    Geometry (in Angstrom), charge = 0, multiplicity = 1:

       Center              X                  Y                   Z               Mass
    ------------   -----------------  -----------------  -----------------  -----------------
         C           -2.144627061517     0.055969278024    -0.085823189931    12.000000000000
         O           -1.560177061517     1.030941278024     0.392059810069    15.994914619570
         N           -1.500498061517    -1.029151721976    -0.552647189931    14.003074004430
         H           -0.480294061517    -1.072758721976    -0.519962189931     1.007825032230
         H           -2.018504061517    -1.797806721976    -0.931409189931     1.007825032230
         C           -3.651596061517     0.031792278024    -0.171259189931    12.000000000000
         H           -4.055506061517     0.138334278024     0.832428810069     1.007825032230
         H           -4.044305061517    -0.875572721976    -0.622553189931     1.007825032230
         H           -3.978035061517     0.892389278024    -0.749546189931     1.007825032230
         C            2.144595938483    -0.056176721976     0.086143810069    12.000000000000
         O            1.560173938483    -1.030196721976    -0.393587189931    15.994914619570
         N            1.500508938483     1.028566278024     0.553990810069    14.003074004430
         H            0.480402938483     1.073004278024     0.519688810069     1.007825032230
         H            2.018532938483     1.796528278024     0.934110810069     1.007825032230
         C            3.651594938483    -0.031891721976     0.171368810069    12.000000000000
         H            4.043465938483     0.867757278024     0.638552810069     1.007825032230
         H            4.055150938483    -0.119436721976    -0.834411189931     1.007825032230
         H            3.979373938483    -0.902466721976     0.733549810069     1.007825032230

  Charge       = 0
  Multiplicity = 1
  Basis Set: AUG-CC-PVQZ
    Blend: AUG-CC-PVQZ
  Basis Set: (AUG-CC-PVQZ AUX)
    Blend: AUG-CC-PVQZ-JKFIT

    Orbital Energies [Eh]
    ---------------------

    Doubly Occupied:

       1A    -20.510580     2A    -20.510558     3A    -15.572003
       4A    -15.571994     5A    -11.349842     6A    -11.349838
       7A    -11.232934     8A    -11.232931     9A     -1.372544
      10A     -1.369618    11A     -1.207639    12A     -1.203784
      13A     -1.003259    14A     -0.999975    15A     -0.798677
      16A     -0.789395    17A     -0.721777    18A     -0.716252
      19A     -0.672788    20A     -0.652757    21A     -0.613465
      22A     -0.611824    23A     -0.584926    24A     -0.575840
      25A     -0.560835    26A     -0.556448    27A     -0.522710
      28A     -0.518592    29A     -0.434006    30A     -0.417277
      31A     -0.411812    32A     -0.404755

  @DF-RHF Final Energy:  -416.16899678949159

   => Energetics <=

    Nuclear Repulsion Energy =            367.5573726910787968
    One-Electron Energy =               -1297.3494694234345843
    Two-Electron Energy =                 513.6230999428642008
    Total Energy =                       -416.1689967894915299

  Dipole Moment: [D]
     X:     0.0003      Y:    -0.0017      Z:     0.0024     Total:     0.0030

  Basis Set: (AUG-CC-PVQZ AUX)
    Blend: AUG-CC-PVQZ-RI
	 Reference Energy          =    -416.1689967894915867 [Eh]
	 Singles Energy            =      -0.0000000000000000 [Eh]
	 Same-Spin Energy          =      -0.4376117884917412 [Eh]
	 Opposite-Spin Energy      =      -1.4825545728930738 [Eh]
	 Correlation Energy        =      -1.9201663613848150 [Eh]
	 Total Energy              =    -418.0891631508764021 [Eh]

	 ================> DF-SCS-MP2 Energies <==================
	-----------------------------------------------------------
	 SCS Same-Spin Scale       =       0.3333333333333333 [-]
	 SCS Opposite-Spin Scale   =       1.2000000000000000 [-]
	 SCS Same-Spin Energy      =      -0.1458705961639137 [Eh]
	 SCS Opposite-Spin Energy  =      -1.7790654874716885 [Eh]
	 SCS Correlation Energy    =      -1.9249360836356022 [Eh]
	 SCS Total Energy          =    -418.0939328731271871 [Eh]
	-----------------------------------------------------------

*** Psi4 exiting successfully. Buy a developer a beer!
