                               Psi4 1.4a2.dev224

  ==> Input File <==

--------------------------------------------------------------------------
#Generated by lconvert.py for cbs job

memory 40 GB

molecule  {
0 1
  C       -1.3097500     1.1801760    -0.0251700
  O       -0.7253000     2.1551480     0.4527130
  N       -0.6656210     0.0950550    -0.4919940
  H        0.3545830     0.0514480    -0.4593090
  H       -1.1836270    -0.6736000    -0.8707560
  C       -2.8167190     1.1559990    -0.1106060
  H       -3.2206290     1.2625410     0.8930820
  H       -3.2094280     0.2486340    -0.5619000
  H       -3.1431580     2.0165960    -0.6888930
--
0 1
  C        2.2374230     1.0525680     0.1007990
  O        1.6530010     0.0785470    -0.3789320
  N        1.5933360     2.1373110     0.5686460
  H        0.5732300     2.1817490     0.5343440
  H        2.1113600     2.9052720     0.9487660
  C        3.7444220     1.0768520     0.1860240
  H        4.1362930     1.9765020     0.6532080
  H        4.1479780     0.9893070    -0.8197560
  H        4.0722010     0.2062770     0.7482040
units angstrom
no_reorient
symmetry c1
}

set {
scf_type DF
mp2_type DF
e_convergence 7
reference rhf
}

energy('mp2/aug-cc-pv[tq]z', bsse_type='cp')
--------------------------------------------------------------------------

    Molecular point group: c1
  Charge       = 0
  Multiplicity = 1
  Basis Set: AUG-CC-PVTZ
    Blend: AUG-CC-PVTZ
  Basis Set: (AUG-CC-PVTZ AUX)
    Blend: AUG-CC-PVTZ-JKFIT
  @DF-RHF Final Energy:  -208.06135955704843
    Total Energy =                       -208.0613595570484335
  Basis Set: (AUG-CC-PVTZ AUX)
    Blend: AUG-CC-PVTZ-RI
	 Reference Energy          =    -208.0613595570484335 [Eh]
	 Singles Energy            =      -0.0000000000000000 [Eh]
	 Same-Spin Energy          =      -0.2048388500369369 [Eh]
	 Opposite-Spin Energy      =      -0.6562922595742109 [Eh]
	 Correlation Energy        =      -0.8611311096111478 [Eh]
	 Total Energy              =    -208.9224906666595700 [Eh]
	 SCS Total Energy          =    -208.9171898852164588 [Eh]
    Molecular point group: c1
  Basis Set: AUG-CC-PVQZ
    Blend: AUG-CC-PVQZ
  Basis Set: (AUG-CC-PVQZ AUX)
    Blend: AUG-CC-PVQZ-JKFIT
  @DF-RHF Final Energy:  -208.07449663047157
    Total Energy =                       -208.0744966304715717
  Basis Set: (AUG-CC-PVQZ AUX)
  @DF-RHF Final Energy:  -208.06170021916208
    Total Energy =                       -208.0617002191620770
  @DF-RHF Final Energy:  -208.07457551967488
    Total Energy =                       -208.0745755196748803
  @DF-RHF Final Energy:  -208.06169429722226
    Total Energy =                       -208.0616942972222603
  @DF-RHF Final Energy:  -208.07456941635292
    Total Energy =                       -208.0745694163529151
  @DF-RHF Final Energy:  -208.06135366264041
    Total Energy =                       -208.0613536626404141
  @DF-RHF Final Energy:  -208.07449053419523
    Total Energy =                       -208.0744905341952347
  Multiplicity = 1
  @DF-RHF Final Energy:  -416.09231246387390
    Total Energy =                       -416.0923124638738955
	 Singles Energy            =      -0.0000000000000000 [Eh]
	 Same-Spin Energy          =      -0.4205506086944182 [Eh]
	 Opposite-Spin Energy      =      -1.3242003280756314 [Eh]
	 Correlation Energy        =      -1.7447509367700496 [Eh]
	 Total Energy              =    -417.8370634006439559 [Eh]
	 SCS Total Energy          =    -417.8215363937961229 [Eh]
    Molecular point group: c1

    Geometry (in Angstrom), charge = 0, multiplicity = 1:

       Center              X                  Y                   Z               Mass
    ------------   -----------------  -----------------  -----------------  -----------------
         C           -1.773602061517     0.063700540726    -0.062824181395    12.000000000000
         O           -1.189152061517     1.038672540726     0.415058818605    15.994914619570
         N           -1.129473061517    -1.021420459274    -0.529648181395    14.003074004430
         H           -0.109269061517    -1.065027459274    -0.496963181395     1.007825032230
         H           -1.647479061517    -1.790075459274    -0.908410181395     1.007825032230
         C           -3.280571061517     0.039523540726    -0.148260181395    12.000000000000
         H           -3.684481061517     0.146065540726     0.855427818605     1.007825032230
         H           -3.673280061517    -0.867841459274    -0.599554181395     1.007825032230
         H           -3.607010061517     0.900120540726    -0.726547181395     1.007825032230
         C            1.773570938483    -0.063907459274     0.063144818605    12.000000000000
         O            1.189148938483    -1.037928459274    -0.416586181395    15.994914619570
         N            1.129483938483     1.020835540726     0.530991818605    14.003074004430
         H            0.109377938483     1.065273540726     0.496689818605     1.007825032230
         H            1.647507938483     1.788796540726     0.911111818605     1.007825032230
         C            3.280569938483    -0.039623459274     0.148369818605    12.000000000000
         H            3.672440938483     0.860026540726     0.615553818605     1.007825032230
         H            3.684125938483    -0.127168459274    -0.857410181395     1.007825032230
         H            3.608348938483    -0.910198459274     0.710549818605     1.007825032230

  Charge       = 0
  Multiplicity = 1
  Basis Set: AUG-CC-PVQZ
    Blend: AUG-CC-PVQZ
  Basis Set: (AUG-CC-PVQZ AUX)
    Blend: AUG-CC-PVQZ-JKFIT

    Orbital Energies [Eh]
    ---------------------

    Doubly Occupied:

       1A    -20.514443     2A    -20.514411     3A    -15.535950
       4A    -15.535938     5A    -11.350887     6A    -11.350868
       7A    -11.230281     8A    -11.230269     9A     -1.402170
      10A     -1.385478    11A     -1.207132    12A     -1.181263
      13A     -1.011343    14A     -0.992809    15A     -0.826742
      16A     -0.774071    17A     -0.766268    18A     -0.730561
      19A     -0.662843    20A     -0.626150    21A     -0.618256
      22A     -0.610058    23A     -0.595857    24A     -0.575271
      25A     -0.560161    26A     -0.538241    27A     -0.532015
      28A     -0.517493    29A     -0.444291    30A     -0.415626
      31A     -0.400210    32A     -0.386691

  @DF-RHF Final Energy:  -416.11829591195431

   => Energetics <=

    Nuclear Repulsion Energy =            394.0043629903753413
    One-Electron Energy =               -1350.1972268238832839
    Two-Electron Energy =                 540.0745679215536939
    Total Energy =                       -416.1182959119543057

  Dipole Moment: [D]
     X:     0.0009      Y:    -0.0013      Z:     0.0018     Total:     0.0024

  Basis Set: (AUG-CC-PVQZ AUX)
    Blend: AUG-CC-PVQZ-RI
	 Reference Energy          =    -416.1182959119543057 [Eh]
	 Singles Energy            =      -0.0000000000000000 [Eh]
	 Same-Spin Energy          =      -0.4456609582554636 [Eh]
	 Opposite-Spin Energy      =      -1.4891057909798149 [Eh]
	 Correlation Energy        =      -1.9347667492352785 [Eh]
	 Total Energy              =    -418.0530626611895855 [Eh]

	 ================> DF-SCS-MP2 Energies <==================
	-----------------------------------------------------------
	 SCS Same-Spin Scale       =       0.3333333333333333 [-]
	 SCS Opposite-Spin Scale   =       1.2000000000000000 [-]
	 SCS Same-Spin Energy      =      -0.1485536527518212 [Eh]
	 SCS Opposite-Spin Energy  =      -1.7869269491757778 [Eh]
	 SCS Correlation Energy    =      -1.9354806019275990 [Eh]
	 SCS Total Energy          =    -418.0537765138819282 [Eh]
	-----------------------------------------------------------

*** Psi4 exiting successfully. Buy a developer a beer!
