                               Psi4 1.4a2.dev224

  ==> Input File <==

--------------------------------------------------------------------------
#Generated by lconvert.py for cbs job

memory 40 GB

molecule  {
0 1
  C       -1.3097500     1.1801760    -0.0251700
  O       -0.7253000     2.1551480     0.4527130
  N       -0.6656210     0.0950550    -0.4919940
  H        0.3545830     0.0514480    -0.4593090
  H       -1.1836270    -0.6736000    -0.8707560
  C       -2.8167190     1.1559990    -0.1106060
  H       -3.2206290     1.2625410     0.8930820
  H       -3.2094280     0.2486340    -0.5619000
  H       -3.1431580     2.0165960    -0.6888930
--
0 1
  C        2.2374230     1.0525680     0.1007990
  O        1.6530010     0.0785470    -0.3789320
  N        1.5933360     2.1373110     0.5686460
  H        0.5732300     2.1817490     0.5343440
  H        2.1113600     2.9052720     0.9487660
  C        3.7444220     1.0768520     0.1860240
  H        4.1362930     1.9765020     0.6532080
  H        4.1479780     0.9893070    -0.8197560
  H        4.0722010     0.2062770     0.7482040
units angstrom
no_reorient
symmetry c1
}

set {
scf_type DF
mp2_type DF
e_convergence 7
reference rhf
}

energy('mp2/aug-cc-pv[tq]z', bsse_type='cp')
--------------------------------------------------------------------------

    Molecular point group: c1
  Charge       = 0
  Multiplicity = 1
  Basis Set: AUG-CC-PVTZ
    Blend: AUG-CC-PVTZ
  Basis Set: (AUG-CC-PVTZ AUX)
    Blend: AUG-CC-PVTZ-JKFIT
  @DF-RHF Final Energy:  -208.06135955704843
    Total Energy =                       -208.0613595570484335
  Basis Set: (AUG-CC-PVTZ AUX)
    Blend: AUG-CC-PVTZ-RI
	 Reference Energy          =    -208.0613595570484335 [Eh]
	 Singles Energy            =      -0.0000000000000000 [Eh]
	 Same-Spin Energy          =      -0.2048388500369369 [Eh]
	 Opposite-Spin Energy      =      -0.6562922595742109 [Eh]
	 Correlation Energy        =      -0.8611311096111478 [Eh]
	 Total Energy              =    -208.9224906666595700 [Eh]
	 SCS Total Energy          =    -208.9171898852164588 [Eh]
    Molecular point group: c1
  Basis Set: AUG-CC-PVQZ
    Blend: AUG-CC-PVQZ
  Basis Set: (AUG-CC-PVQZ AUX)
    Blend: AUG-CC-PVQZ-JKFIT
  @DF-RHF Final Energy:  -208.07449663047157
    Total Energy =                       -208.0744966304715717
  Basis Set: (AUG-CC-PVQZ AUX)
  @DF-RHF Final Energy:  -208.06170021916208
    Total Energy =                       -208.0617002191620770
  @DF-RHF Final Energy:  -208.07457551967488
    Total Energy =                       -208.0745755196748803
  @DF-RHF Final Energy:  -208.06169429722226
    Total Energy =                       -208.0616942972222603
  @DF-RHF Final Energy:  -208.07456941635292
    Total Energy =                       -208.0745694163529151
  @DF-RHF Final Energy:  -208.06135366264041
    Total Energy =                       -208.0613536626404141
  @DF-RHF Final Energy:  -208.07449053419523
    Total Energy =                       -208.0744905341952347
  @DF-RHF Final Energy:  -416.09231246387390
    Total Energy =                       -416.0923124638738955
  @DF-RHF Final Energy:  -416.11829591195431
    Total Energy =                       -416.1182959119543057
*** Psi4 exiting successfully. Buy a developer a beer!
                               Psi4 1.4a2.dev224
  @DF-RHF Final Energy:  -208.06135977111285
    Total Energy =                       -208.0613597711128477
  @DF-RHF Final Energy:  -208.07449685274372
    Total Energy =                       -208.0744968527437209
  @DF-RHF Final Energy:  -208.06164084416727
    Total Energy =                       -208.0616408441672718
  @DF-RHF Final Energy:  -208.07456437963396
    Total Energy =                       -208.0745643796339550
  @DF-RHF Final Energy:  -208.06163470676603
    Total Energy =                       -208.0616347067660286
  @DF-RHF Final Energy:  -208.07455805308840
    Total Energy =                       -208.0745580530883956
  @DF-RHF Final Energy:  -208.06135366281922
    Total Energy =                       -208.0613536628192151
  @DF-RHF Final Energy:  -208.07449053379639
    Total Energy =                       -208.0744905337963928
  @DF-RHF Final Energy:  -416.12479911477578
    Total Energy =                       -416.1247991147757830
  @DF-RHF Final Energy:  -416.15078547433154
    Total Energy =                       -416.1507854743315420
*** Psi4 exiting successfully. Buy a developer a beer!
                               Psi4 1.4a2.dev224
                               Psi4 1.4a2.dev224
                               Psi4 1.4a2.dev224
                               Psi4 1.4a2.dev224
                               Psi4 1.4a2.dev224
                               Psi4 1.4a2.dev224
                               Psi4 1.4a2.dev224
  @DF-RHF Final Energy:  -208.06135876988580
    Total Energy =                       -208.0613587698857998
  @DF-RHF Final Energy:  -208.07449582777380
    Total Energy =                       -208.0744958277738021
  @DF-RHF Final Energy:  -208.06140945532343
    Total Energy =                       -208.0614094553234281
  @DF-RHF Final Energy:  -208.07451168649067
    Total Energy =                       -208.0745116864906663
  @DF-RHF Final Energy:  -208.06140463120875
    Total Energy =                       -208.0614046312087453
  @DF-RHF Final Energy:  -208.07450668711223
    Total Energy =                       -208.0745066871122333
  @DF-RHF Final Energy:  -208.06135395125261
    Total Energy =                       -208.0613539512526131
  @DF-RHF Final Energy:  -208.07449083178349
    Total Energy =                       -208.0744908317834927
  @DF-RHF Final Energy:  -416.13278711075981
    Total Energy =                       -416.1327871107598071
  @DF-RHF Final Energy:  -416.15897913271164
    Total Energy =                       -416.1589791327116359
*** Psi4 exiting successfully. Buy a developer a beer!
                               Psi4 1.4a2.dev224
  @DF-RHF Final Energy:  -208.06135925443931
    Total Energy =                       -208.0613592544393100
  @DF-RHF Final Energy:  -208.07449631979605
    Total Energy =                       -208.0744963197960544
  @DF-RHF Final Energy:  -208.06138523689231
    Total Energy =                       -208.0613852368923062
  @DF-RHF Final Energy:  -208.07450489570260
    Total Energy =                       -208.0745048957026029
  @DF-RHF Final Energy:  -208.06137993417178
    Total Energy =                       -208.0613799341717822
  @DF-RHF Final Energy:  -208.07449940524913
    Total Energy =                       -208.0744994052491279
  @DF-RHF Final Energy:  -208.06135395103121
    Total Energy =                       -208.0613539510312080
  @DF-RHF Final Energy:  -208.07449083206737
    Total Energy =                       -208.0744908320673687
  Multiplicity = 1
  @DF-RHF Final Energy:  -416.12900023042249
    Total Energy =                       -416.1290002304224913
	 Singles Energy            =      -0.0000000000000000 [Eh]
	 Same-Spin Energy          =      -0.4099062420791285 [Eh]
	 Opposite-Spin Energy      =      -1.3131798283178042 [Eh]
	 Correlation Energy        =      -1.7230860703969326 [Eh]
	 Total Energy              =    -417.8520863008194510 [Eh]
	 SCS Total Energy          =    -417.8414514384302265 [Eh]
    Molecular point group: c1

    Geometry (in Angstrom), charge = 0, multiplicity = 1:

       Center              X                  Y                   Z               Mass
    ------------   -----------------  -----------------  -----------------  -----------------
         C           -2.886579001612     0.040487846723    -0.131750470298    12.000000000000
         O           -2.302129001612     1.015457846723     0.346129529702    15.994914619570
         N           -2.242449001612    -1.044632153277    -0.598570470298    14.003074004430
         H           -1.222249001612    -1.088242153277    -0.565890470298     1.007825032230
         H           -2.760459001612    -1.813292153277    -0.977340470298     1.007825032230
         C           -4.393549001612     0.016307846723    -0.217190470298    12.000000000000
         H           -4.797459001612     0.122847846723     0.786499529702     1.007825032230
         H           -4.786259001612    -0.891062153277    -0.668480470298     1.007825032230
         H           -4.719989001612     0.876907846723    -0.795470470298     1.007825032230
         C            2.886550998388    -0.040692153277     0.132069529702    12.000000000000
         O            2.302120998388    -1.014712153277    -0.347660470298    15.994914619570
         N            2.242460998388     1.044047846723     0.599919529702    14.003074004430
         H            1.222350998388     1.088487846723     0.565619529702     1.007825032230
         H            2.760480998388     1.812007846723     0.980039529702     1.007825032230
         C            4.393550998388    -0.016412153277     0.217299529702    12.000000000000
         H            4.785420998388     0.883237846723     0.684479529702     1.007825032230
         H            4.797100998388    -0.103952153277    -0.788480470298     1.007825032230
         H            4.721330998388    -0.886982153277     0.779479529702     1.007825032230

  Charge       = 0
  Multiplicity = 1
  Basis Set: AUG-CC-PVQZ
    Blend: AUG-CC-PVQZ
  Basis Set: (AUG-CC-PVQZ AUX)
    Blend: AUG-CC-PVQZ-JKFIT

    Orbital Energies [Eh]
    ---------------------

    Doubly Occupied:

       1A    -20.507317     2A    -20.507300     3A    -15.585050
       4A    -15.585036     5A    -11.349355     6A    -11.349354
       7A    -11.234239     8A    -11.234239     9A     -1.366706
      10A     -1.366638    11A     -1.213032    12A     -1.212969
      13A     -1.003073    14A     -1.002959    15A     -0.799936
      16A     -0.799543    17A     -0.725144    18A     -0.724449
      19A     -0.662000    20A     -0.661033    21A     -0.613320
      22A     -0.613243    23A     -0.578058    24A     -0.577352
      25A     -0.561886    26A     -0.561693    27A     -0.521761
      28A     -0.521532    29A     -0.421618    30A     -0.419483
      31A     -0.411056    32A     -0.410675

  @DF-RHF Final Energy:  -416.15522532381323

   => Energetics <=

    Nuclear Repulsion Energy =            335.7455503767664595
    One-Electron Energy =               -1233.5994546805982282
    Two-Electron Energy =                 481.6986789800185420
    Total Energy =                       -416.1552253238132266

  Dipole Moment: [D]
     X:     0.0002      Y:    -0.0017      Z:     0.0025     Total:     0.0030

  Basis Set: (AUG-CC-PVQZ AUX)
    Blend: AUG-CC-PVQZ-RI
	 Reference Energy          =    -416.1552253238132266 [Eh]
	 Singles Energy            =      -0.0000000000000000 [Eh]
	 Same-Spin Energy          =      -0.4349449773305040 [Eh]
	 Opposite-Spin Energy      =      -1.4804284027166732 [Eh]
	 Correlation Energy        =      -1.9153733800471771 [Eh]
	 Total Energy              =    -418.0705987038604121 [Eh]

	 ================> DF-SCS-MP2 Energies <==================
	-----------------------------------------------------------
	 SCS Same-Spin Scale       =       0.3333333333333333 [-]
	 SCS Opposite-Spin Scale   =       1.2000000000000000 [-]
	 SCS Same-Spin Energy      =      -0.1449816591101680 [Eh]
	 SCS Opposite-Spin Energy  =      -1.7765140832600077 [Eh]
	 SCS Correlation Energy    =      -1.9214957423701757 [Eh]
	 SCS Total Energy          =    -418.0767210661833815 [Eh]
	-----------------------------------------------------------

*** Psi4 exiting successfully. Buy a developer a beer!
