                               Psi4 1.4a2.dev224

  ==> Input File <==

--------------------------------------------------------------------------
#Generated by lconvert.py for cbs job

memory 40 GB

molecule  {
0 1
  C       -1.3097500     1.1801760    -0.0251700
  O       -0.7253000     2.1551480     0.4527130
  N       -0.6656210     0.0950550    -0.4919940
  H        0.3545830     0.0514480    -0.4593090
  H       -1.1836270    -0.6736000    -0.8707560
  C       -2.8167190     1.1559990    -0.1106060
  H       -3.2206290     1.2625410     0.8930820
  H       -3.2094280     0.2486340    -0.5619000
  H       -3.1431580     2.0165960    -0.6888930
--
0 1
  C        2.8867310     1.0661070     0.1410250
  O        2.3023090     0.0920870    -0.3387060
  N        2.2426430     2.1508500     0.6088710
  H        1.2225380     2.1952880     0.5745700
  H        2.7606670     2.9188120     0.9889920
  C        4.3937300     1.0903920     0.2262500
  H        4.7856010     1.9900410     0.6934340
  H        4.7972860     1.0028460    -0.7795300
  H        4.7215090     0.2198170     0.7884300
units angstrom
no_reorient
symmetry c1
}

set {
scf_type DF
mp2_type DF
e_convergence 7
reference rhf
}

energy('mp2/aug-cc-pv[tq]z', bsse_type='cp')
--------------------------------------------------------------------------

    Molecular point group: c1
  Charge       = 0
  Multiplicity = 1
  Basis Set: AUG-CC-PVTZ
    Blend: AUG-CC-PVTZ
  Basis Set: (AUG-CC-PVTZ AUX)
    Blend: AUG-CC-PVTZ-JKFIT
  @DF-RHF Final Energy:  -208.06135968318983
    Total Energy =                       -208.0613596831898349
  Basis Set: (AUG-CC-PVTZ AUX)
    Blend: AUG-CC-PVTZ-RI
	 Reference Energy          =    -208.0613596831898349 [Eh]
	 Singles Energy            =      -0.0000000000000000 [Eh]
	 Same-Spin Energy          =      -0.2048388330510199 [Eh]
	 Opposite-Spin Energy      =      -0.6562922136093776 [Eh]
	 Correlation Energy        =      -0.8611310466603975 [Eh]
	 Total Energy              =    -208.9224907298502387 [Eh]
	 SCS Total Energy          =    -208.9171899505381020 [Eh]
    Molecular point group: c1
  Basis Set: AUG-CC-PVQZ
    Blend: AUG-CC-PVQZ
  Basis Set: (AUG-CC-PVQZ AUX)
    Blend: AUG-CC-PVQZ-JKFIT
  @DF-RHF Final Energy:  -208.07449676106438
    Total Energy =                       -208.0744967610643812
  Basis Set: (AUG-CC-PVQZ AUX)
  @DF-RHF Final Energy:  -208.06151670259868
    Total Energy =                       -208.0615167025986807
  @DF-RHF Final Energy:  -208.07453995058086
    Total Energy =                       -208.0745399505808564
  @DF-RHF Final Energy:  -208.06151065733908
    Total Energy =                       -208.0615106573390847
  @DF-RHF Final Energy:  -208.07453372276737
    Total Energy =                       -208.0745337227673701
  @DF-RHF Final Energy:  -208.06135366252863
    Total Energy =                       -208.0613536625286315
  @DF-RHF Final Energy:  -208.07449053405310
    Total Energy =                       -208.0744905340530977
  Multiplicity = 1
  @DF-RHF Final Energy:  -416.14310087129434
    Total Energy =                       -416.1431008712943367
	 Singles Energy            =      -0.0000000000000000 [Eh]
	 Same-Spin Energy          =      -0.4132058446329289 [Eh]
	 Opposite-Spin Energy      =      -1.3177209766863509 [Eh]
	 Correlation Energy        =      -1.7309268213192799 [Eh]
	 Total Energy              =    -417.8740276926135948 [Eh]
	 SCS Total Energy          =    -417.8621013248622944 [Eh]
    Molecular point group: c1

    Geometry (in Angstrom), charge = 0, multiplicity = 1:

       Center              X                  Y                   Z               Mass
    ------------   -----------------  -----------------  -----------------  -----------------
         C           -2.098255934386     0.056930786559    -0.082937062800    12.000000000000
         O           -1.513805934386     1.031902786559     0.394945937200    15.994914619570
         N           -1.454126934386    -1.028190213441    -0.549761062800    14.003074004430
         H           -0.433922934386    -1.071797213441    -0.517076062800     1.007825032230
         H           -1.972132934386    -1.796845213441    -0.928523062800     1.007825032230
         C           -3.605224934386     0.032753786559    -0.168373062800    12.000000000000
         H           -4.009134934386     0.139295786559     0.835314937200     1.007825032230
         H           -3.997933934386    -0.874611213441    -0.619667062800     1.007825032230
         H           -3.931663934386     0.893350786559    -0.746660062800     1.007825032230
         C            2.098225065614    -0.057138213441     0.083257937200    12.000000000000
         O            1.513803065614    -1.031158213441    -0.396473062800    15.994914619570
         N            1.454137065614     1.027604786559     0.551103937200    14.003074004430
         H            0.434032065614     1.072042786559     0.516802937200     1.007825032230
         H            1.972161065614     1.795566786559     0.931224937200     1.007825032230
         C            3.605224065614    -0.032853213441     0.168482937200    12.000000000000
         H            3.997095065614     0.866795786559     0.635666937200     1.007825032230
         H            4.008780065614    -0.120399213441    -0.837297062800     1.007825032230
         H            3.933003065614    -0.903428213441     0.730662937200     1.007825032230

  Charge       = 0
  Multiplicity = 1
  Basis Set: AUG-CC-PVQZ
    Blend: AUG-CC-PVQZ
  Basis Set: (AUG-CC-PVQZ AUX)
    Blend: AUG-CC-PVQZ-JKFIT

    Orbital Energies [Eh]
    ---------------------

    Doubly Occupied:

       1A    -20.510941     2A    -20.510918     3A    -15.569734
       4A    -15.569727     5A    -11.349922     6A    -11.349916
       7A    -11.232730     8A    -11.232727     9A     -1.373876
      10A     -1.370187    11A     -1.207178    12A     -1.202246
      13A     -1.003506    14A     -0.999459    15A     -0.799282
      16A     -0.787763    17A     -0.722042    18A     -0.716884
      19A     -0.674048    20A     -0.650733    21A     -0.613608
      22A     -0.611616    23A     -0.586090    24A     -0.575616
      25A     -0.560706    26A     -0.555423    27A     -0.523111
      28A     -0.518198    29A     -0.435614    30A     -0.416730
      31A     -0.412092    32A     -0.403614

  @DF-RHF Final Energy:  -416.16926975215205

   => Energetics <=

    Nuclear Repulsion Energy =            370.3135332798610193
    One-Electron Energy =               -1302.8731368167048004
    Two-Electron Energy =                 516.3903337846916202
    Total Energy =                       -416.1692697521521040

  Dipole Moment: [D]
     X:     0.0004      Y:    -0.0016      Z:     0.0024     Total:     0.0029

  Basis Set: (AUG-CC-PVQZ AUX)
    Blend: AUG-CC-PVQZ-RI
	 Reference Energy          =    -416.1692697521520472 [Eh]
	 Singles Energy            =      -0.0000000000000000 [Eh]
	 Same-Spin Energy          =      -0.4381497281166907 [Eh]
	 Opposite-Spin Energy      =      -1.4829736301154566 [Eh]
	 Correlation Energy        =      -1.9211233582321472 [Eh]
	 Total Energy              =    -418.0903931103841842 [Eh]

	 ================> DF-SCS-MP2 Energies <==================
	-----------------------------------------------------------
	 SCS Same-Spin Scale       =       0.3333333333333333 [-]
	 SCS Opposite-Spin Scale   =       1.2000000000000000 [-]
	 SCS Same-Spin Energy      =      -0.1460499093722302 [Eh]
	 SCS Opposite-Spin Energy  =      -1.7795683561385478 [Eh]
	 SCS Correlation Energy    =      -1.9256182655107781 [Eh]
	 SCS Total Energy          =    -418.0948880176628109 [Eh]
	-----------------------------------------------------------

*** Psi4 exiting successfully. Buy a developer a beer!
