                               Psi4 1.4a2.dev224

  ==> Input File <==

--------------------------------------------------------------------------
#Generated by lconvert.py for cbs job

memory 40 GB

molecule  {
0 1
  C       -1.3097500     1.1801760    -0.0251700
  O       -0.7253000     2.1551480     0.4527130
  N       -0.6656210     0.0950550    -0.4919940
  H        0.3545830     0.0514480    -0.4593090
  H       -1.1836270    -0.6736000    -0.8707560
  C       -2.8167190     1.1559990    -0.1106060
  H       -3.2206290     1.2625410     0.8930820
  H       -3.2094280     0.2486340    -0.5619000
  H       -3.1431580     2.0165960    -0.6888930
--
0 1
  C        2.7012460     1.0622610     0.1294800
  O        2.1168240     0.0882400    -0.3502510
  N        2.0571580     2.1470040     0.5973270
  H        1.0370530     2.1914420     0.5630260
  H        2.5751820     2.9149650     0.9774480
  C        4.2082450     1.0865450     0.2147050
  H        4.6001160     1.9861950     0.6818890
  H        4.6118010     0.9990000    -0.7910750
  H        4.5360230     0.2159700     0.7768860
units angstrom
no_reorient
symmetry c1
}

set {
scf_type DF
mp2_type DF
e_convergence 7
reference rhf
}

energy('mp2/aug-cc-pv[tq]z', bsse_type='cp')
--------------------------------------------------------------------------

    Molecular point group: c1
  Charge       = 0
  Multiplicity = 1
  Basis Set: AUG-CC-PVTZ
    Blend: AUG-CC-PVTZ
  Basis Set: (AUG-CC-PVTZ AUX)
    Blend: AUG-CC-PVTZ-JKFIT
  @DF-RHF Final Energy:  -208.06135959968202
    Total Energy =                       -208.0613595996820209
  Basis Set: (AUG-CC-PVTZ AUX)
    Blend: AUG-CC-PVTZ-RI
	 Reference Energy          =    -208.0613595996820209 [Eh]
	 Singles Energy            =      -0.0000000000000000 [Eh]
	 Same-Spin Energy          =      -0.2048388440461565 [Eh]
	 Opposite-Spin Energy      =      -0.6562922566953352 [Eh]
	 Correlation Energy        =      -0.8611311007414917 [Eh]
	 Total Energy              =    -208.9224907004235092 [Eh]
	 SCS Total Energy          =    -208.9171899223984781 [Eh]
    Molecular point group: c1
  Basis Set: AUG-CC-PVQZ
    Blend: AUG-CC-PVQZ
  Basis Set: (AUG-CC-PVQZ AUX)
    Blend: AUG-CC-PVQZ-JKFIT
  @DF-RHF Final Energy:  -208.07449667224105
    Total Energy =                       -208.0744966722410538
  Basis Set: (AUG-CC-PVQZ AUX)
  @DF-RHF Final Energy:  -208.06156322269143
    Total Energy =                       -208.0615632226914329
  @DF-RHF Final Energy:  -208.07454859654115
    Total Energy =                       -208.0745485965411490
  @DF-RHF Final Energy:  -208.06155725326133
    Total Energy =                       -208.0615572532613271
  @DF-RHF Final Energy:  -208.07454245138138
    Total Energy =                       -208.0745424513813759
  @DF-RHF Final Energy:  -208.06135366249569
    Total Energy =                       -208.0613536624956907
  @DF-RHF Final Energy:  -208.07449053407345
    Total Energy =                       -208.0744905340734476
  Multiplicity = 1
  @DF-RHF Final Energy:  -416.14130709753431
    Total Energy =                       -416.1413070975343089
	 Singles Energy            =      -0.0000000000000000 [Eh]
	 Same-Spin Energy          =      -0.4145859786696621 [Eh]
	 Opposite-Spin Energy      =      -1.3189179329149985 [Eh]
	 Correlation Energy        =      -1.7335039115846604 [Eh]
	 Total Energy              =    -417.8748110091189574 [Eh]
	 SCS Total Energy          =    -417.8622039432555084 [Eh]
    Molecular point group: c1

    Geometry (in Angstrom), charge = 0, multiplicity = 1:

       Center              X                  Y                   Z               Mass
    ------------   -----------------  -----------------  -----------------  -----------------
         C           -2.005513425850     0.058854040726    -0.077164707002    12.000000000000
         O           -1.421063425850     1.033826040726     0.400718292998    15.994914619570
         N           -1.361384425850    -1.026266959274    -0.543988707002    14.003074004430
         H           -0.341180425850    -1.069873959274    -0.511303707002     1.007825032230
         H           -1.879390425850    -1.794921959274    -0.922750707002     1.007825032230
         C           -3.512482425850     0.034677040726    -0.162600707002    12.000000000000
         H           -3.916392425850     0.141219040726     0.841087292998     1.007825032230
         H           -3.905191425850    -0.872687959274    -0.613894707002     1.007825032230
         H           -3.838921425850     0.895274040726    -0.740887707002     1.007825032230
         C            2.005482574150    -0.059060959274     0.077485292998    12.000000000000
         O            1.421060574150    -1.033081959274    -0.402245707002    15.994914619570
         N            1.361394574150     1.025682040726     0.545332292998    14.003074004430
         H            0.341289574150     1.070120040726     0.511031292998     1.007825032230
         H            1.879418574150     1.793643040726     0.925453292998     1.007825032230
         C            3.512481574150    -0.034776959274     0.162710292998    12.000000000000
         H            3.904352574150     0.864873040726     0.629894292998     1.007825032230
         H            3.916037574150    -0.122321959274    -0.843069707002     1.007825032230
         H            3.840259574150    -0.905351959274     0.724891292998     1.007825032230

  Charge       = 0
  Multiplicity = 1
  Basis Set: AUG-CC-PVQZ
    Blend: AUG-CC-PVQZ
  Basis Set: (AUG-CC-PVQZ AUX)
    Blend: AUG-CC-PVQZ-JKFIT

    Orbital Energies [Eh]
    ---------------------

    Doubly Occupied:

       1A    -20.511725     2A    -20.511700     3A    -15.563825
       4A    -15.563821     5A    -11.350112     6A    -11.350103
       7A    -11.232226     8A    -11.232220     9A     -1.377667
      10A     -1.371850    11A     -1.206365    12A     -1.198337
      13A     -1.004325    14A     -0.998162    15A     -0.801711
      16A     -0.783709    17A     -0.723285    18A     -0.721752
      19A     -0.675142    20A     -0.645341    21A     -0.614081
      22A     -0.611137    23A     -0.588866    24A     -0.575181
      25A     -0.560366    26A     -0.552659    27A     -0.524316
      28A     -0.517374    29A     -0.439029    30A     -0.414972
      31A     -0.412836    32A     -0.400631

  @DF-RHF Final Energy:  -416.16741338594591

   => Energetics <=

    Nuclear Repulsion Energy =            376.2299184084030230
    One-Electron Energy =               -1314.7250142165144098
    Two-Electron Energy =                 522.3276824221654806
    Total Energy =                       -416.1674133859459062

  Dipole Moment: [D]
     X:     0.0005      Y:    -0.0016      Z:     0.0023     Total:     0.0029

  Basis Set: (AUG-CC-PVQZ AUX)
    Blend: AUG-CC-PVQZ-RI
	 Reference Energy          =    -416.1674133859459062 [Eh]
	 Singles Energy            =      -0.0000000000000000 [Eh]
	 Same-Spin Energy          =      -0.4395541230261174 [Eh]
	 Opposite-Spin Energy      =      -1.4840861512228316 [Eh]
	 Correlation Energy        =      -1.9236402742489491 [Eh]
	 Total Energy              =    -418.0910536601948593 [Eh]

	 ================> DF-SCS-MP2 Energies <==================
	-----------------------------------------------------------
	 SCS Same-Spin Scale       =       0.3333333333333333 [-]
	 SCS Opposite-Spin Scale   =       1.2000000000000000 [-]
	 SCS Same-Spin Energy      =      -0.1465180410087058 [Eh]
	 SCS Opposite-Spin Energy  =      -1.7809033814673978 [Eh]
	 SCS Correlation Energy    =      -1.9274214224761037 [Eh]
	 SCS Total Energy          =    -418.0948348084220356 [Eh]
	-----------------------------------------------------------

*** Psi4 exiting successfully. Buy a developer a beer!
