                               Psi4 1.4a2.dev224

  ==> Input File <==

--------------------------------------------------------------------------
#Generated by lconvert.py for cbs job

memory 40 GB

molecule  {
0 1
  C       -1.3097500     1.1801760    -0.0251700
  O       -0.7253000     2.1551480     0.4527130
  N       -0.6656210     0.0950550    -0.4919940
  H        0.3545830     0.0514480    -0.4593090
  H       -1.1836270    -0.6736000    -0.8707560
  C       -2.8167190     1.1559990    -0.1106060
  H       -3.2206290     1.2625410     0.8930820
  H       -3.2094280     0.2486340    -0.5619000
  H       -3.1431580     2.0165960    -0.6888930
--
0 1
  C        2.7938880     1.0641820     0.1352460
  O        2.2094670     0.0901610    -0.3444850
  N        2.1498010     2.1489250     0.6030930
  H        1.1296950     2.1933630     0.5687920
  H        2.6678250     2.9168860     0.9832140
  C        4.3008870     1.0884660     0.2204720
  H        4.6927590     1.9881160     0.6876560
  H        4.7044440     1.0009210    -0.7853090
  H        4.6286660     0.2178910     0.7826520
units angstrom
no_reorient
symmetry c1
}

set {
scf_type DF
mp2_type DF
e_convergence 7
reference rhf
}

energy('mp2/aug-cc-pv[tq]z', bsse_type='cp')
--------------------------------------------------------------------------

    Molecular point group: c1
  Charge       = 0
  Multiplicity = 1
  Basis Set: AUG-CC-PVTZ
    Blend: AUG-CC-PVTZ
  Basis Set: (AUG-CC-PVTZ AUX)
    Blend: AUG-CC-PVTZ-JKFIT
  @DF-RHF Final Energy:  -208.06135958363114
    Total Energy =                       -208.0613595836311447
  Basis Set: (AUG-CC-PVTZ AUX)
    Blend: AUG-CC-PVTZ-RI
	 Reference Energy          =    -208.0613595836311447 [Eh]
	 Singles Energy            =      -0.0000000000000000 [Eh]
	 Same-Spin Energy          =      -0.2048388418736329 [Eh]
	 Opposite-Spin Energy      =      -0.6562922511570133 [Eh]
	 Correlation Energy        =      -0.8611310930306462 [Eh]
	 Total Energy              =    -208.9224906766617949 [Eh]
	 SCS Total Energy          =    -208.9171898989774263 [Eh]
    Molecular point group: c1
  Basis Set: AUG-CC-PVQZ
    Blend: AUG-CC-PVQZ
  Basis Set: (AUG-CC-PVQZ AUX)
    Blend: AUG-CC-PVQZ-JKFIT
  @DF-RHF Final Energy:  -208.07449665863439
    Total Energy =                       -208.0744966586343878
  Basis Set: (AUG-CC-PVQZ AUX)
  @DF-RHF Final Energy:  -208.06153810059459
    Total Energy =                       -208.0615381005945892
  @DF-RHF Final Energy:  -208.07454371581693
    Total Energy =                       -208.0745437158169295
  @DF-RHF Final Energy:  -208.06153214839213
    Total Energy =                       -208.0615321483921321
  @DF-RHF Final Energy:  -208.07453758855760
    Total Energy =                       -208.0745375885576038
  @DF-RHF Final Energy:  -208.06135366257115
    Total Energy =                       -208.0613536625711504
  @DF-RHF Final Energy:  -208.07449053363391
    Total Energy =                       -208.0744905336339059
  Multiplicity = 1
  @DF-RHF Final Energy:  -416.14271350022506
    Total Energy =                       -416.1427135002251134
	 Singles Energy            =      -0.0000000000000000 [Eh]
	 Same-Spin Energy          =      -0.4138382835991748 [Eh]
	 Opposite-Spin Energy      =      -1.3182823765546998 [Eh]
	 Correlation Energy        =      -1.7321206601538748 [Eh]
	 Total Energy              =    -417.8748341603789527 [Eh]
	 SCS Total Energy          =    -417.8625984466237355 [Eh]
    Molecular point group: c1

    Geometry (in Angstrom), charge = 0, multiplicity = 1:

       Center              X                  Y                   Z               Mass
    ------------   -----------------  -----------------  -----------------  -----------------
         C           -2.051834714053     0.057893540726    -0.080047817168    12.000000000000
         O           -1.467384714053     1.032865540726     0.397835182832    15.994914619570
         N           -1.407705714053    -1.027227459274    -0.546871817168    14.003074004430
         H           -0.387501714053    -1.070834459274    -0.514186817168     1.007825032230
         H           -1.925711714053    -1.795882459274    -0.925633817168     1.007825032230
         C           -3.558803714053     0.033716540726    -0.165483817168    12.000000000000
         H           -3.962713714053     0.140258540726     0.838204182832     1.007825032230
         H           -3.951512714053    -0.873648459274    -0.616777817168     1.007825032230
         H           -3.885242714053     0.894313540726    -0.743770817168     1.007825032230
         C            2.051803285947    -0.058100459274     0.080368182832    12.000000000000
         O            1.467382285947    -1.032121459274    -0.399362817168    15.994914619570
         N            1.407716285947     1.026642540726     0.548215182832    14.003074004430
         H            0.387610285947     1.071080540726     0.513914182832     1.007825032230
         H            1.925740285947     1.794603540726     0.928336182832     1.007825032230
         C            3.558802285947    -0.033816459274     0.165594182832    12.000000000000
         H            3.950674285947     0.865833540726     0.632778182832     1.007825032230
         H            3.962359285947    -0.121361459274    -0.840186817168     1.007825032230
         H            3.886581285947    -0.904391459274     0.727774182832     1.007825032230

  Charge       = 0
  Multiplicity = 1
  Basis Set: AUG-CC-PVQZ
    Blend: AUG-CC-PVQZ
  Basis Set: (AUG-CC-PVQZ AUX)
    Blend: AUG-CC-PVQZ-JKFIT

    Orbital Energies [Eh]
    ---------------------

    Doubly Occupied:

       1A    -20.511322     2A    -20.511298     3A    -15.567035
       4A    -15.567029     5A    -11.350011     6A    -11.350004
       7A    -11.232495     8A    -11.232491     9A     -1.375550
      10A     -1.370910    11A     -1.206744    12A     -1.200443
      13A     -1.003850    14A     -0.998858    15A     -0.800244
      16A     -0.785878    17A     -0.722532    18A     -0.718565
      19A     -0.674927    20A     -0.648274    21A     -0.613807
      22A     -0.611386    23A     -0.587405    24A     -0.575391
      25A     -0.560549    26A     -0.554177    27A     -0.523636
      28A     -0.517785    29A     -0.437303    30A     -0.415987
      31A     -0.412431    32A     -0.402252

  @DF-RHF Final Energy:  -416.16885920731090

   => Energetics <=

    Nuclear Repulsion Energy =            373.2039894719639506
    One-Electron Energy =               -1308.6645619431756131
    Two-Electron Energy =                 519.2917132639007605
    Total Energy =                       -416.1688592073109021

  Dipole Moment: [D]
     X:     0.0004      Y:    -0.0016      Z:     0.0024     Total:     0.0029

  Basis Set: (AUG-CC-PVQZ AUX)
    Blend: AUG-CC-PVQZ-RI
	 Reference Energy          =    -416.1688592073109021 [Eh]
	 Singles Energy            =      -0.0000000000000000 [Eh]
	 Same-Spin Energy          =      -0.4387922949506657 [Eh]
	 Opposite-Spin Energy      =      -1.4834797427611552 [Eh]
	 Correlation Energy        =      -1.9222720377118210 [Eh]
	 Total Energy              =    -418.0911312450227229 [Eh]

	 ================> DF-SCS-MP2 Energies <==================
	-----------------------------------------------------------
	 SCS Same-Spin Scale       =       0.3333333333333333 [-]
	 SCS Opposite-Spin Scale   =       1.2000000000000000 [-]
	 SCS Same-Spin Energy      =      -0.1462640983168886 [Eh]
	 SCS Opposite-Spin Energy  =      -1.7801756913133862 [Eh]
	 SCS Correlation Energy    =      -1.9264397896302747 [Eh]
	 SCS Total Energy          =    -418.0952989969411533 [Eh]
	-----------------------------------------------------------

*** Psi4 exiting successfully. Buy a developer a beer!
