                               Psi4 1.4a2.dev224

  ==> Input File <==

--------------------------------------------------------------------------
#Generated by lconvert.py for cbs job

memory 20 GB

molecule  {
0 1
  C      -1.309750    1.180180   -0.025170
  O      -0.725300    2.155150    0.452710
  N      -0.665620    0.095060   -0.491990
  H       0.354580    0.051450   -0.459310
  H      -1.183630   -0.673600   -0.870760
  C      -2.816720    1.156000   -0.110610
  H      -3.220630    1.262540    0.893080
  H      -3.209430    0.248630   -0.561900
  H      -3.143160    2.016600   -0.688890
--
0 1
  C       3.906910    1.087390    0.204210
  O       3.322490    0.113360   -0.275520
  N       3.262830    2.172130    0.672050
  H       2.242720    2.216570    0.637750
  H       3.780850    2.940090    1.052170
  C       5.413910    1.111670    0.289430
  H       5.805780    2.011320    0.756620
  H       5.817470    1.024120   -0.716350
  H       5.741690    0.241100    0.851610
units angstrom
no_reorient
symmetry c1
}

set {
scf_type DF
mp2_type DF
e_convergence 7
reference rhf
}

energy('mp2/aug-cc-pv[tq]z', bsse_type='cp')
--------------------------------------------------------------------------

    Molecular point group: c1
  Charge       = 0
  Multiplicity = 1
  Basis Set: AUG-CC-PVTZ
    Blend: AUG-CC-PVTZ
  Basis Set: (AUG-CC-PVTZ AUX)
    Blend: AUG-CC-PVTZ-JKFIT
  @DF-RHF Final Energy:  -208.06135876988580
    Total Energy =                       -208.0613587698857998
  Basis Set: (AUG-CC-PVTZ AUX)
    Blend: AUG-CC-PVTZ-RI
	 Reference Energy          =    -208.0613587698857998 [Eh]
	 Singles Energy            =      -0.0000000000000000 [Eh]
	 Same-Spin Energy          =      -0.2048389598931106 [Eh]
	 Opposite-Spin Energy      =      -0.6562924423825609 [Eh]
	 Correlation Energy        =      -0.8611314022756715 [Eh]
	 Total Energy              =    -208.9224901721614742 [Eh]
	 SCS Total Energy          =    -208.9171893540425629 [Eh]
    Molecular point group: c1
  Basis Set: AUG-CC-PVQZ
    Blend: AUG-CC-PVQZ
  Basis Set: (AUG-CC-PVQZ AUX)
    Blend: AUG-CC-PVQZ-JKFIT
  @DF-RHF Final Energy:  -208.07449582777380
    Total Energy =                       -208.0744958277738021
  Basis Set: (AUG-CC-PVQZ AUX)
  @DF-RHF Final Energy:  -208.06140945532343
    Total Energy =                       -208.0614094553234281
  @DF-RHF Final Energy:  -208.07451168649067
    Total Energy =                       -208.0745116864906663
  @DF-RHF Final Energy:  -208.06140463120875
    Total Energy =                       -208.0614046312087453
  @DF-RHF Final Energy:  -208.07450668711223
    Total Energy =                       -208.0745066871122333
  @DF-RHF Final Energy:  -208.06135395125261
    Total Energy =                       -208.0613539512526131
  @DF-RHF Final Energy:  -208.07449083178349
    Total Energy =                       -208.0744908317834927
  Multiplicity = 1
  @DF-RHF Final Energy:  -416.13278711075981
    Total Energy =                       -416.1327871107598071
	 Singles Energy            =      -0.0000000000000000 [Eh]
	 Same-Spin Energy          =      -0.4102720156092898 [Eh]
	 Opposite-Spin Energy      =      -1.3138523790969114 [Eh]
	 Correlation Energy        =      -1.7241243947062013 [Eh]
	 Total Energy              =    -417.8569115054660301 [Eh]
	 SCS Total Energy          =    -417.8461673042125426 [Eh]
    Molecular point group: c1

    Geometry (in Angstrom), charge = 0, multiplicity = 1:

       Center              X                  Y                   Z               Mass
    ------------   -----------------  -----------------  -----------------  -----------------
         C           -2.608346798282     0.046294286727    -0.114527926612    12.000000000000
         O           -2.023896798282     1.021264286727     0.363352073388    15.994914619570
         N           -1.964216798282    -1.038825713273    -0.581347926612    14.003074004430
         H           -0.944016798282    -1.082435713273    -0.548667926612     1.007825032230
         H           -2.482226798282    -1.807485713273    -0.960117926612     1.007825032230
         C           -4.115316798282     0.022114286727    -0.199967926612    12.000000000000
         H           -4.519226798282     0.128654286727     0.803722073388     1.007825032230
         H           -4.508026798282    -0.885255713273    -0.651257926612     1.007825032230
         H           -4.441756798282     0.882714286727    -0.778247926612     1.007825032230
         C            2.608313201718    -0.046495713273     0.114852073388    12.000000000000
         O            2.023893201718    -1.020525713273    -0.364877926612    15.994914619570
         N            1.964233201718     1.038244286727     0.582692073388    14.003074004430
         H            0.944123201718     1.082684286727     0.548392073388     1.007825032230
         H            2.482253201718     1.806204286727     0.962812073388     1.007825032230
         C            4.115313201718    -0.022215713273     0.200072073388    12.000000000000
         H            4.507183201718     0.877434286727     0.667262073388     1.007825032230
         H            4.518873201718    -0.109765713273    -0.805707926612     1.007825032230
         H            4.443093201718    -0.892785713273     0.762252073388     1.007825032230

  Charge       = 0
  Multiplicity = 1
  Basis Set: AUG-CC-PVQZ
    Blend: AUG-CC-PVQZ
  Basis Set: (AUG-CC-PVQZ AUX)
    Blend: AUG-CC-PVQZ-JKFIT

    Orbital Energies [Eh]
    ---------------------

    Doubly Occupied:

       1A    -20.508005     2A    -20.507988     3A    -15.582714
       4A    -15.582703     5A    -11.349392     6A    -11.349391
       7A    -11.233963     8A    -11.233963     9A     -1.367393
      10A     -1.367123    11A     -1.211601    12A     -1.211299
      13A     -1.002851    14A     -1.002444    15A     -0.798940
      16A     -0.797697    17A     -0.723735    18A     -0.721963
      19A     -0.663405    20A     -0.660285    21A     -0.613186
      22A     -0.612945    23A     -0.579057    24A     -0.577153
      25A     -0.561535    26A     -0.560885    27A     -0.521616
      28A     -0.520938    29A     -0.423898    30A     -0.419140
      31A     -0.410910    32A     -0.409781

  @DF-RHF Final Energy:  -416.15897913271164

   => Energetics <=

    Nuclear Repulsion Energy =            345.5257609887457306
    One-Electron Energy =               -1253.1936848881173319
    Two-Electron Energy =                 491.5089447666599085
    Total Energy =                       -416.1589791327116359

  Dipole Moment: [D]
     X:     0.0002      Y:    -0.0016      Z:     0.0025     Total:     0.0030

  Basis Set: (AUG-CC-PVQZ AUX)
    Blend: AUG-CC-PVQZ-RI
	 Reference Energy          =    -416.1589791327116359 [Eh]
	 Singles Energy            =      -0.0000000000000000 [Eh]
	 Same-Spin Energy          =      -0.4352824521550367 [Eh]
	 Opposite-Spin Energy      =      -1.4806622413706725 [Eh]
	 Correlation Energy        =      -1.9159446935257092 [Eh]
	 Total Energy              =    -418.0749238262373524 [Eh]

	 ================> DF-SCS-MP2 Energies <==================
	-----------------------------------------------------------
	 SCS Same-Spin Scale       =       0.3333333333333333 [-]
	 SCS Opposite-Spin Scale   =       1.2000000000000000 [-]
	 SCS Same-Spin Energy      =      -0.1450941507183456 [Eh]
	 SCS Opposite-Spin Energy  =      -1.7767946896448070 [Eh]
	 SCS Correlation Energy    =      -1.9218888403631527 [Eh]
	 SCS Total Energy          =    -418.0808679730748167 [Eh]
	-----------------------------------------------------------

*** Psi4 exiting successfully. Buy a developer a beer!
