                               Psi4 1.4a2.dev224

  ==> Input File <==

--------------------------------------------------------------------------
#Generated by lconvert.py for cbs job

memory 20 GB

molecule  {
0 1
  C      -1.309750    1.180180   -0.025170
  O      -0.725300    2.155150    0.452710
  N      -0.665620    0.095060   -0.491990
  H       0.354580    0.051450   -0.459310
  H      -1.183630   -0.673600   -0.870760
  C      -2.816720    1.156000   -0.110610
  H      -3.220630    1.262540    0.893080
  H      -3.209430    0.248630   -0.561900
  H      -3.143160    2.016600   -0.688890
--
0 1
  C       3.350450    1.075770    0.169760
  O       2.766030    0.101750   -0.309970
  N       2.706360    2.160520    0.637610
  H       1.686260    2.204950    0.603310
  H       3.224390    2.928480    1.017730
  C       4.857450    1.100060    0.254990
  H       5.249320    1.999710    0.722170
  H       5.261000    1.012510   -0.750790
  H       5.185230    0.229480    0.817170
units angstrom
no_reorient
symmetry c1
}

set {
scf_type DF
mp2_type DF
e_convergence 7
reference rhf
}

energy('mp2/aug-cc-pv[tq]z', bsse_type='cp')
--------------------------------------------------------------------------

    Molecular point group: c1
  Charge       = 0
  Multiplicity = 1
  Basis Set: AUG-CC-PVTZ
    Blend: AUG-CC-PVTZ
  Basis Set: (AUG-CC-PVTZ AUX)
    Blend: AUG-CC-PVTZ-JKFIT
  @DF-RHF Final Energy:  -208.06136000452832
    Total Energy =                       -208.0613600045283249
  Basis Set: (AUG-CC-PVTZ AUX)
    Blend: AUG-CC-PVTZ-RI
	 Reference Energy          =    -208.0613600045283249 [Eh]
	 Singles Energy            =      -0.0000000000000000 [Eh]
	 Same-Spin Energy          =      -0.2048388086822620 [Eh]
	 Opposite-Spin Energy      =      -0.6562922570282614 [Eh]
	 Correlation Energy        =      -0.8611310657105234 [Eh]
	 Total Energy              =    -208.9224910702388343 [Eh]
	 SCS Total Energy          =    -208.9171903158563168 [Eh]
    Molecular point group: c1
  Basis Set: AUG-CC-PVQZ
    Blend: AUG-CC-PVQZ
  Basis Set: (AUG-CC-PVQZ AUX)
    Blend: AUG-CC-PVQZ-JKFIT
  @DF-RHF Final Energy:  -208.07449707628359
    Total Energy =                       -208.0744970762835919
  Basis Set: (AUG-CC-PVQZ AUX)
  @DF-RHF Final Energy:  -208.06146461667967
    Total Energy =                       -208.0614646166796717
  @DF-RHF Final Energy:  -208.07452679726237
    Total Energy =                       -208.0745267972623651
  @DF-RHF Final Energy:  -208.06145856229489
    Total Energy =                       -208.0614585622948880
  @DF-RHF Final Energy:  -208.07452054781996
    Total Energy =                       -208.0745205478199580
  @DF-RHF Final Energy:  -208.06135395119779
    Total Energy =                       -208.0613539511977876
  @DF-RHF Final Energy:  -208.07449083111916
    Total Energy =                       -208.0744908311191637
  Multiplicity = 1
  @DF-RHF Final Energy:  -416.13893067533269
    Total Energy =                       -416.1389306753326878
	 Singles Energy            =      -0.0000000000000000 [Eh]
	 Same-Spin Energy          =      -0.4112420526155907 [Eh]
	 Opposite-Spin Energy      =      -1.3154315722268644 [Eh]
	 Correlation Energy        =      -1.7266736248424550 [Eh]
	 Total Energy              =    -417.8656043001751641 [Eh]
	 SCS Total Energy          =    -417.8545292462101202 [Eh]
    Molecular point group: c1

    Geometry (in Angstrom), charge = 0, multiplicity = 1:

       Center              X                  Y                   Z               Mass
    ------------   -----------------  -----------------  -----------------  -----------------
         C           -2.330115526971     0.052100473747    -0.097305470298    12.000000000000
         O           -1.745665526971     1.027070473747     0.380574529702    15.994914619570
         N           -1.685985526971    -1.033019526253    -0.564125470298    14.003074004430
         H           -0.665785526971    -1.076629526253    -0.531445470298     1.007825032230
         H           -2.203995526971    -1.801679526253    -0.942895470298     1.007825032230
         C           -3.837085526971     0.027920473747    -0.182745470298    12.000000000000
         H           -4.240995526971     0.134460473747     0.820944529702     1.007825032230
         H           -4.229795526971    -0.879449526253    -0.634035470298     1.007825032230
         H           -4.163525526971     0.888520473747    -0.761025470298     1.007825032230
         C            2.330084473029    -0.052309526253     0.097624529702    12.000000000000
         O            1.745664473029    -1.026329526253    -0.382105470298    15.994914619570
         N            1.685994473029     1.032440473747     0.565474529702    14.003074004430
         H            0.665894473029     1.076870473747     0.531174529702     1.007825032230
         H            2.204024473029     1.800400473747     0.945594529702     1.007825032230
         C            3.837084473029    -0.028019526253     0.182854529702    12.000000000000
         H            4.228954473029     0.871630473747     0.650034529702     1.007825032230
         H            4.240634473029    -0.115569526253    -0.822925470298     1.007825032230
         H            4.164864473029    -0.898599526253     0.745034529702     1.007825032230

  Charge       = 0
  Multiplicity = 1
  Basis Set: AUG-CC-PVQZ
    Blend: AUG-CC-PVQZ
  Basis Set: (AUG-CC-PVQZ AUX)
    Blend: AUG-CC-PVQZ-JKFIT

    Orbital Energies [Eh]
    ---------------------

    Doubly Occupied:

       1A    -20.509318     2A    -20.509297     3A    -15.578137
       4A    -15.578124     5A    -11.349597     6A    -11.349593
       7A    -11.233509     8A    -11.233507     9A     -1.369324
      10A     -1.368185    11A     -1.209462    12A     -1.208047
      13A     -1.002830    14A     -1.001402    15A     -0.798097
      16A     -0.794043    17A     -0.722091    18A     -0.718004
      19A     -0.667558    20A     -0.657685    21A     -0.613201
      22A     -0.612441    23A     -0.581560    24A     -0.576591
      25A     -0.561176    26A     -0.559097    27A     -0.521862
      28A     -0.519852    29A     -0.428684    30A     -0.418447
      31A     -0.411144    32A     -0.407759

  @DF-RHF Final Energy:  -416.16507927489556

   => Energetics <=

    Nuclear Repulsion Energy =            357.6684566436492787
    One-Electron Energy =               -1277.5278244338167042
    Two-Electron Energy =                 503.6942885152718645
    Total Energy =                       -416.1650792748955610

  Dipole Moment: [D]
     X:     0.0003      Y:    -0.0017      Z:     0.0025     Total:     0.0030

  Basis Set: (AUG-CC-PVQZ AUX)
    Blend: AUG-CC-PVQZ-RI
	 Reference Energy          =    -416.1650792748955610 [Eh]
	 Singles Energy            =      -0.0000000000000000 [Eh]
	 Same-Spin Energy          =      -0.4361998287745085 [Eh]
	 Opposite-Spin Energy      =      -1.4814371511158981 [Eh]
	 Correlation Energy        =      -1.9176369798904065 [Eh]
	 Total Energy              =    -418.0827162547859643 [Eh]

	 ================> DF-SCS-MP2 Energies <==================
	-----------------------------------------------------------
	 SCS Same-Spin Scale       =       0.3333333333333333 [-]
	 SCS Opposite-Spin Scale   =       1.2000000000000000 [-]
	 SCS Same-Spin Energy      =      -0.1453999429248362 [Eh]
	 SCS Opposite-Spin Energy  =      -1.7777245813390776 [Eh]
	 SCS Correlation Energy    =      -1.9231245242639137 [Eh]
	 SCS Total Energy          =    -418.0882037991594871 [Eh]
	-----------------------------------------------------------

*** Psi4 exiting successfully. Buy a developer a beer!
