                               Psi4 1.4a2.dev224

  ==> Input File <==

--------------------------------------------------------------------------
#Generated by lconvert.py for cbs job

memory 40 GB

molecule  {
0 1
  C       -1.3097500     1.1801760    -0.0251700
  O       -0.7253000     2.1551480     0.4527130
  N       -0.6656210     0.0950550    -0.4919940
  H        0.3545830     0.0514480    -0.4593090
  H       -1.1836270    -0.6736000    -0.8707560
  C       -2.8167190     1.1559990    -0.1106060
  H       -3.2206290     1.2625410     0.8930820
  H       -3.2094280     0.2486340    -0.5619000
  H       -3.1431580     2.0165960    -0.6888930
--
0 1
  C        2.4229110     1.0564390     0.1122810
  O        1.8384900     0.0824190    -0.3674490
  N        1.7788240     2.1411820     0.5801280
  H        0.7587190     2.1856200     0.5458270
  H        2.2968480     2.9091440     0.9602490
  C        3.9299110     1.0807240     0.1975070
  H        4.3217820     1.9803730     0.6646910
  H        4.3334670     0.9931790    -0.8082740
  H        4.2576890     0.2101490     0.7596870
units angstrom
no_reorient
symmetry c1
}

set {
scf_type DF
mp2_type DF
e_convergence 7
reference rhf
}

energy('mp2/aug-cc-pv[tq]z', bsse_type='cp')
--------------------------------------------------------------------------

    Molecular point group: c1
  Charge       = 0
  Multiplicity = 1
  Basis Set: AUG-CC-PVTZ
    Blend: AUG-CC-PVTZ
  Basis Set: (AUG-CC-PVTZ AUX)
    Blend: AUG-CC-PVTZ-JKFIT
  @DF-RHF Final Energy:  -208.06135977111285
    Total Energy =                       -208.0613597711128477
  Basis Set: (AUG-CC-PVTZ AUX)
    Blend: AUG-CC-PVTZ-RI
	 Reference Energy          =    -208.0613597711128477 [Eh]
	 Singles Energy            =      -0.0000000000000000 [Eh]
	 Same-Spin Energy          =      -0.2048388108983208 [Eh]
	 Opposite-Spin Energy      =      -0.6562921753152093 [Eh]
	 Correlation Energy        =      -0.8611309862135301 [Eh]
	 Total Energy              =    -208.9224907573263863 [Eh]
	 SCS Total Energy          =    -208.9171899851238834 [Eh]
    Molecular point group: c1
  Basis Set: AUG-CC-PVQZ
    Blend: AUG-CC-PVQZ
  Basis Set: (AUG-CC-PVQZ AUX)
    Blend: AUG-CC-PVQZ-JKFIT
  @DF-RHF Final Energy:  -208.07449685274372
    Total Energy =                       -208.0744968527437209
  Basis Set: (AUG-CC-PVQZ AUX)
  @DF-RHF Final Energy:  -208.06164084416727
    Total Energy =                       -208.0616408441672718
  @DF-RHF Final Energy:  -208.07456437963396
    Total Energy =                       -208.0745643796339550
  @DF-RHF Final Energy:  -208.06163470676603
    Total Energy =                       -208.0616347067660286
  @DF-RHF Final Energy:  -208.07455805308840
    Total Energy =                       -208.0745580530883956
  @DF-RHF Final Energy:  -208.06135366281922
    Total Energy =                       -208.0613536628192151
  @DF-RHF Final Energy:  -208.07449053379639
    Total Energy =                       -208.0744905337963928
  Multiplicity = 1
  @DF-RHF Final Energy:  -416.12479911477578
    Total Energy =                       -416.1247991147757830
	 Singles Energy            =      -0.0000000000000000 [Eh]
	 Same-Spin Energy          =      -0.4176887890758882 [Eh]
	 Opposite-Spin Energy      =      -1.3216093827274271 [Eh]
	 Correlation Energy        =      -1.7392981718033154 [Eh]
	 Total Energy              =    -417.8640972865791241 [Eh]
	 SCS Total Energy          =    -417.8499599704073262 [Eh]
    Molecular point group: c1

    Geometry (in Angstrom), charge = 0, multiplicity = 1:

       Center              X                  Y                   Z               Mass
    ------------   -----------------  -----------------  -----------------  -----------------
         C           -1.866346324219     0.061764778024    -0.068565452633    12.000000000000
         O           -1.281896324219     1.036736778024     0.409317547367    15.994914619570
         N           -1.222217324219    -1.023356221976    -0.535389452633    14.003074004430
         H           -0.202013324219    -1.066963221976    -0.502704452633     1.007825032230
         H           -1.740223324219    -1.792011221976    -0.914151452633     1.007825032230
         C           -3.373315324219     0.037587778024    -0.154001452633    12.000000000000
         H           -3.777225324219     0.144129778024     0.849686547367     1.007825032230
         H           -3.766024324219    -0.869777221976    -0.605295452633     1.007825032230
         H           -3.699754324219     0.898184778024    -0.732288452633     1.007825032230
         C            1.866314675781    -0.061972221976     0.068885547367    12.000000000000
         O            1.281893675781    -1.035992221976    -0.410844452633    15.994914619570
         N            1.222227675781     1.022770778024     0.536732547367    14.003074004430
         H            0.202122675781     1.067208778024     0.502431547367     1.007825032230
         H            1.740251675781     1.790732778024     0.916853547367     1.007825032230
         C            3.373314675781    -0.037687221976     0.154111547367    12.000000000000
         H            3.765185675781     0.861961778024     0.621295547367     1.007825032230
         H            3.776870675781    -0.125232221976    -0.851669452633     1.007825032230
         H            3.701092675781    -0.908262221976     0.716291547367     1.007825032230

  Charge       = 0
  Multiplicity = 1
  Basis Set: AUG-CC-PVQZ
    Blend: AUG-CC-PVQZ
  Basis Set: (AUG-CC-PVQZ AUX)
    Blend: AUG-CC-PVQZ-JKFIT

    Orbital Energies [Eh]
    ---------------------

    Doubly Occupied:

       1A    -20.513173     2A    -20.513144     3A    -15.549955
       4A    -15.549951     5A    -11.350517     6A    -11.350503
       7A    -11.231179     8A    -11.231170     9A     -1.388407
      10A     -1.377222    11A     -1.205996    12A     -1.189624
      13A     -1.007143    14A     -0.995370    15A     -0.811664
      16A     -0.775051    17A     -0.744474    18A     -0.727176
      19A     -0.670227    20A     -0.633864    21A     -0.615740
      22A     -0.610363    23A     -0.593761    24A     -0.574858
      25A     -0.559847    26A     -0.545688    27A     -0.527812
      28A     -0.516602    29A     -0.443619    30A     -0.414440
      31A     -0.408928    32A     -0.393669

  @DF-RHF Final Energy:  -416.15078547433154

   => Energetics <=

    Nuclear Repulsion Energy =            386.3030014159216989
    One-Electron Energy =               -1334.8653087757138564
    Two-Electron Energy =                 532.4115218854606155
    Total Energy =                       -416.1507854743315420

  Dipole Moment: [D]
     X:     0.0007      Y:    -0.0015      Z:     0.0021     Total:     0.0026

  Basis Set: (AUG-CC-PVQZ AUX)
    Blend: AUG-CC-PVQZ-RI
	 Reference Energy          =    -416.1507854743315420 [Eh]
	 Singles Energy            =      -0.0000000000000000 [Eh]
	 Same-Spin Energy          =      -0.4427348796043701 [Eh]
	 Opposite-Spin Energy      =      -1.4867090300545955 [Eh]
	 Correlation Energy        =      -1.9294439096589655 [Eh]
	 Total Energy              =    -418.0802293839905133 [Eh]

	 ================> DF-SCS-MP2 Energies <==================
	-----------------------------------------------------------
	 SCS Same-Spin Scale       =       0.3333333333333333 [-]
	 SCS Opposite-Spin Scale   =       1.2000000000000000 [-]
	 SCS Same-Spin Energy      =      -0.1475782932014567 [Eh]
	 SCS Opposite-Spin Energy  =      -1.7840508360655145 [Eh]
	 SCS Correlation Energy    =      -1.9316291292669712 [Eh]
	 SCS Total Energy          =    -418.0824146035985223 [Eh]
	-----------------------------------------------------------

*** Psi4 exiting successfully. Buy a developer a beer!
