                               Psi4 1.4a2.dev224

  ==> Input File <==

--------------------------------------------------------------------------
#Generated by lconvert.py for cbs job

memory 40 GB

molecule  {
0 1
  C       -1.3097500     1.1801760    -0.0251700
  O       -0.7253000     2.1551480     0.4527130
  N       -0.6656210     0.0950550    -0.4919940
  H        0.3545830     0.0514480    -0.4593090
  H       -1.1836270    -0.6736000    -0.8707560
  C       -2.8167190     1.1559990    -0.1106060
  H       -3.2206290     1.2625410     0.8930820
  H       -3.2094280     0.2486340    -0.5619000
  H       -3.1431580     2.0165960    -0.6888930
--
0 1
  C        2.6085030     1.0603380     0.1237080
  O        2.0240810     0.0863170    -0.3560230
  N        1.9644150     2.1450810     0.5915550
  H        0.9443100     2.1895190     0.5572530
  H        2.4824390     2.9130420     0.9716750
  C        4.1155020     1.0846220     0.2089330
  H        4.5073730     1.9842720     0.6761170
  H        4.5190580     0.9970770    -0.7968470
  H        4.4432810     0.2140470     0.7711130
units angstrom
no_reorient
symmetry c1
}

set {
scf_type DF
mp2_type DF
e_convergence 7
reference rhf
}

energy('mp2/aug-cc-pv[tq]z', bsse_type='cp')
--------------------------------------------------------------------------

    Molecular point group: c1
  Charge       = 0
  Multiplicity = 1
  Basis Set: AUG-CC-PVTZ
    Blend: AUG-CC-PVTZ
  Basis Set: (AUG-CC-PVTZ AUX)
    Blend: AUG-CC-PVTZ-JKFIT
  @DF-RHF Final Energy:  -208.06135960760483
    Total Energy =                       -208.0613596076048282
  Basis Set: (AUG-CC-PVTZ AUX)
    Blend: AUG-CC-PVTZ-RI
	 Reference Energy          =    -208.0613596076048282 [Eh]
	 Singles Energy            =      -0.0000000000000000 [Eh]
	 Same-Spin Energy          =      -0.2048388422050336 [Eh]
	 Opposite-Spin Energy      =      -0.6562922493407597 [Eh]
	 Correlation Energy        =      -0.8611310915457933 [Eh]
	 Total Energy              =    -208.9224906991506145 [Eh]
	 SCS Total Energy          =    -208.9171899208820946 [Eh]
    Molecular point group: c1
  Basis Set: AUG-CC-PVQZ
    Blend: AUG-CC-PVQZ
  Basis Set: (AUG-CC-PVQZ AUX)
    Blend: AUG-CC-PVQZ-JKFIT
  @DF-RHF Final Energy:  -208.07449668110016
    Total Energy =                       -208.0744966811001575
  Basis Set: (AUG-CC-PVQZ AUX)
  @DF-RHF Final Energy:  -208.06158900829749
    Total Energy =                       -208.0615890082974886
  @DF-RHF Final Energy:  -208.07455392777612
    Total Energy =                       -208.0745539277761225
  @DF-RHF Final Energy:  -208.06158303353826
    Total Energy =                       -208.0615830335382554
  @DF-RHF Final Energy:  -208.07454777489124
    Total Energy =                       -208.0745477748912435
  @DF-RHF Final Energy:  -208.06135366282209
    Total Energy =                       -208.0613536628220857
  @DF-RHF Final Energy:  -208.07449053420942
    Total Energy =                       -208.0744905342094171
  Multiplicity = 1
  @DF-RHF Final Energy:  -416.13837139623718
    Total Energy =                       -416.1383713962371758
	 Singles Energy            =      -0.0000000000000000 [Eh]
	 Same-Spin Energy          =      -0.4154680040275212 [Eh]
	 Opposite-Spin Energy      =      -1.3196664319525326 [Eh]
	 Correlation Energy        =      -1.7351344359800538 [Eh]
	 Total Energy              =    -417.8735058322172335 [Eh]
	 SCS Total Energy          =    -417.8604604492560384 [Eh]
    Molecular point group: c1

    Geometry (in Angstrom), charge = 0, multiplicity = 1:

       Center              X                  Y                   Z               Mass
    ------------   -----------------  -----------------  -----------------  -----------------
         C           -1.959141934386     0.059815540726    -0.074278681395    12.000000000000
         O           -1.374691934386     1.034787540726     0.403604318605    15.994914619570
         N           -1.315012934386    -1.025305459274    -0.541102681395    14.003074004430
         H           -0.294808934386    -1.068912459274    -0.508417681395     1.007825032230
         H           -1.833018934386    -1.793960459274    -0.919864681395     1.007825032230
         C           -3.466110934386     0.035638540726    -0.159714681395    12.000000000000
         H           -3.870020934386     0.142180540726     0.843973318605     1.007825032230
         H           -3.858819934386    -0.871726459274    -0.611008681395     1.007825032230
         H           -3.792549934386     0.896235540726    -0.738001681395     1.007825032230
         C            1.959111065614    -0.060022459274     0.074599318605    12.000000000000
         O            1.374689065614    -1.034043459274    -0.405131681395    15.994914619570
         N            1.315023065614     1.024720540726     0.542446318605    14.003074004430
         H            0.294918065614     1.069158540726     0.508144318605     1.007825032230
         H            1.833047065614     1.792681540726     0.922566318605     1.007825032230
         C            3.466110065614    -0.035738459274     0.159824318605    12.000000000000
         H            3.857981065614     0.863911540726     0.627008318605     1.007825032230
         H            3.869666065614    -0.123283459274    -0.845955681395     1.007825032230
         H            3.793889065614    -0.906313459274     0.722004318605     1.007825032230

  Charge       = 0
  Multiplicity = 1
  Basis Set: AUG-CC-PVQZ
    Blend: AUG-CC-PVQZ
  Basis Set: (AUG-CC-PVQZ AUX)
    Blend: AUG-CC-PVQZ-JKFIT

    Orbital Energies [Eh]
    ---------------------

    Doubly Occupied:

       1A    -20.512160     2A    -20.512134     3A    -15.559989
       4A    -15.559987     5A    -11.350228     6A    -11.350218
       7A    -11.231918     8A    -11.231911     9A     -1.380375
      10A     -1.373107    11A     -1.206077    12A     -1.195870
      13A     -1.004981    14A     -0.997357    15A     -0.803897
      16A     -0.781207    17A     -0.726909    18A     -0.724324
      19A     -0.674468    20A     -0.641913    21A     -0.614463
      22A     -0.610874    23A     -0.590458    24A     -0.575005
      25A     -0.560165    26A     -0.550796    27A     -0.525200
      28A     -0.516996    29A     -0.440733    30A     -0.413567
      31A     -0.413309    32A     -0.398698

  @DF-RHF Final Energy:  -416.16443049571080

   => Energetics <=

    Nuclear Repulsion Energy =            379.4130423883782441
    One-Electron Energy =               -1321.0963611749937172
    Two-Electron Energy =                 525.5188882909046697
    Total Energy =                       -416.1644304957108034

  Dipole Moment: [D]
     X:     0.0005      Y:    -0.0016      Z:     0.0023     Total:     0.0028

  Basis Set: (AUG-CC-PVQZ AUX)
    Blend: AUG-CC-PVQZ-RI
	 Reference Energy          =    -416.1644304957108034 [Eh]
	 Singles Energy            =      -0.0000000000000000 [Eh]
	 Same-Spin Energy          =      -0.4404548765275534 [Eh]
	 Opposite-Spin Energy      =      -1.4848141629507707 [Eh]
	 Correlation Energy        =      -1.9252690394783241 [Eh]
	 Total Energy              =    -418.0896995351891405 [Eh]

	 ================> DF-SCS-MP2 Energies <==================
	-----------------------------------------------------------
	 SCS Same-Spin Scale       =       0.3333333333333333 [-]
	 SCS Opposite-Spin Scale   =       1.2000000000000000 [-]
	 SCS Same-Spin Energy      =      -0.1468182921758511 [Eh]
	 SCS Opposite-Spin Energy  =      -1.7817769955409248 [Eh]
	 SCS Correlation Energy    =      -1.9285952877167760 [Eh]
	 SCS Total Energy          =    -418.0930257834276063 [Eh]
	-----------------------------------------------------------

*** Psi4 exiting successfully. Buy a developer a beer!
