                               Psi4 1.4a2.dev224

  ==> Input File <==

--------------------------------------------------------------------------
#Generated by lconvert.py for cbs job

memory 20 GB

molecule  {
0 1
  C      -1.113630    1.327020    0.275170
  O      -0.467080    2.349390    0.461540
  O      -0.578090    0.136920    0.049620
  H       0.413320    0.203260    0.055490
  C      -2.611430    1.286190    0.277360
  H      -3.006650    2.276890    0.465790
  H      -2.964260    0.915260   -0.682000
  H      -2.953110    0.591800    1.041240
--
0 1
  N       5.730130    1.062110    0.166810
  H       6.123330    0.146720   -0.004900
  C       6.651660    2.110230    0.348270
  O       7.848800    1.891930    0.295390
  C       6.012590    3.389690    0.588880
  H       6.632130    4.256620    0.740350
  C       4.665510    3.469680    0.618260
  H       4.142670    4.398130    0.793560
  N       3.861780    2.379000    0.427850
  H       2.837720    2.448950    0.451640
  C       4.361710    1.128780    0.193680
  O       3.649680    0.139270    0.020210
units angstrom
no_reorient
symmetry c1
}

set {
scf_type DF
mp2_type DF
e_convergence 7
reference rhf
}

energy('mp2/aug-cc-pv[tq]z', bsse_type='cp')
--------------------------------------------------------------------------

    Molecular point group: c1
  Charge       = 0
  Multiplicity = 1
  Basis Set: AUG-CC-PVTZ
    Blend: AUG-CC-PVTZ
  Basis Set: (AUG-CC-PVTZ AUX)
    Blend: AUG-CC-PVTZ-JKFIT
  @DF-RHF Final Energy:  -412.62260507867717
    Total Energy =                       -412.6226050786771680
  Basis Set: (AUG-CC-PVTZ AUX)
    Blend: AUG-CC-PVTZ-RI
	 Reference Energy          =    -412.6226050786771680 [Eh]
	 Singles Energy            =      -0.0000000000000000 [Eh]
	 Same-Spin Energy          =      -0.4144693037756510 [Eh]
	 Opposite-Spin Energy      =      -1.2270034131009382 [Eh]
	 Correlation Energy        =      -1.6414727168765892 [Eh]
	 Total Energy              =    -414.2640777955537601 [Eh]
	 SCS Total Energy          =    -414.2331656089901912 [Eh]
    Molecular point group: c1
  Basis Set: AUG-CC-PVQZ
    Blend: AUG-CC-PVQZ
  Basis Set: (AUG-CC-PVQZ AUX)
    Blend: AUG-CC-PVQZ-JKFIT
  @DF-RHF Final Energy:  -412.64807834425312
    Total Energy =                       -412.6480783442531219
  Basis Set: (AUG-CC-PVQZ AUX)
  @DF-RHF Final Energy:  -412.62264511284667
    Total Energy =                       -412.6226451128466692
  @DF-RHF Final Energy:  -412.64808848492112
    Total Energy =                       -412.6480884849211179
  @DF-RHF Final Energy:  -227.90267554901294
    Total Energy =                       -227.9026755490129403
  @DF-RHF Final Energy:  -227.91733176254135
    Total Energy =                       -227.9173317625413517
  @DF-RHF Final Energy:  -227.90263500235216
    Total Energy =                       -227.9026350023521559
  @DF-RHF Final Energy:  -227.91731439422421
    Total Energy =                       -227.9173143942242064
  Multiplicity = 1
  @DF-RHF Final Energy:  -640.53306116878434
    Total Energy =                       -640.5330611687843430
	 Singles Energy            =      -0.0000000000000000 [Eh]
	 Same-Spin Energy          =      -0.6299717888183700 [Eh]
	 Opposite-Spin Energy      =      -1.8970576829074193 [Eh]
	 Correlation Energy        =      -2.5270294717257893 [Eh]
	 Total Energy              =    -643.0600906405101114 [Eh]
	 SCS Total Energy          =    -643.0195209845460340 [Eh]
    Molecular point group: c1

    Geometry (in Angstrom), charge = 0, multiplicity = 1:

       Center              X                  Y                   Z               Mass
    ------------   -----------------  -----------------  -----------------  -----------------
         C           -4.185009408119    -0.348899324866    -0.027384515503    12.000000000000
         O           -3.538459408119     0.673470675134     0.158985484497    15.994914619570
         O           -3.649469408119    -1.538999324866    -0.252934515503    15.994914619570
         H           -2.658059408119    -1.472659324866    -0.247064515503     1.007825032230
         C           -5.682809408119    -0.389729324866    -0.025194515503    12.000000000000
         H           -6.078029408119     0.600970675134     0.163235484497     1.007825032230
         H           -6.035639408119    -0.760659324866    -0.984554515503     1.007825032230
         H           -6.024489408119    -1.084119324866     0.738685484497     1.007825032230
         N            2.658750591881    -0.613809324866    -0.135744515503    14.003074004430
         H            3.051950591881    -1.529199324866    -0.307454515503     1.007825032230
         C            3.580280591881     0.434310675134     0.045715484497    12.000000000000
         O            4.777420591881     0.216010675134    -0.007164515503    15.994914619570
         C            2.941210591881     1.713770675134     0.286325484497    12.000000000000
         H            3.560750591881     2.580700675134     0.437795484497     1.007825032230
         C            1.594130591881     1.793760675134     0.315705484497    12.000000000000
         H            1.071290591881     2.722210675134     0.491005484497     1.007825032230
         N            0.790400591881     0.703080675134     0.125295484497    14.003074004430
         H           -0.233659408119     0.773030675134     0.149085484497     1.007825032230
         C            1.290330591881    -0.547139324866    -0.108874515503    12.000000000000
         O            0.578300591881    -1.536649324866    -0.282344515503    15.994914619570

  Charge       = 0
  Multiplicity = 1
  Basis Set: AUG-CC-PVQZ
    Blend: AUG-CC-PVQZ
  Basis Set: (AUG-CC-PVQZ AUX)
    Blend: AUG-CC-PVQZ-JKFIT

    Orbital Energies [Eh]
    ---------------------

    Doubly Occupied:

       1A    -20.622734     2A    -20.550572     3A    -20.541697
       4A    -20.540142     5A    -15.645059     6A    -15.626208
       7A    -11.417223     8A    -11.394892     9A    -11.380241
      10A    -11.339744    11A    -11.255074    12A    -11.246562
      13A     -1.473024    14A     -1.432363    15A     -1.396713
      16A     -1.360892    17A     -1.312088    18A     -1.246415
      19A     -1.088808    20A     -1.032477    21A     -0.936202
      22A     -0.900627    23A     -0.836813    24A     -0.806293
      25A     -0.766876    26A     -0.714325    27A     -0.710857
      28A     -0.686863    29A     -0.676866    30A     -0.670647
      31A     -0.659577    32A     -0.650579    33A     -0.614837
      34A     -0.601578    35A     -0.585218    36A     -0.575946
      37A     -0.571208    38A     -0.567710    39A     -0.523817
      40A     -0.485676    41A     -0.483323    42A     -0.460400
      43A     -0.449630    44A     -0.437200    45A     -0.370007

  @DF-RHF Final Energy:  -640.57314434778596

   => Energetics <=

    Nuclear Repulsion Energy =            633.6110509298271154
    One-Electron Energy =               -2133.0763834435065291
    Two-Electron Energy =                 858.8921881658934581
    Total Energy =                       -640.5731443477859557

  Dipole Moment: [D]
     X:    -4.1164      Y:     2.1146      Z:     0.4196     Total:     4.6468

  Basis Set: (AUG-CC-PVQZ AUX)
    Blend: AUG-CC-PVQZ-RI
	 Reference Energy          =    -640.5731443477859557 [Eh]
	 Singles Energy            =      -0.0000000000000000 [Eh]
	 Same-Spin Energy          =      -0.6684406470354259 [Eh]
	 Opposite-Spin Energy      =      -2.1472385154639042 [Eh]
	 Correlation Energy        =      -2.8156791624993303 [Eh]
	 Total Energy              =    -643.3888235102853059 [Eh]

	 ================> DF-SCS-MP2 Energies <==================
	-----------------------------------------------------------
	 SCS Same-Spin Scale       =       0.3333333333333333 [-]
	 SCS Opposite-Spin Scale   =       1.2000000000000000 [-]
	 SCS Same-Spin Energy      =      -0.2228135490118086 [Eh]
	 SCS Opposite-Spin Energy  =      -2.5766862185566848 [Eh]
	 SCS Correlation Energy    =      -2.7994997675684936 [Eh]
	 SCS Total Energy          =    -643.3726441153544329 [Eh]
	-----------------------------------------------------------

*** Psi4 exiting successfully. Buy a developer a beer!
