                               Psi4 1.4a2.dev224

  ==> Input File <==

--------------------------------------------------------------------------
#Generated by lconvert.py for cbs job

memory 40 GB

molecule  {
0 1
  C       -1.1136260     1.3270200     0.2751670
  O       -0.4670830     2.3493880     0.4615370
  O       -0.5780890     0.1369200     0.0496170
  H        0.4133200     0.2032570     0.0554870
  C       -2.6114250     1.2861900     0.2773610
  H       -3.0066490     2.2768850     0.4657900
  H       -2.9642560     0.9152590    -0.6820010
  H       -2.9531140     0.5917980     1.0412400
--
0 1
  N        4.2823260     1.0903160     0.1825280
  H        4.6755310     0.1749250     0.0108090
  C        5.2038540     2.1384310     0.3639820
  O        6.4010000     1.9201350     0.3111020
  C        4.5647880     3.4178940     0.6045890
  H        5.1843220     4.2848190     0.7560660
  C        3.2177030     3.4978840     0.6339700
  H        2.6948630     4.4263310     0.8092680
  N        2.4139730     2.4072020     0.4435640
  H        1.3899210     2.4771500     0.4673540
  C        2.9139050     1.1569790     0.2093920
  O        2.2018730     0.1674740     0.0359220
units angstrom
no_reorient
symmetry c1
}

set {
scf_type DF
mp2_type DF
e_convergence 7
reference rhf
}

energy('mp2/aug-cc-pv[tq]z', bsse_type='cp')
--------------------------------------------------------------------------

    Molecular point group: c1
  Charge       = 0
  Multiplicity = 1
  Basis Set: AUG-CC-PVTZ
    Blend: AUG-CC-PVTZ
  Basis Set: (AUG-CC-PVTZ AUX)
    Blend: AUG-CC-PVTZ-JKFIT
  @DF-RHF Final Energy:  -412.62260531752730
    Total Energy =                       -412.6226053175273023
  Basis Set: (AUG-CC-PVTZ AUX)
    Blend: AUG-CC-PVTZ-RI
	 Reference Energy          =    -412.6226053175273023 [Eh]
	 Singles Energy            =      -0.0000000000000000 [Eh]
	 Same-Spin Energy          =      -0.4144694027582992 [Eh]
	 Opposite-Spin Energy      =      -1.2270036262487358 [Eh]
	 Correlation Energy        =      -1.6414730290070350 [Eh]
	 Total Energy              =    -414.2640783465343475 [Eh]
	 SCS Total Energy          =    -414.2331661366118851 [Eh]
    Molecular point group: c1
  Basis Set: AUG-CC-PVQZ
    Blend: AUG-CC-PVQZ
  Basis Set: (AUG-CC-PVQZ AUX)
    Blend: AUG-CC-PVQZ-JKFIT
  @DF-RHF Final Energy:  -412.64807856388722
    Total Energy =                       -412.6480785638872248
  Basis Set: (AUG-CC-PVQZ AUX)
  @DF-RHF Final Energy:  -412.62282453667143
    Total Energy =                       -412.6228245366714305
  @DF-RHF Final Energy:  -412.64812334815849
    Total Energy =                       -412.6481233481584923
  @DF-RHF Final Energy:  -227.90288178651380
    Total Energy =                       -227.9028817865138024
  @DF-RHF Final Energy:  -227.91738451383208
    Total Energy =                       -227.9173845138320758
  @DF-RHF Final Energy:  -227.90263568706882
    Total Energy =                       -227.9026356870688232
  @DF-RHF Final Energy:  -227.91731511340279
    Total Energy =                       -227.9173151134027933
  Multiplicity = 1
  @DF-RHF Final Energy:  -640.55102487013778
    Total Energy =                       -640.5510248701377805
	 Singles Energy            =      -0.0000000000000000 [Eh]
	 Same-Spin Energy          =      -0.6338529843255387 [Eh]
	 Opposite-Spin Energy      =      -1.9015574955249972 [Eh]
	 Correlation Energy        =      -2.5354104798505359 [Eh]
	 Total Energy              =    -643.0864353499882782 [Eh]
	 SCS Total Energy          =    -643.0441781928763021 [Eh]
    Molecular point group: c1

    Geometry (in Angstrom), charge = 0, multiplicity = 1:

       Center              X                  Y                   Z               Mass
    ------------   -----------------  -----------------  -----------------  -----------------
         C           -3.242285057860    -0.367263244787    -0.037617773553    12.000000000000
         O           -2.595742057860     0.655104755213     0.148752226447    15.994914619570
         O           -2.706748057860    -1.557363244787    -0.263167773553    15.994914619570
         H           -1.715339057860    -1.491026244787    -0.257297773553     1.007825032230
         C           -4.740084057860    -0.408093244787    -0.035423773553    12.000000000000
         H           -5.135308057860     0.582601755213     0.153005226447     1.007825032230
         H           -5.092915057860    -0.779024244787    -0.994785773553     1.007825032230
         H           -5.081773057860    -1.102485244787     0.728455226447     1.007825032230
         N            2.153666942140    -0.603967244787    -0.130256773553    14.003074004430
         H            2.546871942140    -1.519358244787    -0.301975773553     1.007825032230
         C            3.075194942140     0.444147755213     0.051197226447    12.000000000000
         O            4.272340942140     0.225851755213    -0.001682773553    15.994914619570
         C            2.436128942140     1.723610755213     0.291804226447    12.000000000000
         H            3.055662942140     2.590535755213     0.443281226447     1.007825032230
         C            1.089043942140     1.803600755213     0.321185226447    12.000000000000
         H            0.566203942140     2.732047755213     0.496483226447     1.007825032230
         N            0.285313942140     0.712918755213     0.130779226447    14.003074004430
         H           -0.738738057860     0.782866755213     0.154569226447     1.007825032230
         C            0.785245942140    -0.537304244787    -0.103392773553    12.000000000000
         O            0.073213942140    -1.526809244787    -0.276862773553    15.994914619570

  Charge       = 0
  Multiplicity = 1
  Basis Set: AUG-CC-PVQZ
    Blend: AUG-CC-PVQZ
  Basis Set: (AUG-CC-PVQZ AUX)
    Blend: AUG-CC-PVQZ-JKFIT

    Orbital Energies [Eh]
    ---------------------

    Doubly Occupied:

       1A    -20.604081     2A    -20.557752     3A    -20.554147
       4A    -20.539166     5A    -15.631578     6A    -15.629103
       7A    -11.423964     8A    -11.399200     9A    -11.379757
      10A    -11.334885    11A    -11.251316    12A    -11.246632
      13A     -1.468475    14A     -1.440106    15A     -1.398574
      16A     -1.365356    17A     -1.312273    18A     -1.246334
      19A     -1.085849    20A     -1.033107    21A     -0.933022
      22A     -0.902783    23A     -0.830516    24A     -0.806400
      25A     -0.766452    26A     -0.728140    27A     -0.706291
      28A     -0.691651    29A     -0.676922    30A     -0.672112
      31A     -0.656284    32A     -0.655451    33A     -0.612491
      34A     -0.602701    35A     -0.585560    36A     -0.572256
      37A     -0.572133    38A     -0.563427    39A     -0.524695
      40A     -0.495438    41A     -0.490770    42A     -0.467047
      43A     -0.450942    44A     -0.444028    45A     -0.366776

  @DF-RHF Final Energy:  -640.59096183133522

   => Energetics <=

    Nuclear Repulsion Energy =            681.7142351454989466
    One-Electron Energy =               -2229.2585033608988851
    Two-Electron Energy =                 906.9533063840646037
    Total Energy =                       -640.5909618313352212

  Dipole Moment: [D]
     X:    -4.0785      Y:     2.0672      Z:     0.4113     Total:     4.5909

  Basis Set: (AUG-CC-PVQZ AUX)
    Blend: AUG-CC-PVQZ-RI
	 Reference Energy          =    -640.5909618313352212 [Eh]
	 Singles Energy            =      -0.0000000000000000 [Eh]
	 Same-Spin Energy          =      -0.6722303655853629 [Eh]
	 Opposite-Spin Energy      =      -2.1495895623867951 [Eh]
	 Correlation Energy        =      -2.8218199279721579 [Eh]
	 Total Energy              =    -643.4127817593073360 [Eh]

	 ================> DF-SCS-MP2 Energies <==================
	-----------------------------------------------------------
	 SCS Same-Spin Scale       =       0.3333333333333333 [-]
	 SCS Opposite-Spin Scale   =       1.2000000000000000 [-]
	 SCS Same-Spin Energy      =      -0.2240767885284543 [Eh]
	 SCS Opposite-Spin Energy  =      -2.5795074748641542 [Eh]
	 SCS Correlation Energy    =      -2.8035842633926085 [Eh]
	 SCS Total Energy          =    -643.3945460947278434 [Eh]
	-----------------------------------------------------------

*** Psi4 exiting successfully. Buy a developer a beer!
