                               Psi4 1.4a2.dev224

  ==> Input File <==

--------------------------------------------------------------------------
#Generated by lconvert.py for cbs job

memory 20 GB

molecule  {
0 1
  C      -1.113630    1.327020    0.275170
  O      -0.467080    2.349390    0.461540
  O      -0.578090    0.136920    0.049620
  H       0.413320    0.203260    0.055490
  C      -2.611430    1.286190    0.277360
  H      -3.006650    2.276890    0.465790
  H      -2.964260    0.915260   -0.682000
  H      -2.953110    0.591800    1.041240
--
0 1
  N       5.219170    1.073500    0.172590
  H       5.612380    0.158110    0.000870
  C       6.140700    2.121610    0.354040
  O       7.337840    1.903320    0.301160
  C       5.501630    3.401070    0.594650
  H       6.121170    4.268000    0.746130
  C       4.154550    3.481070    0.624030
  H       3.631710    4.409510    0.799330
  N       3.350820    2.390380    0.433620
  H       2.326760    2.460330    0.457410
  C       3.850750    1.140160    0.199450
  O       3.138720    0.150660    0.025980
units angstrom
no_reorient
symmetry c1
}

set {
scf_type DF
mp2_type DF
e_convergence 7
reference rhf
}

energy('mp2/aug-cc-pv[tq]z', bsse_type='cp')
--------------------------------------------------------------------------

    Molecular point group: c1
  Charge       = 0
  Multiplicity = 1
  Basis Set: AUG-CC-PVTZ
    Blend: AUG-CC-PVTZ
  Basis Set: (AUG-CC-PVTZ AUX)
    Blend: AUG-CC-PVTZ-JKFIT
  @DF-RHF Final Energy:  -412.62260629739745
    Total Energy =                       -412.6226062973974535
  Basis Set: (AUG-CC-PVTZ AUX)
    Blend: AUG-CC-PVTZ-RI
	 Reference Energy          =    -412.6226062973974535 [Eh]
	 Singles Energy            =      -0.0000000000000000 [Eh]
	 Same-Spin Energy          =      -0.4144691336128122 [Eh]
	 Opposite-Spin Energy      =      -1.2270030120883124 [Eh]
	 Correlation Energy        =      -1.6414721457011245 [Eh]
	 Total Energy              =    -414.2640784430985832 [Eh]
	 SCS Total Energy          =    -414.2331662897743740 [Eh]
    Molecular point group: c1
  Basis Set: AUG-CC-PVQZ
    Blend: AUG-CC-PVQZ
  Basis Set: (AUG-CC-PVQZ AUX)
    Blend: AUG-CC-PVQZ-JKFIT
  @DF-RHF Final Energy:  -412.64807960714342
    Total Energy =                       -412.6480796071434156
  Basis Set: (AUG-CC-PVQZ AUX)
  @DF-RHF Final Energy:  -412.62268827045517
    Total Energy =                       -412.6226882704551713
  @DF-RHF Final Energy:  -412.64809712182017
    Total Energy =                       -412.6480971218201717
  @DF-RHF Final Energy:  -227.90272494934101
    Total Energy =                       -227.9027249493410068
  @DF-RHF Final Energy:  -227.91734262717421
    Total Energy =                       -227.9173426271742073
  @DF-RHF Final Energy:  -227.90263500220675
    Total Energy =                       -227.9026350022067504
  @DF-RHF Final Energy:  -227.91731439438138
    Total Energy =                       -227.9173143943813784
  Multiplicity = 1
  @DF-RHF Final Energy:  -640.53790596670763
    Total Energy =                       -640.5379059667076262
	 Singles Energy            =      -0.0000000000000000 [Eh]
	 Same-Spin Energy          =      -0.6304485352164215 [Eh]
	 Opposite-Spin Energy      =      -1.8978218187266800 [Eh]
	 Correlation Energy        =      -2.5282703539431015 [Eh]
	 Total Energy              =    -643.0661763206506976 [Eh]
	 SCS Total Energy          =    -643.0254416609184318 [Eh]
    Molecular point group: c1

    Geometry (in Angstrom), charge = 0, multiplicity = 1:

       Center              X                  Y                   Z               Mass
    ------------   -----------------  -----------------  -----------------  -----------------
         C           -3.852303929160    -0.356312706065    -0.031142454979    12.000000000000
         O           -3.205753929160     0.666057293935     0.155227545021    15.994914619570
         O           -3.316763929160    -1.546412706065    -0.256692454979    15.994914619570
         H           -2.325353929160    -1.480072706065    -0.250822454979     1.007825032230
         C           -5.350103929160    -0.397142706065    -0.028952454979    12.000000000000
         H           -5.745323929160     0.593557293935     0.159477545021     1.007825032230
         H           -5.702933929160    -0.768072706065    -0.988312454979     1.007825032230
         H           -5.691783929160    -1.091532706065     0.734927545021     1.007825032230
         N            2.480496070840    -0.609832706065    -0.133722454979    14.003074004430
         H            2.873706070840    -1.525222706065    -0.305442454979     1.007825032230
         C            3.402026070840     0.438277293935     0.047727545021    12.000000000000
         O            4.599166070840     0.219987293935    -0.005152454979    15.994914619570
         C            2.762956070840     1.717737293935     0.288337545021    12.000000000000
         H            3.382496070840     2.584667293935     0.439817545021     1.007825032230
         C            1.415876070840     1.797737293935     0.317717545021    12.000000000000
         H            0.893036070840     2.726177293935     0.493017545021     1.007825032230
         N            0.612146070840     0.707047293935     0.127307545021    14.003074004430
         H           -0.411913929160     0.776997293935     0.151097545021     1.007825032230
         C            1.112076070840    -0.543172706065    -0.106862454979    12.000000000000
         O            0.400046070840    -1.532672706065    -0.280332454979    15.994914619570

  Charge       = 0
  Multiplicity = 1
  Basis Set: AUG-CC-PVQZ
    Blend: AUG-CC-PVQZ
  Basis Set: (AUG-CC-PVQZ AUX)
    Blend: AUG-CC-PVQZ-JKFIT

    Orbital Energies [Eh]
    ---------------------

    Doubly Occupied:

       1A    -20.620612     2A    -20.552553     3A    -20.544031
       4A    -20.539978     5A    -15.643370     6A    -15.626749
       7A    -11.418479     8A    -11.396187     9A    -11.380154
      10A    -11.338873    11A    -11.254376    12A    -11.246973
      13A     -1.472440    14A     -1.433535    15A     -1.397041
      16A     -1.362123    17A     -1.312180    18A     -1.246471
      19A     -1.088251    20A     -1.032889    21A     -0.935655
      22A     -0.900667    23A     -0.835667    24A     -0.805593
      25A     -0.766595    26A     -0.714719    27A     -0.711664
      28A     -0.687466    29A     -0.676865    30A     -0.670837
      31A     -0.659407    32A     -0.652201    33A     -0.614496
      34A     -0.601571    35A     -0.585859    36A     -0.575844
      37A     -0.571242    38A     -0.567366    39A     -0.524032
      40A     -0.487276    41A     -0.485531    42A     -0.462470
      43A     -0.450021    44A     -0.438413    45A     -0.369518

  @DF-RHF Final Energy:  -640.57793055307297

   => Energetics <=

    Nuclear Repulsion Energy =            647.6402311905766283
    One-Electron Energy =               -2161.1198402967829679
    Two-Electron Energy =                 872.9016785531332516
    Total Energy =                       -640.5779305530729744

  Dipole Moment: [D]
     X:    -4.1188      Y:     2.1099      Z:     0.4188     Total:     4.6467

  Basis Set: (AUG-CC-PVQZ AUX)
    Blend: AUG-CC-PVQZ-RI
	 Reference Energy          =    -640.5779305530729744 [Eh]
	 Singles Energy            =      -0.0000000000000000 [Eh]
	 Same-Spin Energy          =      -0.6688760107020736 [Eh]
	 Opposite-Spin Energy      =      -2.1474744479293624 [Eh]
	 Correlation Energy        =      -2.8163504586314358 [Eh]
	 Total Energy              =    -643.3942810117043791 [Eh]

	 ================> DF-SCS-MP2 Energies <==================
	-----------------------------------------------------------
	 SCS Same-Spin Scale       =       0.3333333333333333 [-]
	 SCS Opposite-Spin Scale   =       1.2000000000000000 [-]
	 SCS Same-Spin Energy      =      -0.2229586702340245 [Eh]
	 SCS Opposite-Spin Energy  =      -2.5769693375152349 [Eh]
	 SCS Correlation Energy    =      -2.7999280077492594 [Eh]
	 SCS Total Energy          =    -643.3778585608222329 [Eh]
	-----------------------------------------------------------

*** Psi4 exiting successfully. Buy a developer a beer!
