                               Psi4 1.4a2.dev224

  ==> Input File <==

--------------------------------------------------------------------------
#Generated by lconvert.py for cbs job

memory 40 GB

molecule  {
0 1
  C       -1.1136260     1.3270200     0.2751670
  O       -0.4670830     2.3493880     0.4615370
  O       -0.5780890     0.1369200     0.0496170
  H        0.4133200     0.2032570     0.0554870
  C       -2.6114250     1.2861900     0.2773610
  H       -3.0066490     2.2768850     0.4657900
  H       -2.9642560     0.9152590    -0.6820010
  H       -2.9531140     0.5917980     1.0412400
--
0 1
  N        4.3675700     1.0924660     0.1822070
  H        4.7607750     0.1770760     0.0104880
  C        5.2890980     2.1405820     0.3636600
  O        6.4862440     1.9222860     0.3107800
  C        4.6500320     3.4200440     0.6042670
  H        5.2695670     4.2869690     0.7557450
  C        3.3029480     3.5000350     0.6336480
  H        2.7801070     4.4284820     0.8089470
  N        2.4992170     2.4093530     0.4432420
  H        1.4751650     2.4793000     0.4670330
  C        2.9991490     1.1591300     0.2090700
  O        2.2871170     0.1696250     0.0356000
units angstrom
no_reorient
symmetry c1
}

set {
scf_type DF
mp2_type DF
e_convergence 7
reference rhf
}

energy('mp2/aug-cc-pv[tq]z', bsse_type='cp')
--------------------------------------------------------------------------

    Molecular point group: c1
  Charge       = 0
  Multiplicity = 1
  Basis Set: AUG-CC-PVTZ
    Blend: AUG-CC-PVTZ
  Basis Set: (AUG-CC-PVTZ AUX)
    Blend: AUG-CC-PVTZ-JKFIT
  @DF-RHF Final Energy:  -412.62260534283058
    Total Energy =                       -412.6226053428305818
  Basis Set: (AUG-CC-PVTZ AUX)
    Blend: AUG-CC-PVTZ-RI
	 Reference Energy          =    -412.6226053428305818 [Eh]
	 Singles Energy            =      -0.0000000000000000 [Eh]
	 Same-Spin Energy          =      -0.4144693910694776 [Eh]
	 Opposite-Spin Energy      =      -1.2270036080792373 [Eh]
	 Correlation Energy        =      -1.6414729991487147 [Eh]
	 Total Energy              =    -414.2640783419793138 [Eh]
	 SCS Total Energy          =    -414.2331661362155160 [Eh]
    Molecular point group: c1
  Basis Set: AUG-CC-PVQZ
    Blend: AUG-CC-PVQZ
  Basis Set: (AUG-CC-PVQZ AUX)
    Blend: AUG-CC-PVQZ-JKFIT
  @DF-RHF Final Energy:  -412.64807858794529
    Total Energy =                       -412.6480785879452924
  Basis Set: (AUG-CC-PVQZ AUX)
  @DF-RHF Final Energy:  -412.62280343922453
    Total Energy =                       -412.6228034392245263
  @DF-RHF Final Energy:  -412.64811966542277
    Total Energy =                       -412.6481196654227688
  @DF-RHF Final Energy:  -227.90285294492224
    Total Energy =                       -227.9028529449222447
  @DF-RHF Final Energy:  -227.91737903511122
    Total Energy =                       -227.9173790351112245
  @DF-RHF Final Energy:  -227.90263568712635
    Total Energy =                       -227.9026356871263488
  @DF-RHF Final Energy:  -227.91731511311673
    Total Energy =                       -227.9173151131167288
  Multiplicity = 1
  @DF-RHF Final Energy:  -640.55054935648297
    Total Energy =                       -640.5505493564829749
	 Singles Energy            =      -0.0000000000000000 [Eh]
	 Same-Spin Energy          =      -0.6332554363232212 [Eh]
	 Opposite-Spin Energy      =      -1.9010888042251555 [Eh]
	 Correlation Energy        =      -2.5343442405483767 [Eh]
	 Total Energy              =    -643.0848935970313960 [Eh]
	 SCS Total Energy          =    -643.0429410669942172 [Eh]
    Molecular point group: c1

    Geometry (in Angstrom), charge = 0, multiplicity = 1:

       Center              X                  Y                   Z               Mass
    ------------   -----------------  -----------------  -----------------  -----------------
         C           -3.297790751991    -0.368663680045    -0.037408211898    12.000000000000
         O           -2.651247751991     0.653704319955     0.148961788102    15.994914619570
         O           -2.762253751991    -1.558763680045    -0.262958211898    15.994914619570
         H           -1.770844751991    -1.492426680045    -0.257088211898     1.007825032230
         C           -4.795589751991    -0.409493680045    -0.035214211898    12.000000000000
         H           -5.190813751991     0.581201319955     0.153214788102     1.007825032230
         H           -5.148420751991    -0.780424680045    -0.994576211898     1.007825032230
         H           -5.137278751991    -1.103885680045     0.728664788102     1.007825032230
         N            2.183405248009    -0.603217680045    -0.130368211898    14.003074004430
         H            2.576610248009    -1.518607680045    -0.302087211898     1.007825032230
         C            3.104933248009     0.444898319955     0.051084788102    12.000000000000
         O            4.302079248009     0.226602319955    -0.001795211898    15.994914619570
         C            2.465867248009     1.724360319955     0.291691788102    12.000000000000
         H            3.085402248009     2.591285319955     0.443169788102     1.007825032230
         C            1.118783248009     1.804351319955     0.321072788102    12.000000000000
         H            0.595942248009     2.732798319955     0.496371788102     1.007825032230
         N            0.315052248009     0.713669319955     0.130666788102    14.003074004430
         H           -0.708999751991     0.783616319955     0.154457788102     1.007825032230
         C            0.814984248009    -0.536553680045    -0.103505211898    12.000000000000
         O            0.102952248009    -1.526058680045    -0.276975211898    15.994914619570

  Charge       = 0
  Multiplicity = 1
  Basis Set: AUG-CC-PVQZ
    Blend: AUG-CC-PVQZ
  Basis Set: (AUG-CC-PVQZ AUX)
    Blend: AUG-CC-PVQZ-JKFIT

    Orbital Energies [Eh]
    ---------------------

    Doubly Occupied:

       1A    -20.607085     2A    -20.557165     3A    -20.552707
       4A    -20.539308     5A    -15.633755     6A    -15.628762
       7A    -11.423174     8A    -11.398867     9A    -11.379834
      10A    -11.335523    11A    -11.251789    12A    -11.246780
      13A     -1.468855    14A     -1.439004    15A     -1.398348
      16A     -1.364870    17A     -1.312299    18A     -1.246391
      19A     -1.086203    20A     -1.033079    21A     -0.933442
      22A     -0.902173    23A     -0.830997    24A     -0.805565
      25A     -0.766258    26A     -0.725686    27A     -0.707302
      28A     -0.690630    29A     -0.676861    30A     -0.671843
      31A     -0.656811    32A     -0.655712    33A     -0.612895
      34A     -0.602452    35A     -0.585799    36A     -0.572776
      37A     -0.571985    38A     -0.564101    39A     -0.524615
      40A     -0.494298    41A     -0.490480    42A     -0.466734
      43A     -0.450893    44A     -0.443192    45A     -0.367251

  @DF-RHF Final Energy:  -640.59052060364797

   => Energetics <=

    Nuclear Repulsion Energy =            678.0060840718344934
    One-Electron Energy =               -2221.8441060377354006
    Two-Electron Energy =                 903.2475013622529332
    Total Energy =                       -640.5905206036479740

  Dipole Moment: [D]
     X:    -4.0849      Y:     2.0760      Z:     0.4129     Total:     4.6008

  Basis Set: (AUG-CC-PVQZ AUX)
    Blend: AUG-CC-PVQZ-RI
	 Reference Energy          =    -640.5905206036479740 [Eh]
	 Singles Energy            =      -0.0000000000000000 [Eh]
	 Same-Spin Energy          =      -0.6716268159405807 [Eh]
	 Opposite-Spin Energy      =      -2.1492125907225170 [Eh]
	 Correlation Energy        =      -2.8208394066630977 [Eh]
	 Total Energy              =    -643.4113600103111139 [Eh]

	 ================> DF-SCS-MP2 Energies <==================
	-----------------------------------------------------------
	 SCS Same-Spin Scale       =       0.3333333333333333 [-]
	 SCS Opposite-Spin Scale   =       1.2000000000000000 [-]
	 SCS Same-Spin Energy      =      -0.2238756053135269 [Eh]
	 SCS Opposite-Spin Energy  =      -2.5790551088670202 [Eh]
	 SCS Correlation Energy    =      -2.8029307141805471 [Eh]
	 SCS Total Energy          =    -643.3934513178285215 [Eh]
	-----------------------------------------------------------

*** Psi4 exiting successfully. Buy a developer a beer!
