                               Psi4 1.4a2.dev224

  ==> Input File <==

--------------------------------------------------------------------------
#Generated by lconvert.py for cbs job

memory 40 GB

molecule  {
0 1
  C       -1.1136260     1.3270200     0.2751670
  O       -0.4670830     2.3493880     0.4615370
  O       -0.5780890     0.1369200     0.0496170
  H        0.4133200     0.2032570     0.0554870
  C       -2.6114250     1.2861900     0.2773610
  H       -3.0066490     2.2768850     0.4657900
  H       -2.9642560     0.9152590    -0.6820010
  H       -2.9531140     0.5917980     1.0412400
--
0 1
  N        4.0265360     1.0838620     0.1834930
  H        4.4197420     0.1684720     0.0117740
  C        4.9480640     2.1319780     0.3649460
  O        6.1452110     1.9136820     0.3120660
  C        4.3089980     3.4114400     0.6055530
  H        4.9285330     4.2783650     0.7570310
  C        2.9619140     3.4914300     0.6349350
  H        2.4390740     4.4198770     0.8102330
  N        2.1581830     2.4007480     0.4445290
  H        1.1341310     2.4706960     0.4683190
  C        2.6581160     1.1505250     0.2103560
  O        1.9460830     0.1610200     0.0368860
units angstrom
no_reorient
symmetry c1
}

set {
scf_type DF
mp2_type DF
e_convergence 7
reference rhf
}

energy('mp2/aug-cc-pv[tq]z', bsse_type='cp')
--------------------------------------------------------------------------

    Molecular point group: c1
  Charge       = 0
  Multiplicity = 1
  Basis Set: AUG-CC-PVTZ
    Blend: AUG-CC-PVTZ
  Basis Set: (AUG-CC-PVTZ AUX)
    Blend: AUG-CC-PVTZ-JKFIT
  @DF-RHF Final Energy:  -412.62260519845751
    Total Energy =                       -412.6226051984575065
  Basis Set: (AUG-CC-PVTZ AUX)
    Blend: AUG-CC-PVTZ-RI
	 Reference Energy          =    -412.6226051984575065 [Eh]
	 Singles Energy            =      -0.0000000000000000 [Eh]
	 Same-Spin Energy          =      -0.4144694321373890 [Eh]
	 Opposite-Spin Energy      =      -1.2270036916062681 [Eh]
	 Correlation Energy        =      -1.6414731237436571 [Eh]
	 Total Energy              =    -414.2640783222011578 [Eh]
	 SCS Total Energy          =    -414.2331661057641554 [Eh]
    Molecular point group: c1
  Basis Set: AUG-CC-PVQZ
    Blend: AUG-CC-PVQZ
  Basis Set: (AUG-CC-PVQZ AUX)
    Blend: AUG-CC-PVQZ-JKFIT
  @DF-RHF Final Energy:  -412.64807843645156
    Total Energy =                       -412.6480784364515557
  Basis Set: (AUG-CC-PVQZ AUX)
  @DF-RHF Final Energy:  -412.62289213791547
    Total Energy =                       -412.6228921379154713
  @DF-RHF Final Energy:  -412.64813687066254
    Total Energy =                       -412.6481368706625403
  @DF-RHF Final Energy:  -227.90297850268649
    Total Energy =                       -227.9029785026864943
  @DF-RHF Final Energy:  -227.91740501143676
    Total Energy =                       -227.9174050114367560
  @DF-RHF Final Energy:  -227.90263568685984
    Total Energy =                       -227.9026356868598384
  @DF-RHF Final Energy:  -227.91731511381812
    Total Energy =                       -227.9173151138181197
  Multiplicity = 1
  @DF-RHF Final Energy:  -640.54634442508211
    Total Energy =                       -640.5463444250821112
	 Singles Energy            =      -0.0000000000000000 [Eh]
	 Same-Spin Energy          =      -0.6362739377348967 [Eh]
	 Opposite-Spin Energy      =      -1.9033142047715979 [Eh]
	 Correlation Energy        =      -2.5395881425064948 [Eh]
	 Total Energy              =    -643.0859325675886566 [Eh]
	 SCS Total Energy          =    -643.0424127833863395 [Eh]
    Molecular point group: c1

    Geometry (in Angstrom), charge = 0, multiplicity = 1:

       Center              X                  Y                   Z               Mass
    ------------   -----------------  -----------------  -----------------  -----------------
         C           -3.075730686308    -0.363060967887    -0.038245726668    12.000000000000
         O           -2.429187686308     0.659307032113     0.148124273332    15.994914619570
         O           -2.540193686308    -1.553160967887    -0.263795726668    15.994914619570
         H           -1.548784686308    -1.486823967887    -0.257925726668     1.007825032230
         C           -4.573529686308    -0.403890967887    -0.036051726668    12.000000000000
         H           -4.968753686308     0.586804032113     0.152377273332     1.007825032230
         H           -4.926360686308    -0.774821967887    -0.995413726668     1.007825032230
         H           -4.915218686308    -1.098282967887     0.727827273332     1.007825032230
         N            2.064431313692    -0.606218967887    -0.129919726668    14.003074004430
         H            2.457637313692    -1.521608967887    -0.301638726668     1.007825032230
         C            2.985959313692     0.441897032113     0.051533273332    12.000000000000
         O            4.183106313692     0.223601032113    -0.001346726668    15.994914619570
         C            2.346893313692     1.721359032113     0.292140273332    12.000000000000
         H            2.966428313692     2.588284032113     0.443618273332     1.007825032230
         C            0.999809313692     1.801349032113     0.321522273332    12.000000000000
         H            0.476969313692     2.729796032113     0.496820273332     1.007825032230
         N            0.196078313692     0.710667032113     0.131116273332    14.003074004430
         H           -0.827973686308     0.780615032113     0.154906273332     1.007825032230
         C            0.696011313692    -0.539555967887    -0.103056726668    12.000000000000
         O           -0.016021686308    -1.529060967887    -0.276526726668    15.994914619570

  Charge       = 0
  Multiplicity = 1
  Basis Set: AUG-CC-PVQZ
    Blend: AUG-CC-PVQZ
  Basis Set: (AUG-CC-PVQZ AUX)
    Blend: AUG-CC-PVQZ-JKFIT

    Orbital Energies [Eh]
    ---------------------

    Doubly Occupied:

       1A    -20.591363     2A    -20.559714     3A    -20.559272
       4A    -20.538502     5A    -15.630315     6A    -15.622024
       7A    -11.426782     8A    -11.400329     9A    -11.379345
      10A    -11.332252    11A    -11.249392    12A    -11.245963
      13A     -1.469121    14A     -1.444164    15A     -1.399371
      16A     -1.367613    17A     -1.311870    18A     -1.245932
      19A     -1.084489    20A     -1.033507    21A     -0.931314
      22A     -0.906365    23A     -0.830243    24A     -0.813365
      25A     -0.768108    26A     -0.736385    27A     -0.702489
      28A     -0.696371    29A     -0.677215    30A     -0.673444
      31A     -0.654393    32A     -0.652135    33A     -0.610333
      34A     -0.603743    35A     -0.584242    36A     -0.573631
      37A     -0.570318    38A     -0.560975    39A     -0.524993
      40A     -0.497652    41A     -0.491096    42A     -0.467027
      43A     -0.450781    44A     -0.447059    45A     -0.364702

  @DF-RHF Final Energy:  -640.58613914429964

   => Energetics <=

    Nuclear Repulsion Energy =            693.8007490934917314
    One-Electron Energy =               -2253.4143727002838204
    Two-Electron Energy =                 919.0274844624924526
    Total Energy =                       -640.5861391442996364

  Dipole Moment: [D]
     X:    -4.0642      Y:     2.0259      Z:     0.4043     Total:     4.5592

  Basis Set: (AUG-CC-PVQZ AUX)
    Blend: AUG-CC-PVQZ-RI
	 Reference Energy          =    -640.5861391442996364 [Eh]
	 Singles Energy            =      -0.0000000000000000 [Eh]
	 Same-Spin Energy          =      -0.6746996791717329 [Eh]
	 Opposite-Spin Energy      =      -2.1511999160388506 [Eh]
	 Correlation Energy        =      -2.8258995952105836 [Eh]
	 Total Energy              =    -643.4120387395101943 [Eh]

	 ================> DF-SCS-MP2 Energies <==================
	-----------------------------------------------------------
	 SCS Same-Spin Scale       =       0.3333333333333333 [-]
	 SCS Opposite-Spin Scale   =       1.2000000000000000 [-]
	 SCS Same-Spin Energy      =      -0.2248998930572443 [Eh]
	 SCS Opposite-Spin Energy  =      -2.5814398992466208 [Eh]
	 SCS Correlation Energy    =      -2.8063397923038651 [Eh]
	 SCS Total Energy          =    -643.3924789366035384 [Eh]
	-----------------------------------------------------------

*** Psi4 exiting successfully. Buy a developer a beer!
