                               Psi4 1.4a2.dev224

  ==> Input File <==

--------------------------------------------------------------------------
#Generated by lconvert.py for cbs job

memory 20 GB

molecule  {
0 1
  C      -1.113630    1.327020    0.275170
  O      -0.467080    2.349390    0.461540
  O      -0.578090    0.136920    0.049620
  H       0.413320    0.203260    0.055490
  C      -2.611430    1.286190    0.277360
  H      -3.006650    2.276890    0.465790
  H      -2.964260    0.915260   -0.682000
  H      -2.953110    0.591800    1.041240
--
0 1
  N       4.708210    1.084880    0.178360
  H       5.101420    0.169490    0.006640
  C       5.629740    2.132990    0.359810
  O       6.826880    1.914700    0.306930
  C       4.990670    3.412460    0.600420
  H       5.610210    4.279380    0.751900
  C       3.643590    3.492450    0.629800
  H       3.120750    4.420890    0.805100
  N       2.839860    2.401770    0.439390
  H       1.815800    2.471710    0.463190
  C       3.339790    1.151540    0.205220
  O       2.627760    0.162040    0.031750
units angstrom
no_reorient
symmetry c1
}

set {
scf_type DF
mp2_type DF
e_convergence 7
reference rhf
}

energy('mp2/aug-cc-pv[tq]z', bsse_type='cp')
--------------------------------------------------------------------------

    Molecular point group: c1
  Charge       = 0
  Multiplicity = 1
  Basis Set: AUG-CC-PVTZ
    Blend: AUG-CC-PVTZ
  Basis Set: (AUG-CC-PVTZ AUX)
    Blend: AUG-CC-PVTZ-JKFIT
  @DF-RHF Final Energy:  -412.62260649589314
    Total Energy =                       -412.6226064958931374
  Basis Set: (AUG-CC-PVTZ AUX)
    Blend: AUG-CC-PVTZ-RI
	 Reference Energy          =    -412.6226064958931374 [Eh]
	 Singles Energy            =      -0.0000000000000000 [Eh]
	 Same-Spin Energy          =      -0.4144690790010570 [Eh]
	 Opposite-Spin Energy      =      -1.2270029695506854 [Eh]
	 Correlation Energy        =      -1.6414720485517424 [Eh]
	 Total Energy              =    -414.2640785444448852 [Eh]
	 SCS Total Energy          =    -414.2331664190209608 [Eh]
    Molecular point group: c1
  Basis Set: AUG-CC-PVQZ
    Blend: AUG-CC-PVQZ
  Basis Set: (AUG-CC-PVQZ AUX)
    Blend: AUG-CC-PVQZ-JKFIT
  @DF-RHF Final Energy:  -412.64807979618212
    Total Energy =                       -412.6480797961821168
  Basis Set: (AUG-CC-PVQZ AUX)
  @DF-RHF Final Energy:  -412.62274670662231
    Total Energy =                       -412.6227467066223085
  @DF-RHF Final Energy:  -412.64811133002598
    Total Energy =                       -412.6481113300259835
  @DF-RHF Final Energy:  -227.90279012165166
    Total Energy =                       -227.9027901216516625
  @DF-RHF Final Energy:  -227.91736186683335
    Total Energy =                       -227.9173618668333461
  @DF-RHF Final Energy:  -227.90263500235051
    Total Energy =                       -227.9026350023505074
  @DF-RHF Final Energy:  -227.91731439473728
    Total Energy =                       -227.9173143947372751
  Multiplicity = 1
  @DF-RHF Final Energy:  -640.54558089624004
    Total Energy =                       -640.5455808962400397
	 Singles Energy            =      -0.0000000000000000 [Eh]
	 Same-Spin Energy          =      -0.6316214244632823 [Eh]
	 Opposite-Spin Energy      =      -1.8994658896391556 [Eh]
	 Correlation Energy        =      -2.5310873141024377 [Eh]
	 Total Energy              =    -643.0766682103425183 [Eh]
	 SCS Total Energy          =    -643.0354804386281558 [Eh]
    Molecular point group: c1

    Geometry (in Angstrom), charge = 0, multiplicity = 1:

       Center              X                  Y                   Z               Mass
    ------------   -----------------  -----------------  -----------------  -----------------
         C           -3.519598391623    -0.363724169335    -0.034899580552    12.000000000000
         O           -2.873048391623     0.658645830665     0.151470419448    15.994914619570
         O           -2.984058391623    -1.553824169335    -0.260449580552    15.994914619570
         H           -1.992648391623    -1.487484169335    -0.254579580552     1.007825032230
         C           -5.017398391623    -0.404554169335    -0.032709580552    12.000000000000
         H           -5.412618391623     0.586145830665     0.155720419448     1.007825032230
         H           -5.370228391623    -0.775484169335    -0.992069580552     1.007825032230
         H           -5.359078391623    -1.098944169335     0.731170419448     1.007825032230
         N            2.302241608377    -0.605864169335    -0.131709580552    14.003074004430
         H            2.695451608377    -1.521254169335    -0.303429580552     1.007825032230
         C            3.223771608377     0.442245830665     0.049740419448    12.000000000000
         O            4.420911608377     0.223955830665    -0.003139580552    15.994914619570
         C            2.584701608377     1.721715830665     0.290350419448    12.000000000000
         H            3.204241608377     2.588635830665     0.441830419448     1.007825032230
         C            1.237621608377     1.801705830665     0.319730419448    12.000000000000
         H            0.714781608377     2.730145830665     0.495030419448     1.007825032230
         N            0.433891608377     0.711025830665     0.129320419448    14.003074004430
         H           -0.590168391623     0.780965830665     0.153120419448     1.007825032230
         C            0.933821608377    -0.539204169335    -0.104849580552    12.000000000000
         O            0.221791608377    -1.528704169335    -0.278319580552    15.994914619570

  Charge       = 0
  Multiplicity = 1
  Basis Set: AUG-CC-PVQZ
    Blend: AUG-CC-PVQZ
  Basis Set: (AUG-CC-PVQZ AUX)
    Blend: AUG-CC-PVQZ-JKFIT

    Orbital Energies [Eh]
    ---------------------

    Doubly Occupied:

       1A    -20.615198     2A    -20.555161     3A    -20.548214
       4A    -20.539690     5A    -15.639477     6A    -15.627713
       7A    -11.420721     8A    -11.397744     9A    -11.380024
      10A    -11.337346    11A    -11.253178    12A    -11.247119
      13A     -1.470764    14A     -1.435915    15A     -1.397661
      16A     -1.363599    17A     -1.312291    18A     -1.246495
      19A     -1.087288    20A     -1.033111    21A     -0.934658
      22A     -0.901030    23A     -0.833279    24A     -0.804820
      25A     -0.766223    26A     -0.718808    27A     -0.710204
      28A     -0.688525    29A     -0.676833    30A     -0.671233
      31A     -0.658423    32A     -0.654716    33A     -0.613851
      34A     -0.601840    35A     -0.586216    36A     -0.574756
      37A     -0.571456    38A     -0.566089    39A     -0.524359
      40A     -0.489899    41A     -0.489222    42A     -0.465112
      43A     -0.450561    44A     -0.440650    45A     -0.368549

  @DF-RHF Final Energy:  -640.58557306552427

   => Energetics <=

    Nuclear Repulsion Energy =            664.5774592147898829
    One-Electron Energy =               -2194.9860151388224949
    Two-Electron Energy =                 889.8229828585082259
    Total Energy =                       -640.5855730655242724

  Dipole Moment: [D]
     X:    -4.1072      Y:     2.0972      Z:     0.4166     Total:     4.6305

  Basis Set: (AUG-CC-PVQZ AUX)
    Blend: AUG-CC-PVQZ-RI
	 Reference Energy          =    -640.5855730655242724 [Eh]
	 Singles Energy            =      -0.0000000000000000 [Eh]
	 Same-Spin Energy          =      -0.6700001588133950 [Eh]
	 Opposite-Spin Energy      =      -2.1482241864904719 [Eh]
	 Correlation Energy        =      -2.8182243453038671 [Eh]
	 Total Energy              =    -643.4037974108281333 [Eh]

	 ================> DF-SCS-MP2 Energies <==================
	-----------------------------------------------------------
	 SCS Same-Spin Scale       =       0.3333333333333333 [-]
	 SCS Opposite-Spin Scale   =       1.2000000000000000 [-]
	 SCS Same-Spin Energy      =      -0.2233333862711317 [Eh]
	 SCS Opposite-Spin Energy  =      -2.5778690237885660 [Eh]
	 SCS Correlation Energy    =      -2.8012024100596977 [Eh]
	 SCS Total Energy          =    -643.3867754755839314 [Eh]
	-----------------------------------------------------------

*** Psi4 exiting successfully. Buy a developer a beer!
