                               Psi4 1.4a2.dev224

  ==> Input File <==

--------------------------------------------------------------------------
#Generated by lconvert.py for cbs job

memory 40 GB

molecule  {
0 1
  C       -1.1136260     1.3270200     0.2751670
  O       -0.4670830     2.3493880     0.4615370
  O       -0.5780890     0.1369200     0.0496170
  H        0.4133200     0.2032570     0.0554870
  C       -2.6114250     1.2861900     0.2773610
  H       -3.0066490     2.2768850     0.4657900
  H       -2.9642560     0.9152590    -0.6820010
  H       -2.9531140     0.5917980     1.0412400
--
0 1
  N        4.1969730     1.0881620     0.1828500
  H        4.5901780     0.1727720     0.0111310
  C        5.1185010     2.1362780     0.3643030
  O        6.3156470     1.9179820     0.3114240
  C        4.4794350     3.4157400     0.6049110
  H        5.0989700     4.2826650     0.7563880
  C        3.1323510     3.4957300     0.6342920
  H        2.6095110     4.4241770     0.8095900
  N        2.3286200     2.4050480     0.4438860
  H        1.3045680     2.4749960     0.4676760
  C        2.8285530     1.1548260     0.2097140
  O        2.1165200     0.1653210     0.0362430
units angstrom
no_reorient
symmetry c1
}

set {
scf_type DF
mp2_type DF
e_convergence 7
reference rhf
}

energy('mp2/aug-cc-pv[tq]z', bsse_type='cp')
--------------------------------------------------------------------------

    Molecular point group: c1
  Charge       = 0
  Multiplicity = 1
  Basis Set: AUG-CC-PVTZ
    Blend: AUG-CC-PVTZ
  Basis Set: (AUG-CC-PVTZ AUX)
    Blend: AUG-CC-PVTZ-JKFIT
  @DF-RHF Final Energy:  -412.62260531144989
    Total Energy =                       -412.6226053114498882
  Basis Set: (AUG-CC-PVTZ AUX)
    Blend: AUG-CC-PVTZ-RI
	 Reference Energy          =    -412.6226053114498882 [Eh]
	 Singles Energy            =      -0.0000000000000000 [Eh]
	 Same-Spin Energy          =      -0.4144693917516555 [Eh]
	 Opposite-Spin Energy      =      -1.2270035956638057 [Eh]
	 Correlation Energy        =      -1.6414729874154612 [Eh]
	 Total Energy              =    -414.2640782988653427 [Eh]
	 SCS Total Energy          =    -414.2331660901636496 [Eh]
    Molecular point group: c1
  Basis Set: AUG-CC-PVQZ
    Blend: AUG-CC-PVQZ
  Basis Set: (AUG-CC-PVQZ AUX)
    Blend: AUG-CC-PVQZ-JKFIT
  @DF-RHF Final Energy:  -412.64807855677964
    Total Energy =                       -412.6480785567796374
  Basis Set: (AUG-CC-PVQZ AUX)
  @DF-RHF Final Energy:  -412.62284648849550
    Total Energy =                       -412.6228464884954974
  @DF-RHF Final Energy:  -412.64812779242800
    Total Energy =                       -412.6481277924279993
  @DF-RHF Final Energy:  -227.90291439092448
    Total Energy =                       -227.9029143909244794
  @DF-RHF Final Energy:  -227.91739096708847
    Total Energy =                       -227.9173909670884655
  @DF-RHF Final Energy:  -227.90263568727184
    Total Energy =                       -227.9026356872718395
  @DF-RHF Final Energy:  -227.91731511397990
    Total Energy =                       -227.9173151139798961
  Multiplicity = 1
  @DF-RHF Final Energy:  -640.55076435312924
    Total Energy =                       -640.5507643531292388
	 Singles Energy            =      -0.0000000000000000 [Eh]
	 Same-Spin Energy          =      -0.6345488498185985 [Eh]
	 Opposite-Spin Energy      =      -1.9020681355650302 [Eh]
	 Correlation Energy        =      -2.5366169853836285 [Eh]
	 Total Energy              =    -643.0873813385128415 [Eh]
	 SCS Total Energy          =    -643.0447623990801276 [Eh]
    Molecular point group: c1

    Geometry (in Angstrom), charge = 0, multiplicity = 1:

       Center              X                  Y                   Z               Mass
    ------------   -----------------  -----------------  -----------------  -----------------
         C           -3.186708616489    -0.365861024550    -0.037827277315    12.000000000000
         O           -2.540165616489     0.656506975450     0.148542722685    15.994914619570
         O           -2.651171616489    -1.555961024550    -0.263377277315    15.994914619570
         H           -1.659762616489    -1.489624024550    -0.257507277315     1.007825032230
         C           -4.684507616489    -0.406691024550    -0.035633277315    12.000000000000
         H           -5.079731616489     0.584003975450     0.152795722685     1.007825032230
         H           -5.037338616489    -0.777622024550    -0.994995277315     1.007825032230
         H           -5.026196616489    -1.101083024550     0.728245722685     1.007825032230
         N            2.123890383511    -0.604719024550    -0.130144277315    14.003074004430
         H            2.517095383511    -1.520109024550    -0.301863277315     1.007825032230
         C            3.045418383511     0.443396975450     0.051308722685    12.000000000000
         O            4.242564383511     0.225100975450    -0.001570277315    15.994914619570
         C            2.406352383511     1.722858975450     0.291916722685    12.000000000000
         H            3.025887383511     2.589783975450     0.443393722685     1.007825032230
         C            1.059268383511     1.802848975450     0.321297722685    12.000000000000
         H            0.536428383511     2.731295975450     0.496595722685     1.007825032230
         N            0.255537383511     0.712166975450     0.130891722685    14.003074004430
         H           -0.768514616489     0.782114975450     0.154681722685     1.007825032230
         C            0.755470383511    -0.538055024550    -0.103280277315    12.000000000000
         O            0.043437383511    -1.527560024550    -0.276751277315    15.994914619570

  Charge       = 0
  Multiplicity = 1
  Basis Set: AUG-CC-PVQZ
    Blend: AUG-CC-PVQZ
  Basis Set: (AUG-CC-PVQZ AUX)
    Blend: AUG-CC-PVQZ-JKFIT

    Orbital Energies [Eh]
    ---------------------

    Doubly Occupied:

       1A    -20.600516     2A    -20.558366     3A    -20.555722
       4A    -20.538991     5A    -15.629475     6A    -15.628957
       7A    -11.424828     8A    -11.399549     9A    -11.379656
      10A    -11.334142    11A    -11.250768    12A    -11.246446
      13A     -1.468262    14A     -1.441350    15A     -1.398820
      16A     -1.365945    17A     -1.312209    18A     -1.246246
      19A     -1.085449    20A     -1.033166    21A     -0.932533
      22A     -0.903621    23A     -0.830160    24A     -0.807781
      25A     -0.766793    26A     -0.730837    27A     -0.705146
      28A     -0.692947    29A     -0.677005    30A     -0.672450
      31A     -0.655696    32A     -0.654815    33A     -0.611961
      34A     -0.602995    35A     -0.585233    36A     -0.572594
      37A     -0.571475    38A     -0.562669    39A     -0.524779
      40A     -0.496460    41A     -0.490996    42A     -0.467244
      43A     -0.450953    44A     -0.444953    45A     -0.366208

  @DF-RHF Final Energy:  -640.59065560322449

   => Energetics <=

    Nuclear Repulsion Energy =            685.5796555383805071
    One-Electron Energy =               -2236.9862813309691774
    Two-Electron Energy =                 910.8159701893642932
    Total Energy =                       -640.5906556032244907

  Dipole Moment: [D]
     X:    -4.0723      Y:     2.0563      Z:     0.4094     Total:     4.5803

  Basis Set: (AUG-CC-PVQZ AUX)
    Blend: AUG-CC-PVQZ-RI
	 Reference Energy          =    -640.5906556032244907 [Eh]
	 Singles Energy            =      -0.0000000000000000 [Eh]
	 Same-Spin Energy          =      -0.6729367275006766 [Eh]
	 Opposite-Spin Energy      =      -2.1500395416750457 [Eh]
	 Correlation Energy        =      -2.8229762691757223 [Eh]
	 Total Energy              =    -643.4136318724001740 [Eh]

	 ================> DF-SCS-MP2 Energies <==================
	-----------------------------------------------------------
	 SCS Same-Spin Scale       =       0.3333333333333333 [-]
	 SCS Opposite-Spin Scale   =       1.2000000000000000 [-]
	 SCS Same-Spin Energy      =      -0.2243122425002255 [Eh]
	 SCS Opposite-Spin Energy  =      -2.5800474500100550 [Eh]
	 SCS Correlation Energy    =      -2.8043596925102805 [Eh]
	 SCS Total Energy          =    -643.3950152957347655 [Eh]
	-----------------------------------------------------------

*** Psi4 exiting successfully. Buy a developer a beer!
