                               Psi4 1.4a2.dev224

  ==> Input File <==

--------------------------------------------------------------------------
#Generated by lconvert.py for cbs job

memory 40 GB

molecule  {
0 1
  C       -1.1136260     1.3270200     0.2751670
  O       -0.4670830     2.3493880     0.4615370
  O       -0.5780890     0.1369200     0.0496170
  H        0.4133200     0.2032570     0.0554870
  C       -2.6114250     1.2861900     0.2773610
  H       -3.0066490     2.2768850     0.4657900
  H       -2.9642560     0.9152590    -0.6820010
  H       -2.9531140     0.5917980     1.0412400
--
0 1
  N        3.6860130     1.0995430     0.1886230
  H        4.0792180     0.1841530     0.0169040
  C        4.6075410     2.1476590     0.3700770
  O        5.8046880     1.9293630     0.3171970
  C        3.9684750     3.4271210     0.6106840
  H        4.5880100     4.2940460     0.7621610
  C        2.6213910     3.5071110     0.6400650
  H        2.0985510     4.4355580     0.8153630
  N        1.8176600     2.4164290     0.4496590
  H        0.7936080     2.4863770     0.4734490
  C        2.3175930     1.1662060     0.2154870
  O        1.6055600     0.1767010     0.0420170
units angstrom
no_reorient
symmetry c1
}

set {
scf_type DF
mp2_type DF
e_convergence 7
reference rhf
}

energy('mp2/aug-cc-pv[tq]z', bsse_type='cp')
--------------------------------------------------------------------------

    Molecular point group: c1
  Charge       = 0
  Multiplicity = 1
  Basis Set: AUG-CC-PVTZ
    Blend: AUG-CC-PVTZ
  Basis Set: (AUG-CC-PVTZ AUX)
    Blend: AUG-CC-PVTZ-JKFIT
  @DF-RHF Final Energy:  -412.62260521448025
    Total Energy =                       -412.6226052144802452
  Basis Set: (AUG-CC-PVTZ AUX)
    Blend: AUG-CC-PVTZ-RI
	 Reference Energy          =    -412.6226052144802452 [Eh]
	 Singles Energy            =      -0.0000000000000000 [Eh]
	 Same-Spin Energy          =      -0.4144694262994667 [Eh]
	 Opposite-Spin Energy      =      -1.2270036795941934 [Eh]
	 Correlation Energy        =      -1.6414731058936600 [Eh]
	 Total Energy              =    -414.2640783203739261 [Eh]
	 SCS Total Energy          =    -414.2331661054264487 [Eh]
    Molecular point group: c1
  Basis Set: AUG-CC-PVQZ
    Blend: AUG-CC-PVQZ
  Basis Set: (AUG-CC-PVQZ AUX)
    Blend: AUG-CC-PVQZ-JKFIT
  @DF-RHF Final Energy:  -412.64807845284014
    Total Energy =                       -412.6480784528401387
  Basis Set: (AUG-CC-PVQZ AUX)
  @DF-RHF Final Energy:  -412.62300839893533
    Total Energy =                       -412.6230083989353261
  @DF-RHF Final Energy:  -412.64815663008426
    Total Energy =                       -412.6481566300842587
  @DF-RHF Final Energy:  -227.90311654575032
    Total Energy =                       -227.9031165457503221
  @DF-RHF Final Energy:  -227.91743517622740
    Total Energy =                       -227.9174351762274000
  @DF-RHF Final Energy:  -227.90263568738081
    Total Energy =                       -227.9026356873808083
  @DF-RHF Final Energy:  -227.91731511394471
    Total Energy =                       -227.9173151139447100
  Multiplicity = 1
  @DF-RHF Final Energy:  -640.49760210381942
    Total Energy =                       -640.4976021038194176
	 Singles Energy            =      -0.0000000000000000 [Eh]
	 Same-Spin Energy          =      -0.6411048033286799 [Eh]
	 Opposite-Spin Energy      =      -1.9069420590141795 [Eh]
	 Correlation Energy        =      -2.5480468623428596 [Eh]
	 Total Energy              =    -643.0456489661622754 [Eh]
	 SCS Total Energy          =    -642.9996341757459959 [Eh]
    Molecular point group: c1

    Geometry (in Angstrom), charge = 0, multiplicity = 1:

       Center              X                  Y                   Z               Mass
    ------------   -----------------  -----------------  -----------------  -----------------
         C           -2.854003171920    -0.373271464861    -0.041586460439    12.000000000000
         O           -2.207460171920     0.649096535139     0.144783539561    15.994914619570
         O           -2.318466171920    -1.563371464861    -0.267136460439    15.994914619570
         H           -1.327057171920    -1.497034464861    -0.261266460439     1.007825032230
         C           -4.351802171920    -0.414101464861    -0.039392460439    12.000000000000
         H           -4.747026171920     0.576593535139     0.149036539561     1.007825032230
         H           -4.704633171920    -0.785032464861    -0.998754460439     1.007825032230
         H           -4.693491171920    -1.108493464861     0.724486539561     1.007825032230
         N            1.945635828080    -0.600748464861    -0.128130460439    14.003074004430
         H            2.338840828080    -1.516138464861    -0.299849460439     1.007825032230
         C            2.867163828080     0.447367535139     0.053323539561    12.000000000000
         O            4.064310828080     0.229071535139     0.000443539561    15.994914619570
         C            2.228097828080     1.726829535139     0.293930539561    12.000000000000
         H            2.847632828080     2.593754535139     0.445407539561     1.007825032230
         C            0.881013828080     1.806819535139     0.323311539561    12.000000000000
         H            0.358173828080     2.735266535139     0.498609539561     1.007825032230
         N            0.077282828080     0.716137535139     0.132905539561    14.003074004430
         H           -0.946769171920     0.786085535139     0.156695539561     1.007825032230
         C            0.577215828080    -0.534085464861    -0.101266460439    12.000000000000
         O           -0.134817171920    -1.523590464861    -0.274736460439    15.994914619570

  Charge       = 0
  Multiplicity = 1
  Basis Set: AUG-CC-PVQZ
    Blend: AUG-CC-PVQZ
  Basis Set: (AUG-CC-PVQZ AUX)
    Blend: AUG-CC-PVQZ-JKFIT

    Orbital Energies [Eh]
    ---------------------

    Doubly Occupied:

       1A    -20.567052     2A    -20.562821     3A    -20.562119
       4A    -20.536589     5A    -15.632342     6A    -15.598387
       7A    -11.431500     8A    -11.402459     9A    -11.377949
      10A    -11.326081    11A    -11.245016    12A    -11.244626
      13A     -1.486459    14A     -1.450978    15A     -1.401109
      16A     -1.373727    17A     -1.309059    18A     -1.244185
      19A     -1.081999    20A     -1.037117    21A     -0.929001
      22A     -0.920497    23A     -0.852327    24A     -0.834517
      25A     -0.772152    26A     -0.742377    27A     -0.703788
      28A     -0.695971    29A     -0.678234    30A     -0.677549
      31A     -0.651977    32A     -0.641302    33A     -0.607625
      34A     -0.602005    35A     -0.579863    36A     -0.578159
      37A     -0.570089    38A     -0.558642    39A     -0.525723
      40A     -0.491792    41A     -0.487278    42A     -0.460355
      43A     -0.451767    44A     -0.448340    45A     -0.359388

  @DF-RHF Final Energy:  -640.53733483297651

   => Energetics <=

    Nuclear Repulsion Energy =            712.5102042894168335
    One-Electron Energy =               -2290.7104851810381660
    Two-Electron Energy =                 937.6629460586448204
    Total Energy =                       -640.5373348329765122

  Dipole Moment: [D]
     X:    -4.0983      Y:     1.9168      Z:     0.3861     Total:     4.5408

  Basis Set: (AUG-CC-PVQZ AUX)
    Blend: AUG-CC-PVQZ-RI
	 Reference Energy          =    -640.5373348329765122 [Eh]
	 Singles Energy            =      -0.0000000000000000 [Eh]
	 Same-Spin Energy          =      -0.6796248301441157 [Eh]
	 Opposite-Spin Energy      =      -2.1541775067270983 [Eh]
	 Correlation Energy        =      -2.8338023368712140 [Eh]
	 Total Energy              =    -643.3711371698477706 [Eh]

	 ================> DF-SCS-MP2 Energies <==================
	-----------------------------------------------------------
	 SCS Same-Spin Scale       =       0.3333333333333333 [-]
	 SCS Opposite-Spin Scale   =       1.2000000000000000 [-]
	 SCS Same-Spin Energy      =      -0.2265416100480385 [Eh]
	 SCS Opposite-Spin Energy  =      -2.5850130080725178 [Eh]
	 SCS Correlation Energy    =      -2.8115546181205562 [Eh]
	 SCS Total Energy          =    -643.3488894510970795 [Eh]
	-----------------------------------------------------------

*** Psi4 exiting successfully. Buy a developer a beer!
