                               Psi4 1.4a2.dev224

  ==> Input File <==

--------------------------------------------------------------------------
#Generated by lconvert.py for cbs job

memory 40 GB

molecule  {
0 1
  C       -1.1136260     1.3270200     0.2751670
  O       -0.4670830     2.3493880     0.4615370
  O       -0.5780890     0.1369200     0.0496170
  H        0.4133200     0.2032570     0.0554870
  C       -2.6114250     1.2861900     0.2773610
  H       -3.0066490     2.2768850     0.4657900
  H       -2.9642560     0.9152590    -0.6820010
  H       -2.9531140     0.5917980     1.0412400
--
0 1
  N        3.8563330     1.0957490     0.1866990
  H        4.2495380     0.1803590     0.0149800
  C        4.7778610     2.1438650     0.3681520
  O        5.9750070     1.9255690     0.3152720
  C        4.1387950     3.4233270     0.6087590
  H        4.7583300     4.2902520     0.7602370
  C        2.7917110     3.5033180     0.6381410
  H        2.2688710     4.4317650     0.8134390
  N        1.9879800     2.4126360     0.4477350
  H        0.9639280     2.4825830     0.4715250
  C        2.4879130     1.1624130     0.2135620
  O        1.7758800     0.1729080     0.0400920
units angstrom
no_reorient
symmetry c1
}

set {
scf_type DF
mp2_type DF
e_convergence 7
reference rhf
}

energy('mp2/aug-cc-pv[tq]z', bsse_type='cp')
--------------------------------------------------------------------------

    Molecular point group: c1
  Charge       = 0
  Multiplicity = 1
  Basis Set: AUG-CC-PVTZ
    Blend: AUG-CC-PVTZ
  Basis Set: (AUG-CC-PVTZ AUX)
    Blend: AUG-CC-PVTZ-JKFIT
  @DF-RHF Final Energy:  -412.62260530611599
    Total Energy =                       -412.6226053061159860
  Basis Set: (AUG-CC-PVTZ AUX)
    Blend: AUG-CC-PVTZ-RI
	 Reference Energy          =    -412.6226053061159860 [Eh]
	 Singles Energy            =      -0.0000000000000000 [Eh]
	 Same-Spin Energy          =      -0.4144693994393431 [Eh]
	 Opposite-Spin Energy      =      -1.2270036200774903 [Eh]
	 Correlation Energy        =      -1.6414730195168334 [Eh]
	 Total Energy              =    -414.2640783256327950 [Eh]
	 SCS Total Energy          =    -414.2331661166887784 [Eh]
    Molecular point group: c1
  Basis Set: AUG-CC-PVQZ
    Blend: AUG-CC-PVQZ
  Basis Set: (AUG-CC-PVQZ AUX)
    Blend: AUG-CC-PVQZ-JKFIT
  @DF-RHF Final Energy:  -412.64807855135228
    Total Energy =                       -412.6480785513522846
  Basis Set: (AUG-CC-PVQZ AUX)
  @DF-RHF Final Energy:  -412.62294505548527
    Total Energy =                       -412.6229450554852747
  @DF-RHF Final Energy:  -412.64814677698917
    Total Energy =                       -412.6481467769891651
  @DF-RHF Final Energy:  -227.90304208383276
    Total Energy =                       -227.9030420838327586
  @DF-RHF Final Energy:  -227.91741928196589
    Total Energy =                       -227.9174192819658913
  @DF-RHF Final Energy:  -227.90263568708244
    Total Energy =                       -227.9026356870824372
  @DF-RHF Final Energy:  -227.91731511362360
    Total Energy =                       -227.9173151136236015
  Multiplicity = 1
  @DF-RHF Final Energy:  -640.53214293253097
    Total Energy =                       -640.5321429325309737
	 Singles Energy            =      -0.0000000000000000 [Eh]
	 Same-Spin Energy          =      -0.6384514361014023 [Eh]
	 Opposite-Spin Energy      =      -1.9049200595945632 [Eh]
	 Correlation Energy        =      -2.5433714956959657 [Eh]
	 Total Energy              =    -643.0755144282269384 [Eh]
	 SCS Total Energy          =    -643.0308641494116273 [Eh]
    Molecular point group: c1

    Geometry (in Angstrom), charge = 0, multiplicity = 1:

       Center              X                  Y                   Z               Mass
    ------------   -----------------  -----------------  -----------------  -----------------
         C           -2.964904924798    -0.370801366517    -0.040333275504    12.000000000000
         O           -2.318361924798     0.651566633483     0.146036724496    15.994914619570
         O           -2.429367924798    -1.560901366517    -0.265883275504    15.994914619570
         H           -1.437958924798    -1.494564366517    -0.260013275504     1.007825032230
         C           -4.462703924798    -0.411631366517    -0.038139275504    12.000000000000
         H           -4.857927924798     0.579063633483     0.150289724496     1.007825032230
         H           -4.815534924798    -0.782562366517    -0.997501275504     1.007825032230
         H           -4.804392924798    -1.106023366517     0.725739724496     1.007825032230
         N            2.005054075202    -0.602072366517    -0.128801275504    14.003074004430
         H            2.398259075202    -1.517462366517    -0.300520275504     1.007825032230
         C            2.926582075202     0.446043633483     0.052651724496    12.000000000000
         O            4.123728075202     0.227747633483    -0.000228275504    15.994914619570
         C            2.287516075202     1.725505633483     0.293258724496    12.000000000000
         H            2.907051075202     2.592430633483     0.444736724496     1.007825032230
         C            0.940432075202     1.805496633483     0.322640724496    12.000000000000
         H            0.417592075202     2.733943633483     0.497938724496     1.007825032230
         N            0.136701075202     0.714814633483     0.132234724496    14.003074004430
         H           -0.887350924798     0.784761633483     0.156024724496     1.007825032230
         C            0.636634075202    -0.535408366517    -0.101938275504    12.000000000000
         O           -0.075398924798    -1.524913366517    -0.275408275504    15.994914619570

  Charge       = 0
  Multiplicity = 1
  Basis Set: AUG-CC-PVQZ
    Blend: AUG-CC-PVQZ
  Basis Set: (AUG-CC-PVQZ AUX)
    Blend: AUG-CC-PVQZ-JKFIT

    Orbital Energies [Eh]
    ---------------------

    Doubly Occupied:

       1A    -20.578627     2A    -20.563139     3A    -20.561003
       4A    -20.537749     5A    -15.631290     6A    -15.612176
       7A    -11.429062     8A    -11.401130     9A    -11.378821
      10A    -11.329653    11A    -11.247530    12A    -11.245249
      13A     -1.473724    14A     -1.446953    15A     -1.400045
      16A     -1.370006    17A     -1.310971    18A     -1.245307
      19A     -1.083308    20A     -1.034386    21A     -0.929782
      22A     -0.911567    23A     -0.832974    24A     -0.825141
      25A     -0.770113    26A     -0.740706    27A     -0.700614
      28A     -0.699111    29A     -0.677339    30A     -0.675126
      31A     -0.652897    32A     -0.647423    33A     -0.607667
      34A     -0.604572    35A     -0.582441    36A     -0.575353
      37A     -0.569602    38A     -0.559209    39A     -0.525309
      40A     -0.496542    41A     -0.490008    42A     -0.465109
      43A     -0.450124    44A     -0.449426    45A     -0.362520

  @DF-RHF Final Energy:  -640.57187942145288

   => Energetics <=

    Nuclear Repulsion Energy =            702.6861987186809984
    One-Electron Energy =               -2271.1545417302131682
    Two-Electron Energy =                 927.8964635900792928
    Total Energy =                       -640.5718794214528771

  Dipole Moment: [D]
     X:    -4.0640      Y:     1.9827      Z:     0.3970     Total:     4.5393

  Basis Set: (AUG-CC-PVQZ AUX)
    Blend: AUG-CC-PVQZ-RI
	 Reference Energy          =    -640.5718794214528771 [Eh]
	 Singles Energy            =      -0.0000000000000000 [Eh]
	 Same-Spin Energy          =      -0.6769344277420721 [Eh]
	 Opposite-Spin Energy      =      -2.1526483718413796 [Eh]
	 Correlation Energy        =      -2.8295827995834517 [Eh]
	 Total Energy              =    -643.4014622210363541 [Eh]

	 ================> DF-SCS-MP2 Energies <==================
	-----------------------------------------------------------
	 SCS Same-Spin Scale       =       0.3333333333333333 [-]
	 SCS Opposite-Spin Scale   =       1.2000000000000000 [-]
	 SCS Same-Spin Energy      =      -0.2256448092473574 [Eh]
	 SCS Opposite-Spin Energy  =      -2.5831780462096554 [Eh]
	 SCS Correlation Energy    =      -2.8088228554570129 [Eh]
	 SCS Total Energy          =    -643.3807022769099149 [Eh]
	-----------------------------------------------------------

*** Psi4 exiting successfully. Buy a developer a beer!
