                               Psi4 1.4a2.dev224

  ==> Input File <==

--------------------------------------------------------------------------
#Generated by lconvert.py for cbs job

memory 40 GB

molecule  {
0 1
  C       -1.1136260     1.3270200     0.2751670
  O       -0.4670830     2.3493880     0.4615370
  O       -0.5780890     0.1369200     0.0496170
  H        0.4133200     0.2032570     0.0554870
  C       -2.6114250     1.2861900     0.2773610
  H       -3.0066490     2.2768850     0.4657900
  H       -2.9642560     0.9152590    -0.6820010
  H       -2.9531140     0.5917980     1.0412400
--
0 1
  N        4.1118110     1.0860130     0.1831720
  H        4.5050160     0.1706230     0.0114520
  C        5.0333380     2.1341290     0.3646250
  O        6.2304850     1.9158330     0.3117450
  C        4.3942720     3.4135910     0.6052320
  H        5.0138070     4.2805160     0.7567090
  C        3.0471880     3.4935820     0.6346130
  H        2.5243480     4.4220290     0.8099110
  N        2.2434570     2.4029000     0.4442070
  H        1.2194060     2.4728470     0.4679970
  C        2.7433900     1.1526770     0.2100350
  O        2.0313570     0.1631720     0.0365650
units angstrom
no_reorient
symmetry c1
}

set {
scf_type DF
mp2_type DF
e_convergence 7
reference rhf
}

energy('mp2/aug-cc-pv[tq]z', bsse_type='cp')
--------------------------------------------------------------------------

    Molecular point group: c1
  Charge       = 0
  Multiplicity = 1
  Basis Set: AUG-CC-PVTZ
    Blend: AUG-CC-PVTZ
  Basis Set: (AUG-CC-PVTZ AUX)
    Blend: AUG-CC-PVTZ-JKFIT
  @DF-RHF Final Energy:  -412.62260527369432
    Total Energy =                       -412.6226052736943188
  Basis Set: (AUG-CC-PVTZ AUX)
    Blend: AUG-CC-PVTZ-RI
	 Reference Energy          =    -412.6226052736943188 [Eh]
	 Singles Energy            =      -0.0000000000000000 [Eh]
	 Same-Spin Energy          =      -0.4144694167251772 [Eh]
	 Opposite-Spin Energy      =      -1.2270036674129927 [Eh]
	 Correlation Energy        =      -1.6414730841381699 [Eh]
	 Total Energy              =    -414.2640783578324886 [Eh]
	 SCS Total Energy          =    -414.2331661468316497 [Eh]
    Molecular point group: c1
  Basis Set: AUG-CC-PVQZ
    Blend: AUG-CC-PVQZ
  Basis Set: (AUG-CC-PVQZ AUX)
    Blend: AUG-CC-PVQZ-JKFIT
  @DF-RHF Final Energy:  -412.64807851475553
    Total Energy =                       -412.6480785147555252
  Basis Set: (AUG-CC-PVQZ AUX)
  @DF-RHF Final Energy:  -412.62286872713298
    Total Energy =                       -412.6228687271329818
  @DF-RHF Final Energy:  -412.64813236818998
    Total Energy =                       -412.6481323681899767
  @DF-RHF Final Energy:  -227.90294719354648
    Total Energy =                       -227.9029471935464812
  @DF-RHF Final Energy:  -227.91739798747182
    Total Energy =                       -227.9173979874718157
  @DF-RHF Final Energy:  -227.90263568685901
    Total Energy =                       -227.9026356868590142
  @DF-RHF Final Energy:  -227.91731511437956
    Total Energy =                       -227.9173151143795621
  Multiplicity = 1
  @DF-RHF Final Energy:  -640.54938430785376
    Total Energy =                       -640.5493843078537566
	 Singles Energy            =      -0.0000000000000000 [Eh]
	 Same-Spin Energy          =      -0.6353517478104764 [Eh]
	 Opposite-Spin Energy      =      -1.9026440833641971 [Eh]
	 Correlation Energy        =      -2.5379958311746735 [Eh]
	 Total Energy              =    -643.0873801390284825 [Eh]
	 SCS Total Energy          =    -643.0443411238276212 [Eh]
    Molecular point group: c1

    Geometry (in Angstrom), charge = 0, multiplicity = 1:

       Center              X                  Y                   Z               Mass
    ------------   -----------------  -----------------  -----------------  -----------------
         C           -3.131255926226    -0.364461885710    -0.038036536760    12.000000000000
         O           -2.484712926226     0.657906114290     0.148333463240    15.994914619570
         O           -2.595718926226    -1.554561885710    -0.263586536760    15.994914619570
         H           -1.604309926226    -1.488224885710    -0.257716536760     1.007825032230
         C           -4.629054926226    -0.405291885710    -0.035842536760    12.000000000000
         H           -5.024278926226     0.585403114290     0.152586463240     1.007825032230
         H           -4.981885926226    -0.776222885710    -0.995204536760     1.007825032230
         H           -4.970743926226    -1.099683885710     0.728036463240     1.007825032230
         N            2.094181073774    -0.605468885710    -0.130031536760    14.003074004430
         H            2.487386073774    -1.520858885710    -0.301751536760     1.007825032230
         C            3.015708073774     0.442647114290     0.051421463240    12.000000000000
         O            4.212855073774     0.224351114290    -0.001458536760    15.994914619570
         C            2.376642073774     1.722109114290     0.292028463240    12.000000000000
         H            2.996177073774     2.589034114290     0.443505463240     1.007825032230
         C            1.029558073774     1.802100114290     0.321409463240    12.000000000000
         H            0.506718073774     2.730547114290     0.496707463240     1.007825032230
         N            0.225827073774     0.711418114290     0.131003463240    14.003074004430
         H           -0.798223926226     0.781365114290     0.154793463240     1.007825032230
         C            0.725760073774    -0.538804885710    -0.103168536760    12.000000000000
         O            0.013727073774    -1.528309885710    -0.276638536760    15.994914619570

  Charge       = 0
  Multiplicity = 1
  Basis Set: AUG-CC-PVQZ
    Blend: AUG-CC-PVQZ
  Basis Set: (AUG-CC-PVQZ AUX)
    Blend: AUG-CC-PVQZ-JKFIT

    Orbital Energies [Eh]
    ---------------------

    Doubly Occupied:

       1A    -20.596313     2A    -20.559014     3A    -20.557430
       4A    -20.538774     5A    -15.629879     6A    -15.625812
       7A    -11.425768     8A    -11.399920     9A    -11.379522
      10A    -11.333273    11A    -11.250133    12A    -11.246222
      13A     -1.468388    14A     -1.442716    15A     -1.399084
      16A     -1.366678    17A     -1.312085    18A     -1.246118
      19A     -1.084997    20A     -1.033285    21A     -0.931968
      22A     -0.904773    23A     -0.830023    24A     -0.809975
      25A     -0.767331    26A     -0.733647    27A     -0.703875
      28A     -0.694529    29A     -0.677106    30A     -0.672882
      31A     -0.655059    32A     -0.653729    33A     -0.611261
      34A     -0.603339    35A     -0.584801    36A     -0.573043
      37A     -0.570841    38A     -0.561843    39A     -0.524876
      40A     -0.497247    41A     -0.491122    42A     -0.467265
      43A     -0.450908    44A     -0.445964    45A     -0.365526

  @DF-RHF Final Energy:  -640.58922547577663

   => Energetics <=

    Nuclear Repulsion Energy =            689.5995763131455760
    One-Electron Energy =               -2245.0209086388999822
    Two-Electron Energy =                 914.8321068499778903
    Total Energy =                       -640.5892254757766295

  Dipole Moment: [D]
     X:    -4.0672      Y:     2.0427      Z:     0.4071     Total:     4.5695

  Basis Set: (AUG-CC-PVQZ AUX)
    Blend: AUG-CC-PVQZ-RI
	 Reference Energy          =    -640.5892254757766295 [Eh]
	 Singles Energy            =      -0.0000000000000000 [Eh]
	 Same-Spin Energy          =      -0.6737554537693875 [Eh]
	 Opposite-Spin Energy      =      -2.1505724425812560 [Eh]
	 Correlation Energy        =      -2.8243278963506437 [Eh]
	 Total Energy              =    -643.4135533721272395 [Eh]

	 ================> DF-SCS-MP2 Energies <==================
	-----------------------------------------------------------
	 SCS Same-Spin Scale       =       0.3333333333333333 [-]
	 SCS Opposite-Spin Scale   =       1.2000000000000000 [-]
	 SCS Same-Spin Energy      =      -0.2245851512564625 [Eh]
	 SCS Opposite-Spin Energy  =      -2.5806869310975071 [Eh]
	 SCS Correlation Energy    =      -2.8052720823539694 [Eh]
	 SCS Total Energy          =    -643.3944975581306380 [Eh]
	-----------------------------------------------------------

*** Psi4 exiting successfully. Buy a developer a beer!
