                               Psi4 1.4a2.dev224

  ==> Input File <==

--------------------------------------------------------------------------
#Generated by lconvert.py for cbs job

memory 40 GB

molecule  {
0 1
  C       -1.2327270     1.2116390    -0.1416240
  O       -0.5712770     2.2420160     0.0256170
  N       -0.6705810     0.0038890    -0.3142810
  H        0.3438470    -0.0905600    -0.3083270
  H       -1.2442140    -0.8063240    -0.4466830
  C       -2.7382450     1.2667580    -0.1558870
  H       -3.0779750     1.6466050     0.8045020
  H       -3.2021150     0.3028650    -0.3462110
  H       -3.0499870     1.9754900    -0.9185970
--
0 1
  N        4.2006530     1.1175110    -0.1194730
  H        4.6906820     0.2415530    -0.2374120
  C        5.0042790     2.2603550     0.0310080
  O        6.2198410     2.1647330     0.0158230
  C        4.2316870     3.4756720     0.1941520
  H        4.7534500     4.4088650     0.3171870
  C        2.8825260     3.4139960     0.1884750
  H        2.2621220     4.2903570     0.3061520
  N        2.1974440     2.2417150     0.0339100
  H        1.1646530     2.2326540     0.0330720
  C        2.8283340     1.0372450    -0.1283500
  O        2.2311450    -0.0266710    -0.2701580
units angstrom
no_reorient
symmetry c1
}

set {
scf_type DF
mp2_type DF
e_convergence 7
reference rhf
}

energy('mp2/aug-cc-pv[tq]z', bsse_type='cp')
--------------------------------------------------------------------------

    Molecular point group: c1
  Charge       = 0
  Multiplicity = 1
  Basis Set: AUG-CC-PVTZ
    Blend: AUG-CC-PVTZ
  Basis Set: (AUG-CC-PVTZ AUX)
    Blend: AUG-CC-PVTZ-JKFIT
  @DF-RHF Final Energy:  -412.62223435669904
    Total Energy =                       -412.6222343566990389
  Basis Set: (AUG-CC-PVTZ AUX)
    Blend: AUG-CC-PVTZ-RI
	 Reference Energy          =    -412.6222343566990389 [Eh]
	 Singles Energy            =      -0.0000000000000000 [Eh]
	 Same-Spin Energy          =      -0.4145283723550748 [Eh]
	 Opposite-Spin Energy      =      -1.2271615319855753 [Eh]
	 Correlation Energy        =      -1.6416899043406501 [Eh]
	 Total Energy              =    -414.2639242610396764 [Eh]
	 SCS Total Energy          =    -414.2330043192000630 [Eh]
    Molecular point group: c1
  Basis Set: AUG-CC-PVQZ
    Blend: AUG-CC-PVQZ
  Basis Set: (AUG-CC-PVQZ AUX)
    Blend: AUG-CC-PVQZ-JKFIT
  @DF-RHF Final Energy:  -412.64770493255764
    Total Energy =                       -412.6477049325576445
  Basis Set: (AUG-CC-PVQZ AUX)
  @DF-RHF Final Energy:  -412.62245987110828
    Total Energy =                       -412.6224598711082763
  @DF-RHF Final Energy:  -412.64775139817431
    Total Energy =                       -412.6477513981743073
  @DF-RHF Final Energy:  -208.06146036590010
    Total Energy =                       -208.0614603659001034
  @DF-RHF Final Energy:  -208.07442301917590
    Total Energy =                       -208.0744230191758959
  @DF-RHF Final Energy:  -208.06123710394056
    Total Energy =                       -208.0612371039405559
  @DF-RHF Final Energy:  -208.07436841303658
    Total Energy =                       -208.0743684130365807
  Multiplicity = 1
  @DF-RHF Final Energy:  -620.70827617351654
    Total Energy =                       -620.7082761735165377
	 Singles Energy            =      -0.0000000000000000 [Eh]
	 Same-Spin Energy          =      -0.6242633593334239 [Eh]
	 Opposite-Spin Energy      =      -1.8894262521444936 [Eh]
	 Correlation Energy        =      -2.5136896114779175 [Eh]
	 Total Energy              =    -623.2219657849944952 [Eh]
	 SCS Total Energy          =    -623.1836754625344383 [Eh]
    Molecular point group: c1

    Geometry (in Angstrom), charge = 0, multiplicity = 1:

       Center              X                  Y                   Z               Mass
    ------------   -----------------  -----------------  -----------------  -----------------
         C           -3.223845510906    -0.445360052674    -0.081958571438    12.000000000000
         O           -2.562395510906     0.585016947326     0.085282428562    15.994914619570
         N           -2.661699510906    -1.653110052674    -0.254615571438    14.003074004430
         H           -1.647271510906    -1.747559052674    -0.248661571438     1.007825032230
         H           -3.235332510906    -2.463323052674    -0.387017571438     1.007825032230
         C           -4.729363510906    -0.390241052674    -0.096221571438    12.000000000000
         H           -5.069093510906    -0.010394052674     0.864167428562     1.007825032230
         H           -5.193233510906    -1.354134052674    -0.286545571438     1.007825032230
         H           -5.041105510906     0.318490947326    -0.858931571438     1.007825032230
         N            2.209534489094    -0.539488052674    -0.059807571438    14.003074004430
         H            2.699563489094    -1.415446052674    -0.177746571438     1.007825032230
         C            3.013160489094     0.603355947326     0.090673428562    12.000000000000
         O            4.228722489094     0.507733947326     0.075488428562    15.994914619570
         C            2.240568489094     1.818672947326     0.253817428562    12.000000000000
         H            2.762331489094     2.751865947326     0.376852428562     1.007825032230
         C            0.891407489094     1.756996947326     0.248140428562    12.000000000000
         H            0.271003489094     2.633357947326     0.365817428562     1.007825032230
         N            0.206325489094     0.584715947326     0.093575428562    14.003074004430
         H           -0.826465510906     0.575654947326     0.092737428562     1.007825032230
         C            0.837215489094    -0.619754052674    -0.068684571438    12.000000000000
         O            0.240026489094    -1.683670052674    -0.210492571438    15.994914619570

  Charge       = 0
  Multiplicity = 1
  Basis Set: AUG-CC-PVQZ
    Blend: AUG-CC-PVQZ
  Basis Set: (AUG-CC-PVQZ AUX)
    Blend: AUG-CC-PVQZ-JKFIT

    Orbital Energies [Eh]
    ---------------------

    Doubly Occupied:

       1A    -20.540702     2A    -20.534275     3A    -20.528696
       4A    -15.617969     5A    -15.614737     6A    -15.588840
       7A    -11.411189     8A    -11.371778     9A    -11.369326
      10A    -11.323191    11A    -11.248183    12A    -11.239468
      13A     -1.428132    14A     -1.396224    15A     -1.387613
      16A     -1.299271    17A     -1.233653    18A     -1.225699
      19A     -1.073508    20A     -1.019591    21A     -0.920565
      22A     -0.890559    23A     -0.814599    24A     -0.792112
      25A     -0.755410    26A     -0.738532    27A     -0.708829
      28A     -0.685888    29A     -0.665045    30A     -0.659191
      31A     -0.642166    32A     -0.631170    33A     -0.605337
      34A     -0.596917    35A     -0.588814    36A     -0.573694
      37A     -0.561368    38A     -0.539948    39A     -0.511239
      40A     -0.483720    41A     -0.448472    42A     -0.439690
      43A     -0.433886    44A     -0.429319    45A     -0.354338

  @DF-RHF Final Energy:  -620.74664940612627

   => Energetics <=

    Nuclear Repulsion Energy =            682.2244844802240777
    One-Electron Energy =               -2202.0965614490019107
    Two-Electron Energy =                 899.1254275626516801
    Total Energy =                       -620.7466494061262665

  Dipole Moment: [D]
     X:    -6.2344      Y:    -0.4628      Z:    -0.1504     Total:     6.2534

  Basis Set: (AUG-CC-PVQZ AUX)
    Blend: AUG-CC-PVQZ-RI
	 Reference Energy          =    -620.7466494061262665 [Eh]
	 Singles Energy            =      -0.0000000000000000 [Eh]
	 Same-Spin Energy          =      -0.6616955652003964 [Eh]
	 Opposite-Spin Energy      =      -2.1321325233822486 [Eh]
	 Correlation Energy        =      -2.7938280885826448 [Eh]
	 Total Energy              =    -623.5404774947089663 [Eh]

	 ================> DF-SCS-MP2 Energies <==================
	-----------------------------------------------------------
	 SCS Same-Spin Scale       =       0.3333333333333333 [-]
	 SCS Opposite-Spin Scale   =       1.2000000000000000 [-]
	 SCS Same-Spin Energy      =      -0.2205651884001321 [Eh]
	 SCS Opposite-Spin Energy  =      -2.5585590280586983 [Eh]
	 SCS Correlation Energy    =      -2.7791242164588303 [Eh]
	 SCS Total Energy          =    -623.5257736225851204 [Eh]
	-----------------------------------------------------------

*** Psi4 exiting successfully. Buy a developer a beer!
