                               Psi4 1.4a2.dev224

  ==> Input File <==

--------------------------------------------------------------------------
#Generated by lconvert.py for cbs job

memory 20 GB

molecule  {
0 1
  C      -1.232730    1.211640   -0.141620
  O      -0.571280    2.242020    0.025620
  N      -0.670580    0.003890   -0.314280
  H       0.343850   -0.090560   -0.308330
  H      -1.244210   -0.806320   -0.446680
  C      -2.738250    1.266760   -0.155890
  H      -3.077970    1.646610    0.804500
  H      -3.202120    0.302860   -0.346210
  H      -3.049990    1.975490   -0.918600
--
0 1
  N       4.721540    1.118250   -0.115800
  H       5.211570    0.242300   -0.233730
  C       5.525170    2.261100    0.034690
  O       6.740730    2.165470    0.019500
  C       4.752580    3.476410    0.197830
  H       5.274340    4.409610    0.320870
  C       3.403410    3.414740    0.192150
  H       2.783010    4.291100    0.309830
  N       2.718330    2.242460    0.037590
  H       1.685540    2.233400    0.036750
  C       3.349220    1.037990   -0.124670
  O       2.752030   -0.025930   -0.266480
units angstrom
no_reorient
symmetry c1
}

set {
scf_type DF
mp2_type DF
e_convergence 7
reference rhf
}

energy('mp2/aug-cc-pv[tq]z', bsse_type='cp')
--------------------------------------------------------------------------

    Molecular point group: c1
  Charge       = 0
  Multiplicity = 1
  Basis Set: AUG-CC-PVTZ
    Blend: AUG-CC-PVTZ
  Basis Set: (AUG-CC-PVTZ AUX)
    Blend: AUG-CC-PVTZ-JKFIT
  @DF-RHF Final Energy:  -412.62223346438202
    Total Energy =                       -412.6222334643820204
  Basis Set: (AUG-CC-PVTZ AUX)
    Blend: AUG-CC-PVTZ-RI
	 Reference Energy          =    -412.6222334643820204 [Eh]
	 Singles Energy            =      -0.0000000000000000 [Eh]
	 Same-Spin Energy          =      -0.4145285489924163 [Eh]
	 Opposite-Spin Energy      =      -1.2271618893399321 [Eh]
	 Correlation Energy        =      -1.6416904383323483 [Eh]
	 Total Energy              =    -414.2639239027143958 [Eh]
	 SCS Total Energy          =    -414.2330039145874139 [Eh]
    Molecular point group: c1
  Basis Set: AUG-CC-PVQZ
    Blend: AUG-CC-PVQZ
  Basis Set: (AUG-CC-PVQZ AUX)
    Blend: AUG-CC-PVQZ-JKFIT
  @DF-RHF Final Energy:  -412.64770402324280
    Total Energy =                       -412.6477040232427953
  Basis Set: (AUG-CC-PVQZ AUX)
  @DF-RHF Final Energy:  -412.62237452018377
    Total Energy =                       -412.6223745201837687
  @DF-RHF Final Energy:  -412.64773414971722
    Total Energy =                       -412.6477341497172233
  @DF-RHF Final Energy:  -208.06135990322201
    Total Energy =                       -208.0613599032220122
  @DF-RHF Final Energy:  -208.07440354024922
    Total Energy =                       -208.0744035402492216
  @DF-RHF Final Energy:  -208.06123681597990
    Total Energy =                       -208.0612368159798962
  @DF-RHF Final Energy:  -208.07436810972624
    Total Energy =                       -208.0743681097262368
  Multiplicity = 1
  @DF-RHF Final Energy:  -620.70413187629651
    Total Energy =                       -620.7041318762965147
	 Singles Energy            =      -0.0000000000000000 [Eh]
	 Same-Spin Energy          =      -0.6213221385407321 [Eh]
	 Opposite-Spin Energy      =      -1.8864198268785832 [Eh]
	 Correlation Energy        =      -2.5077419654193154 [Eh]
	 Total Energy              =    -623.2118738417158283 [Eh]
	 SCS Total Energy          =    -623.1749430480643923 [Eh]
    Molecular point group: c1

    Geometry (in Angstrom), charge = 0, multiplicity = 1:

       Center              X                  Y                   Z               Mass
    ------------   -----------------  -----------------  -----------------  -----------------
         C           -3.564968536648    -0.445845462414    -0.084363566941    12.000000000000
         O           -2.903518536648     0.584534537586     0.082876433059    15.994914619570
         N           -3.002818536648    -1.653595462414    -0.257023566941    14.003074004430
         H           -1.988388536648    -1.748045462414    -0.251073566941     1.007825032230
         H           -3.576448536648    -2.463805462414    -0.389423566941     1.007825032230
         C           -5.070488536648    -0.390725462414    -0.098633566941    12.000000000000
         H           -5.410208536648    -0.010875462414     0.861756433059     1.007825032230
         H           -5.534358536648    -1.354625462414    -0.288953566941     1.007825032230
         H           -5.382228536648     0.318004537586    -0.861343566941     1.007825032230
         N            2.389301463352    -0.539235462414    -0.058543566941    14.003074004430
         H            2.879331463352    -1.415185462414    -0.176473566941     1.007825032230
         C            3.192931463352     0.603614537586     0.091946433059    12.000000000000
         O            4.408491463352     0.507984537586     0.076756433059    15.994914619570
         C            2.420341463352     1.818924537586     0.255086433059    12.000000000000
         H            2.942101463352     2.752124537586     0.378126433059     1.007825032230
         C            1.071171463352     1.757254537586     0.249406433059    12.000000000000
         H            0.450771463352     2.633614537586     0.367086433059     1.007825032230
         N            0.386091463352     0.584974537586     0.094846433059    14.003074004430
         H           -0.646698536648     0.575914537586     0.094006433059     1.007825032230
         C            1.016981463352    -0.619495462414    -0.067413566941    12.000000000000
         O            0.419791463352    -1.683415462414    -0.209223566941    15.994914619570

  Charge       = 0
  Multiplicity = 1
  Basis Set: AUG-CC-PVQZ
    Blend: AUG-CC-PVQZ
  Basis Set: (AUG-CC-PVQZ AUX)
    Blend: AUG-CC-PVQZ-JKFIT

    Orbital Energies [Eh]
    ---------------------

    Doubly Occupied:

       1A    -20.539161     2A    -20.532129     3A    -20.526975
       4A    -15.630280     5A    -15.619922     6A    -15.594576
       7A    -11.412276     8A    -11.372559     9A    -11.366361
      10A    -11.329163    11A    -11.245863    12A    -11.244783
      13A     -1.427275    14A     -1.389726    15A     -1.385602
      16A     -1.303559    17A     -1.237659    18A     -1.225983
      19A     -1.078530    20A     -1.016488    21A     -0.926197
      22A     -0.892327    23A     -0.812755    24A     -0.794420
      25A     -0.758011    26A     -0.736860    27A     -0.705305
      28A     -0.680886    29A     -0.667978    30A     -0.662376
      31A     -0.645874    32A     -0.627367    33A     -0.605563
      34A     -0.595721    35A     -0.592306    36A     -0.573451
      37A     -0.563783    38A     -0.535783    39A     -0.515618
      40A     -0.480559    41A     -0.444385    42A     -0.439994
      43A     -0.432743    44A     -0.426913    45A     -0.360003

  @DF-RHF Final Energy:  -620.74256724641282

   => Energetics <=

    Nuclear Repulsion Energy =            661.7613836992813958
    One-Electron Energy =               -2161.0958057395091600
    Two-Electron Energy =                 878.5918547938149459
    Total Energy =                       -620.7425672464128183

  Dipole Moment: [D]
     X:    -5.9283      Y:    -0.3555      Z:    -0.1365     Total:     5.9405

  Basis Set: (AUG-CC-PVQZ AUX)
    Blend: AUG-CC-PVQZ-RI
	 Reference Energy          =    -620.7425672464128183 [Eh]
	 Singles Energy            =      -0.0000000000000000 [Eh]
	 Same-Spin Energy          =      -0.6587686534237555 [Eh]
	 Opposite-Spin Energy      =      -2.1300972339555537 [Eh]
	 Correlation Energy        =      -2.7888658873793091 [Eh]
	 Total Energy              =    -623.5314331337921203 [Eh]

	 ================> DF-SCS-MP2 Energies <==================
	-----------------------------------------------------------
	 SCS Same-Spin Scale       =       0.3333333333333333 [-]
	 SCS Opposite-Spin Scale   =       1.2000000000000000 [-]
	 SCS Same-Spin Energy      =      -0.2195895511412518 [Eh]
	 SCS Opposite-Spin Energy  =      -2.5561166807466642 [Eh]
	 SCS Correlation Energy    =      -2.7757062318879160 [Eh]
	 SCS Total Energy          =    -623.5182734783007845 [Eh]
	-----------------------------------------------------------

*** Psi4 exiting successfully. Buy a developer a beer!
