                               Psi4 1.4a2.dev224

  ==> Input File <==

--------------------------------------------------------------------------
#Generated by lconvert.py for cbs job

memory 40 GB

molecule  {
0 1
  C       -1.2327270     1.2116390    -0.1416240
  O       -0.5712770     2.2420160     0.0256170
  N       -0.6705810     0.0038890    -0.3142810
  H        0.3438470    -0.0905600    -0.3083270
  H       -1.2442140    -0.8063240    -0.4466830
  C       -2.7382450     1.2667580    -0.1558870
  H       -3.0779750     1.6466050     0.8045020
  H       -3.2021150     0.3028650    -0.3462110
  H       -3.0499870     1.9754900    -0.9185970
--
0 1
  N        4.1139490     1.1162060    -0.1205650
  H        4.6039780     0.2402480    -0.2385040
  C        4.9175750     2.2590510     0.0299160
  O        6.1331370     2.1634280     0.0147320
  C        4.1449820     3.4743670     0.1930600
  H        4.6667450     4.4075600     0.3160960
  C        2.7958220     3.4126920     0.1873840
  H        2.1754180     4.2890520     0.3050610
  N        2.1107400     2.2404100     0.0328180
  H        1.0779490     2.2313490     0.0319810
  C        2.7416300     1.0359410    -0.1294420
  O        2.1444410    -0.0279750    -0.2712500
units angstrom
no_reorient
symmetry c1
}

set {
scf_type DF
mp2_type DF
e_convergence 7
reference rhf
}

energy('mp2/aug-cc-pv[tq]z', bsse_type='cp')
--------------------------------------------------------------------------

    Molecular point group: c1
  Charge       = 0
  Multiplicity = 1
  Basis Set: AUG-CC-PVTZ
    Blend: AUG-CC-PVTZ
  Basis Set: (AUG-CC-PVTZ AUX)
    Blend: AUG-CC-PVTZ-JKFIT
  @DF-RHF Final Energy:  -412.62223438365805
    Total Energy =                       -412.6222343836580535
  Basis Set: (AUG-CC-PVTZ AUX)
    Blend: AUG-CC-PVTZ-RI
	 Reference Energy          =    -412.6222343836580535 [Eh]
	 Singles Energy            =      -0.0000000000000000 [Eh]
	 Same-Spin Energy          =      -0.4145283561957652 [Eh]
	 Opposite-Spin Energy      =      -1.2271615084307834 [Eh]
	 Correlation Energy        =      -1.6416898646265485 [Eh]
	 Total Energy              =    -414.2639242482845816 [Eh]
	 SCS Total Energy          =    -414.2330043125069210 [Eh]
    Molecular point group: c1
  Basis Set: AUG-CC-PVQZ
    Blend: AUG-CC-PVQZ
  Basis Set: (AUG-CC-PVQZ AUX)
    Blend: AUG-CC-PVQZ-JKFIT
  @DF-RHF Final Energy:  -412.64770496796223
    Total Energy =                       -412.6477049679622269
  Basis Set: (AUG-CC-PVQZ AUX)
  @DF-RHF Final Energy:  -412.62248606763950
    Total Energy =                       -412.6224860676394997
  @DF-RHF Final Energy:  -412.64775593230962
    Total Energy =                       -412.6477559323096216
  @DF-RHF Final Energy:  -208.06148378436865
    Total Energy =                       -208.0614837843686473
  @DF-RHF Final Energy:  -208.07442794240725
    Total Energy =                       -208.0744279424072545
  @DF-RHF Final Energy:  -208.06123710372083
    Total Energy =                       -208.0612371037208277
  @DF-RHF Final Energy:  -208.07436841302797
    Total Energy =                       -208.0743684130279689
  Multiplicity = 1
  @DF-RHF Final Energy:  -620.70678618380089
    Total Energy =                       -620.7067861838008866
	 Singles Energy            =      -0.0000000000000000 [Eh]
	 Same-Spin Energy          =      -0.6250769085594780 [Eh]
	 Opposite-Spin Energy      =      -1.8900683739152109 [Eh]
	 Correlation Energy        =      -2.5151452824746889 [Eh]
	 Total Energy              =    -623.2219314662755778 [Eh]
	 SCS Total Energy          =    -623.1832272020189976 [Eh]
    Molecular point group: c1

    Geometry (in Angstrom), charge = 0, multiplicity = 1:

       Center              X                  Y                   Z               Mass
    ------------   -----------------  -----------------  -----------------  -----------------
         C           -3.167064400591    -0.444505733426    -0.081243619789    12.000000000000
         O           -2.505614400591     0.585871266574     0.085997380211    15.994914619570
         N           -2.604918400591    -1.652255733426    -0.253900619789    14.003074004430
         H           -1.590490400591    -1.746704733426    -0.247946619789     1.007825032230
         H           -3.178551400591    -2.462468733426    -0.386302619789     1.007825032230
         C           -4.672582400591    -0.389386733426    -0.095506619789    12.000000000000
         H           -5.012312400591    -0.009539733426     0.864882380211     1.007825032230
         H           -5.136452400591    -1.353279733426    -0.285830619789     1.007825032230
         H           -4.984324400591     0.319345266574    -0.858216619789     1.007825032230
         N            2.179611599409    -0.539938733426    -0.060184619789    14.003074004430
         H            2.669640599409    -1.415896733426    -0.178123619789     1.007825032230
         C            2.983237599409     0.602906266574     0.090296380211    12.000000000000
         O            4.198799599409     0.507283266574     0.075112380211    15.994914619570
         C            2.210644599409     1.818222266574     0.253440380211    12.000000000000
         H            2.732407599409     2.751415266574     0.376476380211     1.007825032230
         C            0.861484599409     1.756547266574     0.247764380211    12.000000000000
         H            0.241080599409     2.632907266574     0.365441380211     1.007825032230
         N            0.176402599409     0.584265266574     0.093198380211    14.003074004430
         H           -0.856388400591     0.575204266574     0.092361380211     1.007825032230
         C            0.807292599409    -0.620203733426    -0.069061619789    12.000000000000
         O            0.210103599409    -1.684119733426    -0.210869619789    15.994914619570

  Charge       = 0
  Multiplicity = 1
  Basis Set: AUG-CC-PVQZ
    Blend: AUG-CC-PVQZ
  Basis Set: (AUG-CC-PVQZ AUX)
    Blend: AUG-CC-PVQZ-JKFIT

    Orbital Energies [Eh]
    ---------------------

    Doubly Occupied:

       1A    -20.541050     2A    -20.535844     3A    -20.527866
       4A    -15.617510     5A    -15.610382     6A    -15.587006
       7A    -11.410932     8A    -11.373005     9A    -11.368547
      10A    -11.321730    11A    -11.248677    12A    -11.238200
      13A     -1.428736    14A     -1.399150    15A     -1.387171
      16A     -1.298352    17A     -1.232682    18A     -1.225545
      19A     -1.072337    20A     -1.020394    21A     -0.919219
      22A     -0.890603    23A     -0.815388    24A     -0.792649
      25A     -0.755499    26A     -0.739322    27A     -0.710936
      28A     -0.685665    29A     -0.664670    30A     -0.658546
      31A     -0.640641    32A     -0.632092    33A     -0.606186
      34A     -0.596219    35A     -0.587909    36A     -0.573308
      37A     -0.560978    38A     -0.541028    39A     -0.510136
      40A     -0.484478    41A     -0.449030    42A     -0.439092
      43A     -0.434412    44A     -0.429506    45A     -0.352913

  @DF-RHF Final Energy:  -620.74511686293192

   => Energetics <=

    Nuclear Repulsion Energy =            686.1243112992597162
    One-Electron Energy =               -2209.9077606200044102
    Two-Electron Energy =                 903.0383324578127713
    Total Energy =                       -620.7451168629319227

  Dipole Moment: [D]
     X:    -6.3077      Y:    -0.4906      Z:    -0.1538     Total:     6.3286

  Basis Set: (AUG-CC-PVQZ AUX)
    Blend: AUG-CC-PVQZ-RI
	 Reference Energy          =    -620.7451168629319227 [Eh]
	 Singles Energy            =      -0.0000000000000000 [Eh]
	 Same-Spin Energy          =      -0.6625209109965056 [Eh]
	 Opposite-Spin Energy      =      -2.1327268890311091 [Eh]
	 Correlation Energy        =      -2.7952478000276146 [Eh]
	 Total Energy              =    -623.5403646629595187 [Eh]

	 ================> DF-SCS-MP2 Energies <==================
	-----------------------------------------------------------
	 SCS Same-Spin Scale       =       0.3333333333333333 [-]
	 SCS Opposite-Spin Scale   =       1.2000000000000000 [-]
	 SCS Same-Spin Energy      =      -0.2208403036655018 [Eh]
	 SCS Opposite-Spin Energy  =      -2.5592722668373309 [Eh]
	 SCS Correlation Energy    =      -2.7801125705028329 [Eh]
	 SCS Total Energy          =    -623.5252294334347880 [Eh]
	-----------------------------------------------------------

*** Psi4 exiting successfully. Buy a developer a beer!
