                               Psi4 1.4a2.dev224

  ==> Input File <==

--------------------------------------------------------------------------
#Generated by lconvert.py for cbs job

memory 20 GB

molecule  {
0 1
  C      -1.232730    1.211640   -0.141620
  O      -0.571280    2.242020    0.025620
  N      -0.670580    0.003890   -0.314280
  H       0.343850   -0.090560   -0.308330
  H      -1.244210   -0.806320   -0.446680
  C      -2.738250    1.266760   -0.155890
  H      -3.077970    1.646610    0.804500
  H      -3.202120    0.302860   -0.346210
  H      -3.049990    1.975490   -0.918600
--
0 1
  N       5.763100    1.112640   -0.111330
  H       6.253130    0.236680   -0.229260
  C       6.566720    2.255480    0.039160
  O       7.782290    2.159860    0.023970
  C       5.794130    3.470800    0.202300
  H       6.315900    4.403990    0.325330
  C       4.444970    3.409120    0.196620
  H       3.824570    4.285480    0.314300
  N       3.759890    2.236840    0.042060
  H       2.727100    2.227780    0.041220
  C       4.390780    1.032370   -0.120200
  O       3.793590   -0.031540   -0.262010
units angstrom
no_reorient
symmetry c1
}

set {
scf_type DF
mp2_type DF
e_convergence 7
reference rhf
}

energy('mp2/aug-cc-pv[tq]z', bsse_type='cp')
--------------------------------------------------------------------------

    Molecular point group: c1
  Charge       = 0
  Multiplicity = 1
  Basis Set: AUG-CC-PVTZ
    Blend: AUG-CC-PVTZ
  Basis Set: (AUG-CC-PVTZ AUX)
    Blend: AUG-CC-PVTZ-JKFIT
  @DF-RHF Final Energy:  -412.62223446141081
    Total Energy =                       -412.6222344614108124
  Basis Set: (AUG-CC-PVTZ AUX)
    Blend: AUG-CC-PVTZ-RI
	 Reference Energy          =    -412.6222344614108124 [Eh]
	 Singles Energy            =      -0.0000000000000000 [Eh]
	 Same-Spin Energy          =      -0.4145284482193297 [Eh]
	 Opposite-Spin Energy      =      -1.2271615974548682 [Eh]
	 Correlation Energy        =      -1.6416900456741979 [Eh]
	 Total Energy              =    -414.2639245070849938 [Eh]
	 SCS Total Energy          =    -414.2330045277631143 [Eh]
    Molecular point group: c1
  Basis Set: AUG-CC-PVQZ
    Blend: AUG-CC-PVQZ
  Basis Set: (AUG-CC-PVQZ AUX)
    Blend: AUG-CC-PVQZ-JKFIT
  @DF-RHF Final Energy:  -412.64770502950807
    Total Energy =                       -412.6477050295080744
  Basis Set: (AUG-CC-PVQZ AUX)
  @DF-RHF Final Energy:  -412.62227610795213
    Total Energy =                       -412.6222761079521320
  @DF-RHF Final Energy:  -412.64771471039671
    Total Energy =                       -412.6477147103967127
  @DF-RHF Final Energy:  -208.06126914205356
    Total Energy =                       -208.0612691420535612
  @DF-RHF Final Energy:  -208.07438096112412
    Total Energy =                       -208.0743809611241204
  @DF-RHF Final Energy:  -208.06123681642816
    Total Energy =                       -208.0612368164281634
  @DF-RHF Final Energy:  -208.07436811006593
    Total Energy =                       -208.0743681100659330
  Multiplicity = 1
  @DF-RHF Final Energy:  -620.69228828531016
    Total Energy =                       -620.6922882853101555
	 Singles Energy            =      -0.0000000000000000 [Eh]
	 Same-Spin Energy          =      -0.6196830258808415 [Eh]
	 Opposite-Spin Energy      =      -1.8839633050090254 [Eh]
	 Correlation Energy        =      -2.5036463308898669 [Eh]
	 Total Energy              =    -623.1959346162000202 [Eh]
	 SCS Total Energy          =    -623.1596052599479663 [Eh]
    Molecular point group: c1

    Geometry (in Angstrom), charge = 0, multiplicity = 1:

       Center              X                  Y                   Z               Mass
    ------------   -----------------  -----------------  -----------------  -----------------
         C           -4.247067775607    -0.442168406275    -0.087290838059    12.000000000000
         O           -3.585617775607     0.588211593725     0.079949161941    15.994914619570
         N           -3.684917775607    -1.649918406275    -0.259950838059    14.003074004430
         H           -2.670487775607    -1.744368406275    -0.254000838059     1.007825032230
         H           -4.258547775607    -2.460128406275    -0.392350838059     1.007825032230
         C           -5.752587775607    -0.387048406275    -0.101560838059    12.000000000000
         H           -6.092307775607    -0.007198406275     0.858829161941     1.007825032230
         H           -6.216457775607    -1.350948406275    -0.291880838059     1.007825032230
         H           -6.064327775607     0.321681593725    -0.864270838059     1.007825032230
         N            2.748762224393    -0.541168406275    -0.057000838059    14.003074004430
         H            3.238792224393    -1.417128406275    -0.174930838059     1.007825032230
         C            3.552382224393     0.601671593725     0.093489161941    12.000000000000
         O            4.767952224393     0.506051593725     0.078299161941    15.994914619570
         C            2.779792224393     1.816991593725     0.256629161941    12.000000000000
         H            3.301562224393     2.750181593725     0.379659161941     1.007825032230
         C            1.430632224393     1.755311593725     0.250949161941    12.000000000000
         H            0.810232224393     2.631671593725     0.368629161941     1.007825032230
         N            0.745552224393     0.583031593725     0.096389161941    14.003074004430
         H           -0.287237775607     0.573971593725     0.095549161941     1.007825032230
         C            1.376442224393    -0.621438406275    -0.065870838059    12.000000000000
         O            0.779252224393    -1.685348406275    -0.207680838059    15.994914619570

  Charge       = 0
  Multiplicity = 1
  Basis Set: AUG-CC-PVQZ
    Blend: AUG-CC-PVQZ
  Basis Set: (AUG-CC-PVQZ AUX)
    Blend: AUG-CC-PVQZ-JKFIT

    Orbital Energies [Eh]
    ---------------------

    Doubly Occupied:

       1A    -20.537856     2A    -20.535226     3A    -20.518890
       4A    -15.640226     5A    -15.621749     6A    -15.596451
       7A    -11.413336     8A    -11.375516     9A    -11.360672
      10A    -11.334456    11A    -11.249656    12A    -11.242950
      13A     -1.427976    14A     -1.391768    15A     -1.377410
      16A     -1.307598    17A     -1.241055    18A     -1.225075
      19A     -1.083169    20A     -1.013332    21A     -0.931166
      22A     -0.895545    23A     -0.811449    24A     -0.799652
      25A     -0.762045    26A     -0.736880    27A     -0.708660
      28A     -0.672965    29A     -0.671604    30A     -0.665567
      31A     -0.646446    32A     -0.623476    33A     -0.609431
      34A     -0.596781    35A     -0.588304    36A     -0.571305
      37A     -0.566628    38A     -0.531894    39A     -0.519229
      40A     -0.478977    41A     -0.445117    42A     -0.432853
      43A     -0.432455    44A     -0.422600    45A     -0.364714

  @DF-RHF Final Energy:  -620.73081998367002

   => Energetics <=

    Nuclear Repulsion Energy =            631.4549807323595587
    One-Electron Energy =               -2100.4113866049101489
    Two-Electron Energy =                 848.2255858888804596
    Total Energy =                       -620.7308199836700169

  Dipole Moment: [D]
     X:    -5.6540      Y:    -0.2779      Z:    -0.1251     Total:     5.6622

  Basis Set: (AUG-CC-PVQZ AUX)
    Blend: AUG-CC-PVQZ-RI
	 Reference Energy          =    -620.7308199836700169 [Eh]
	 Singles Energy            =      -0.0000000000000000 [Eh]
	 Same-Spin Energy          =      -0.6572368548480033 [Eh]
	 Opposite-Spin Energy      =      -2.1290753706199248 [Eh]
	 Correlation Energy        =      -2.7863122254679280 [Eh]
	 Total Energy              =    -623.5171322091379125 [Eh]

	 ================> DF-SCS-MP2 Energies <==================
	-----------------------------------------------------------
	 SCS Same-Spin Scale       =       0.3333333333333333 [-]
	 SCS Opposite-Spin Scale   =       1.2000000000000000 [-]
	 SCS Same-Spin Energy      =      -0.2190789516160011 [Eh]
	 SCS Opposite-Spin Energy  =      -2.5548904447439096 [Eh]
	 SCS Correlation Energy    =      -2.7739693963599108 [Eh]
	 SCS Total Energy          =    -623.5047893800299335 [Eh]
	-----------------------------------------------------------

*** Psi4 exiting successfully. Buy a developer a beer!
