                               Psi4 1.4a2.dev224

  ==> Input File <==

--------------------------------------------------------------------------
#Generated by lconvert.py for cbs job

memory 40 GB

molecule  {
0 1
  C       -1.2327270     1.2116390    -0.1416240
  O       -0.5712770     2.2420160     0.0256170
  N       -0.6705810     0.0038890    -0.3142810
  H        0.3438470    -0.0905600    -0.3083270
  H       -1.2442140    -0.8063240    -0.4466830
  C       -2.7382450     1.2667580    -0.1558870
  H       -3.0779750     1.6466050     0.8045020
  H       -3.2021150     0.3028650    -0.3462110
  H       -3.0499870     1.9754900    -0.9185970
--
0 1
  N        4.2875550     1.1188180    -0.1183790
  H        4.7775840     0.2428610    -0.2363180
  C        5.0911810     2.2616630     0.0321030
  O        6.3067430     2.1660410     0.0169180
  C        4.3185880     3.4769800     0.1952460
  H        4.8403510     4.4101730     0.3182820
  C        2.9694280     3.4153040     0.1895700
  H        2.3490240     4.2916650     0.3072470
  N        2.2843460     2.2430230     0.0350040
  H        1.2515550     2.2339620     0.0341670
  C        2.9152360     1.0385530    -0.1272560
  O        2.3180470    -0.0253630    -0.2690640
units angstrom
no_reorient
symmetry c1
}

set {
scf_type DF
mp2_type DF
e_convergence 7
reference rhf
}

energy('mp2/aug-cc-pv[tq]z', bsse_type='cp')
--------------------------------------------------------------------------

    Molecular point group: c1
  Charge       = 0
  Multiplicity = 1
  Basis Set: AUG-CC-PVTZ
    Blend: AUG-CC-PVTZ
  Basis Set: (AUG-CC-PVTZ AUX)
    Blend: AUG-CC-PVTZ-JKFIT
  @DF-RHF Final Energy:  -412.62223440636660
    Total Energy =                       -412.6222344063666014
  Basis Set: (AUG-CC-PVTZ AUX)
    Blend: AUG-CC-PVTZ-RI
	 Reference Energy          =    -412.6222344063666014 [Eh]
	 Singles Energy            =      -0.0000000000000000 [Eh]
	 Same-Spin Energy          =      -0.4145283478115678 [Eh]
	 Opposite-Spin Energy      =      -1.2271615003035647 [Eh]
	 Correlation Energy        =      -1.6416898481151325 [Eh]
	 Total Energy              =    -414.2639242544817080 [Eh]
	 SCS Total Energy          =    -414.2330043226680800 [Eh]
    Molecular point group: c1
  Basis Set: AUG-CC-PVQZ
    Blend: AUG-CC-PVQZ
  Basis Set: (AUG-CC-PVQZ AUX)
    Blend: AUG-CC-PVQZ-JKFIT
  @DF-RHF Final Energy:  -412.64770498041935
    Total Energy =                       -412.6477049804193484
  Basis Set: (AUG-CC-PVQZ AUX)
  @DF-RHF Final Energy:  -412.62243719586843
    Total Energy =                       -412.6224371958684287
  @DF-RHF Final Energy:  -412.64774781883557
    Total Energy =                       -412.6477478188355690
  @DF-RHF Final Energy:  -208.06143675211629
    Total Energy =                       -208.0614367521162933
  @DF-RHF Final Energy:  -208.07441839281216
    Total Energy =                       -208.0744183928121629
  @DF-RHF Final Energy:  -208.06123710371307
    Total Energy =                       -208.0612371037130686
  @DF-RHF Final Energy:  -208.07436841266826
    Total Energy =                       -208.0743684126682638
  Multiplicity = 1
  @DF-RHF Final Energy:  -620.70870321694360
    Total Energy =                       -620.7087032169436043
	 Singles Energy            =      -0.0000000000000000 [Eh]
	 Same-Spin Energy          =      -0.6235639375658417 [Eh]
	 Opposite-Spin Energy      =      -1.8888476672598984 [Eh]
	 Correlation Energy        =      -2.5124116048257399 [Eh]
	 Total Energy              =    -623.2211148217693335 [Eh]
	 SCS Total Energy          =    -623.1831750635108165 [Eh]
    Molecular point group: c1

    Geometry (in Angstrom), charge = 0, multiplicity = 1:

       Center              X                  Y                   Z               Mass
    ------------   -----------------  -----------------  -----------------  -----------------
         C           -3.280756136108    -0.446216558664    -0.082675265655    12.000000000000
         O           -2.619306136108     0.584160441336     0.084565734345    15.994914619570
         N           -2.718610136108    -1.653966558664    -0.255332265655    14.003074004430
         H           -1.704182136108    -1.748415558664    -0.249378265655     1.007825032230
         H           -3.292243136108    -2.464179558664    -0.387734265655     1.007825032230
         C           -4.786274136108    -0.391097558664    -0.096938265655    12.000000000000
         H           -5.126004136108    -0.011250558664     0.863450734345     1.007825032230
         H           -5.250144136108    -1.354990558664    -0.287262265655     1.007825032230
         H           -5.098016136108     0.317634441336    -0.859648265655     1.007825032230
         N            2.239525863892    -0.539037558664    -0.059430265655    14.003074004430
         H            2.729554863892    -1.414994558664    -0.177369265655     1.007825032230
         C            3.043151863892     0.603807441336     0.091051734345    12.000000000000
         O            4.258713863892     0.508185441336     0.075866734345    15.994914619570
         C            2.270558863892     1.819124441336     0.254194734345    12.000000000000
         H            2.792321863892     2.752317441336     0.377230734345     1.007825032230
         C            0.921398863892     1.757448441336     0.248518734345    12.000000000000
         H            0.300994863892     2.633809441336     0.366195734345     1.007825032230
         N            0.236316863892     0.585167441336     0.093952734345    14.003074004430
         H           -0.796474136108     0.576106441336     0.093115734345     1.007825032230
         C            0.867206863892    -0.619302558664    -0.068307265655    12.000000000000
         O            0.270017863892    -1.683218558664    -0.210115265655    15.994914619570

  Charge       = 0
  Multiplicity = 1
  Basis Set: AUG-CC-PVQZ
    Blend: AUG-CC-PVQZ
  Basis Set: (AUG-CC-PVQZ AUX)
    Blend: AUG-CC-PVQZ-JKFIT

    Orbital Energies [Eh]
    ---------------------

    Doubly Occupied:

       1A    -20.540383     2A    -20.532818     3A    -20.529437
       4A    -15.618446     5A    -15.618381     6A    -15.590338
       7A    -11.411420     8A    -11.370656     9A    -11.370022
      10A    -11.324489    11A    -11.247724    12A    -11.240606
      13A     -1.427745    14A     -1.393756    15A     -1.388013
      16A     -1.300138    17A     -1.234524    18A     -1.225807
      19A     -1.074569    20A     -1.018899    21A     -0.921774
      22A     -0.890696    23A     -0.814037    24A     -0.792057
      25A     -0.755624    26A     -0.737905    27A     -0.707189
      28A     -0.685667    29A     -0.665481    30A     -0.659815
      31A     -0.643346    32A     -0.630351    33A     -0.604750
      34A     -0.597342    35A     -0.589621    36A     -0.573872
      37A     -0.561788    38A     -0.539011    39A     -0.512210
      40A     -0.483015    41A     -0.447706    42A     -0.440150
      43A     -0.433487    44A     -0.429029    45A     -0.355593

  @DF-RHF Final Energy:  -620.74711021961593

   => Energetics <=

    Nuclear Repulsion Energy =            678.4713366318328553
    One-Electron Energy =               -2194.5775118701712927
    Two-Electron Energy =                 895.3590650187225037
    Total Energy =                       -620.7471102196159336

  Dipole Moment: [D]
     X:    -6.1686      Y:    -0.4386      Z:    -0.1475     Total:     6.1859

  Basis Set: (AUG-CC-PVQZ AUX)
    Blend: AUG-CC-PVQZ-RI
	 Reference Energy          =    -620.7471102196159336 [Eh]
	 Singles Energy            =      -0.0000000000000000 [Eh]
	 Same-Spin Energy          =      -0.6609882755273208 [Eh]
	 Opposite-Spin Energy      =      -2.1316315379911606 [Eh]
	 Correlation Energy        =      -2.7926198135184812 [Eh]
	 Total Energy              =    -623.5397300331344468 [Eh]

	 ================> DF-SCS-MP2 Energies <==================
	-----------------------------------------------------------
	 SCS Same-Spin Scale       =       0.3333333333333333 [-]
	 SCS Opposite-Spin Scale   =       1.2000000000000000 [-]
	 SCS Same-Spin Energy      =      -0.2203294251757736 [Eh]
	 SCS Opposite-Spin Energy  =      -2.5579578455893928 [Eh]
	 SCS Correlation Energy    =      -2.7782872707651665 [Eh]
	 SCS Total Energy          =    -623.5253974903811240 [Eh]
	-----------------------------------------------------------

*** Psi4 exiting successfully. Buy a developer a beer!
