                               Psi4 1.4a2.dev224

  ==> Input File <==

--------------------------------------------------------------------------
#Generated by lconvert.py for cbs job

memory 40 GB

molecule  {
0 1
  C       -1.2327270     1.2116390    -0.1416240
  O       -0.5712770     2.2420160     0.0256170
  N       -0.6705810     0.0038890    -0.3142810
  H        0.3438470    -0.0905600    -0.3083270
  H       -1.2442140    -0.8063240    -0.4466830
  C       -2.7382450     1.2667580    -0.1558870
  H       -3.0779750     1.6466050     0.8045020
  H       -3.2021150     0.3028650    -0.3462110
  H       -3.0499870     1.9754900    -0.9185970
--
0 1
  N        3.6798740     1.1203190    -0.1217100
  H        4.1699030     0.2443620    -0.2396490
  C        4.4835000     2.2631640     0.0287720
  O        5.6990620     2.1675420     0.0135870
  C        3.7109080     3.4784810     0.1919160
  H        4.2326710     4.4116730     0.3149510
  C        2.3617470     3.4168050     0.1862390
  H        1.7413430     4.2931650     0.3039160
  N        1.6766650     2.2445230     0.0316730
  H        0.6438740     2.2354620     0.0308360
  C        2.3075550     1.0400540    -0.1305870
  O        1.7103660    -0.0238620    -0.2723950
units angstrom
no_reorient
symmetry c1
}

set {
scf_type DF
mp2_type DF
e_convergence 7
reference rhf
}

energy('mp2/aug-cc-pv[tq]z', bsse_type='cp')
--------------------------------------------------------------------------

    Molecular point group: c1
  Charge       = 0
  Multiplicity = 1
  Basis Set: AUG-CC-PVTZ
    Blend: AUG-CC-PVTZ
  Basis Set: (AUG-CC-PVTZ AUX)
    Blend: AUG-CC-PVTZ-JKFIT
  @DF-RHF Final Energy:  -412.62223439091451
    Total Energy =                       -412.6222343909145138
  Basis Set: (AUG-CC-PVTZ AUX)
    Blend: AUG-CC-PVTZ-RI
	 Reference Energy          =    -412.6222343909145138 [Eh]
	 Singles Energy            =      -0.0000000000000000 [Eh]
	 Same-Spin Energy          =      -0.4145283459372438 [Eh]
	 Opposite-Spin Energy      =      -1.2271615008335004 [Eh]
	 Correlation Energy        =      -1.6416898467707441 [Eh]
	 Total Energy              =    -414.2639242376852735 [Eh]
	 SCS Total Energy          =    -414.2330043072271337 [Eh]
    Molecular point group: c1
  Basis Set: AUG-CC-PVQZ
    Blend: AUG-CC-PVQZ
  Basis Set: (AUG-CC-PVQZ AUX)
    Blend: AUG-CC-PVQZ-JKFIT
  @DF-RHF Final Energy:  -412.64770496992355
    Total Energy =                       -412.6477049699235522
  Basis Set: (AUG-CC-PVQZ AUX)
  @DF-RHF Final Energy:  -412.62263155734405
    Total Energy =                       -412.6226315573440502
  @DF-RHF Final Energy:  -412.64778322514343
    Total Energy =                       -412.6477832251434279
  @DF-RHF Final Energy:  -208.06161301802280
    Total Energy =                       -208.0616130180227970
  @DF-RHF Final Energy:  -208.07445455434535
    Total Energy =                       -208.0744545543453512
  @DF-RHF Final Energy:  -208.06123710373356
    Total Energy =                       -208.0612371037335606
  @DF-RHF Final Energy:  -208.07436841313196
    Total Energy =                       -208.0743684131319640
  Multiplicity = 1
  @DF-RHF Final Energy:  -620.65832882424422
    Total Energy =                       -620.6583288242442222
	 Singles Energy            =      -0.0000000000000000 [Eh]
	 Same-Spin Energy          =      -0.6312281327044766 [Eh]
	 Opposite-Spin Energy      =      -1.8951371394346324 [Eh]
	 Correlation Energy        =      -2.5263652721391088 [Eh]
	 Total Energy              =    -623.1846940963832822 [Eh]
	 SCS Total Energy          =    -623.1429027691339115 [Eh]
    Molecular point group: c1

    Geometry (in Angstrom), charge = 0, multiplicity = 1:

       Center              X                  Y                   Z               Mass
    ------------   -----------------  -----------------  -----------------  -----------------
         C           -2.882795844820    -0.447199439529    -0.080493918278    12.000000000000
         O           -2.221345844820     0.583177560471     0.086747081722    15.994914619570
         N           -2.320649844820    -1.654949439529    -0.253150918278    14.003074004430
         H           -1.306221844820    -1.749398439529    -0.247196918278     1.007825032230
         H           -2.894282844820    -2.465162439529    -0.385552918278     1.007825032230
         C           -4.388313844820    -0.392080439529    -0.094756918278    12.000000000000
         H           -4.728043844820    -0.012233439529     0.865632081722     1.007825032230
         H           -4.852183844820    -1.355973439529    -0.285080918278     1.007825032230
         H           -4.700055844820     0.316651560471    -0.857466918278     1.007825032230
         N            2.029805155180    -0.538519439529    -0.060579918278    14.003074004430
         H            2.519834155180    -1.414476439529    -0.178518918278     1.007825032230
         C            2.833431155180     0.604325560471     0.089902081722    12.000000000000
         O            4.048993155180     0.508703560471     0.074717081722    15.994914619570
         C            2.060839155180     1.819642560471     0.253046081722    12.000000000000
         H            2.582602155180     2.752834560471     0.376081081722     1.007825032230
         C            0.711678155180     1.757966560471     0.247369081722    12.000000000000
         H            0.091274155180     2.634326560471     0.365046081722     1.007825032230
         N            0.026596155180     0.585684560471     0.092803081722    14.003074004430
         H           -1.006194844820     0.576623560471     0.091966081722     1.007825032230
         C            0.657486155180    -0.618784439529    -0.069456918278    12.000000000000
         O            0.060297155180    -1.682700439529    -0.211264918278    15.994914619570

  Charge       = 0
  Multiplicity = 1
  Basis Set: AUG-CC-PVQZ
    Blend: AUG-CC-PVQZ
  Basis Set: (AUG-CC-PVQZ AUX)
    Blend: AUG-CC-PVQZ-JKFIT

    Orbital Energies [Eh]
    ---------------------

    Doubly Occupied:

       1A    -20.545491     2A    -20.543715     3A    -20.522006
       4A    -15.614622     5A    -15.574686     6A    -15.569722
       7A    -11.409465     8A    -11.380931     9A    -11.363072
      10A    -11.311165    11A    -11.251769    12A    -11.229382
      13A     -1.442955    14A     -1.424210    15A     -1.384355
      16A     -1.294205    17A     -1.227642    18A     -1.221726
      19A     -1.064827    20A     -1.027676    21A     -0.910872
      22A     -0.899609    23A     -0.833078    24A     -0.810418
      25A     -0.763463    26A     -0.742774    27A     -0.719918
      28A     -0.679495    29A     -0.663763    30A     -0.656894
      31A     -0.638642    32A     -0.627641    33A     -0.611879
      34A     -0.593361    35A     -0.581303    36A     -0.564288
      37A     -0.561603    38A     -0.549636    39A     -0.502152
      40A     -0.486293    41A     -0.442951    42A     -0.438309
      43A     -0.432700    44A     -0.428439    45A     -0.342299

  @DF-RHF Final Energy:  -620.69654455149089

   => Energetics <=

    Nuclear Repulsion Energy =            708.3701177285875019
    One-Electron Energy =               -2254.3625113760199383
    Two-Electron Energy =                 925.2958490959415485
    Total Energy =                       -620.6965445514908879

  Dipole Moment: [D]
     X:    -6.7955      Y:    -0.7093      Z:    -0.1792     Total:     6.8348

  Basis Set: (AUG-CC-PVQZ AUX)
    Blend: AUG-CC-PVQZ-RI
	 Reference Energy          =    -620.6965445514908879 [Eh]
	 Singles Energy            =      -0.0000000000000000 [Eh]
	 Same-Spin Energy          =      -0.6687810386332746 [Eh]
	 Opposite-Spin Energy      =      -2.1372877650232489 [Eh]
	 Correlation Energy        =      -2.8060688036565233 [Eh]
	 Total Energy              =    -623.5026133551474459 [Eh]

	 ================> DF-SCS-MP2 Energies <==================
	-----------------------------------------------------------
	 SCS Same-Spin Scale       =       0.3333333333333333 [-]
	 SCS Opposite-Spin Scale   =       1.2000000000000000 [-]
	 SCS Same-Spin Energy      =      -0.2229270128777582 [Eh]
	 SCS Opposite-Spin Energy  =      -2.5647453180278985 [Eh]
	 SCS Correlation Energy    =      -2.7876723309056568 [Eh]
	 SCS Total Energy          =    -623.4842168823965949 [Eh]
	-----------------------------------------------------------

*** Psi4 exiting successfully. Buy a developer a beer!
