                               Psi4 1.4a2.dev224

  ==> Input File <==

--------------------------------------------------------------------------
#Generated by lconvert.py for cbs job

memory 40 GB

molecule  {
0 1
  C       -1.2327270     1.2116390    -0.1416240
  O       -0.5712770     2.2420160     0.0256170
  N       -0.6705810     0.0038890    -0.3142810
  H        0.3438470    -0.0905600    -0.3083270
  H       -1.2442140    -0.8063240    -0.4466830
  C       -2.7382450     1.2667580    -0.1558870
  H       -3.0779750     1.6466050     0.8045020
  H       -3.2021150     0.3028650    -0.3462110
  H       -3.0499870     1.9754900    -0.9185970
--
0 1
  N        4.3743550     1.1201250    -0.1172860
  H        4.8643840     0.2441670    -0.2352250
  C        5.1779810     2.2629700     0.0331960
  O        6.3935430     2.1673470     0.0180110
  C        4.4053890     3.4782860     0.1963390
  H        4.9271520     4.4114790     0.3193750
  C        3.0562280     3.4166110     0.1906630
  H        2.4358240     4.2929710     0.3083400
  N        2.3711460     2.2443290     0.0360970
  H        1.3383550     2.2352680     0.0352600
  C        3.0020360     1.0398600    -0.1261630
  O        2.4048470    -0.0240560    -0.2679710
units angstrom
no_reorient
symmetry c1
}

set {
scf_type DF
mp2_type DF
e_convergence 7
reference rhf
}

energy('mp2/aug-cc-pv[tq]z', bsse_type='cp')
--------------------------------------------------------------------------

    Molecular point group: c1
  Charge       = 0
  Multiplicity = 1
  Basis Set: AUG-CC-PVTZ
    Blend: AUG-CC-PVTZ
  Basis Set: (AUG-CC-PVTZ AUX)
    Blend: AUG-CC-PVTZ-JKFIT
  @DF-RHF Final Energy:  -412.62223433504789
    Total Energy =                       -412.6222343350478923
  Basis Set: (AUG-CC-PVTZ AUX)
    Blend: AUG-CC-PVTZ-RI
	 Reference Energy          =    -412.6222343350478923 [Eh]
	 Singles Energy            =      -0.0000000000000000 [Eh]
	 Same-Spin Energy          =      -0.4145283699858598 [Eh]
	 Opposite-Spin Energy      =      -1.2271615319438123 [Eh]
	 Correlation Energy        =      -1.6416899019296722 [Eh]
	 Total Energy              =    -414.2639242369775729 [Eh]
	 SCS Total Energy          =    -414.2330042967091117 [Eh]
    Molecular point group: c1
  Basis Set: AUG-CC-PVQZ
    Blend: AUG-CC-PVQZ
  Basis Set: (AUG-CC-PVQZ AUX)
    Blend: AUG-CC-PVQZ-JKFIT
  @DF-RHF Final Energy:  -412.64770491141724
    Total Energy =                       -412.6477049114172360
  Basis Set: (AUG-CC-PVQZ AUX)
  @DF-RHF Final Energy:  -412.62241947747526
    Total Energy =                       -412.6224194774752618
  @DF-RHF Final Energy:  -412.64774478231408
    Total Energy =                       -412.6477447823140778
  @DF-RHF Final Energy:  -208.06141471959984
    Total Energy =                       -208.0614147195998385
  @DF-RHF Final Energy:  -208.07441458401925
    Total Energy =                       -208.0744145840192516
  @DF-RHF Final Energy:  -208.06123710371506
    Total Energy =                       -208.0612371037150581
  @DF-RHF Final Energy:  -208.07436841258101
    Total Energy =                       -208.0743684125810091
  Multiplicity = 1
  @DF-RHF Final Energy:  -620.70841629160145
    Total Energy =                       -620.7084162916014520
	 Singles Energy            =      -0.0000000000000000 [Eh]
	 Same-Spin Energy          =      -0.6229661741627027 [Eh]
	 Opposite-Spin Energy      =      -1.8883052264807216 [Eh]
	 Correlation Energy        =      -2.5112714006434245 [Eh]
	 Total Energy              =    -623.2196876922448610 [Eh]
	 SCS Total Energy          =    -623.1820379547658604 [Eh]
    Molecular point group: c1

    Geometry (in Angstrom), charge = 0, multiplicity = 1:

       Center              X                  Y                   Z               Mass
    ------------   -----------------  -----------------  -----------------  -----------------
         C           -3.337600115256    -0.447072222553    -0.083391053513    12.000000000000
         O           -2.676150115256     0.583304777447     0.083849946487    15.994914619570
         N           -2.775454115256    -1.654822222553    -0.256048053513    14.003074004430
         H           -1.761026115256    -1.749271222553    -0.250094053513     1.007825032230
         H           -3.349087115256    -2.465035222553    -0.388450053513     1.007825032230
         C           -4.843118115256    -0.391953222553    -0.097654053513    12.000000000000
         H           -5.182848115256    -0.012106222553     0.862734946487     1.007825032230
         H           -5.306988115256    -1.355846222553    -0.287978053513     1.007825032230
         H           -5.154860115256     0.316778777447    -0.860364053513     1.007825032230
         N            2.269481884744    -0.538586222553    -0.059053053513    14.003074004430
         H            2.759510884744    -1.414544222553    -0.176992053513     1.007825032230
         C            3.073107884744     0.604258777447     0.091428946487    12.000000000000
         O            4.288669884744     0.508635777447     0.076243946487    15.994914619570
         C            2.300515884744     1.819574777447     0.254571946487    12.000000000000
         H            2.822278884744     2.752767777447     0.377607946487     1.007825032230
         C            0.951354884744     1.757899777447     0.248895946487    12.000000000000
         H            0.330950884744     2.634259777447     0.366572946487     1.007825032230
         N            0.266272884744     0.585617777447     0.094329946487    14.003074004430
         H           -0.766518115256     0.576556777447     0.093492946487     1.007825032230
         C            0.897162884744    -0.618851222553    -0.067930053513    12.000000000000
         O            0.299973884744    -1.682767222553    -0.209738053513    15.994914619570

  Charge       = 0
  Multiplicity = 1
  Basis Set: AUG-CC-PVQZ
    Blend: AUG-CC-PVQZ
  Basis Set: (AUG-CC-PVQZ AUX)
    Blend: AUG-CC-PVQZ-JKFIT

    Orbital Energies [Eh]
    ---------------------

    Doubly Occupied:

       1A    -20.540091     2A    -20.531468     3A    -20.530096
       4A    -15.621592     5A    -15.618755     6A    -15.591556
       7A    -11.411625     8A    -11.370642     9A    -11.369634
      10A    -11.325642    11A    -11.247298    12A    -11.241623
      13A     -1.427503    14A     -1.391677    15A     -1.388360
      16A     -1.300941    17A     -1.235298    18A     -1.225880
      19A     -1.075526    20A     -1.018295    21A     -0.922856
      22A     -0.890942    23A     -0.813625    24A     -0.792302
      25A     -0.756010    26A     -0.737453    27A     -0.706081
      28A     -0.685052    29A     -0.665960    30A     -0.660404
      31A     -0.644227    32A     -0.629621    33A     -0.604484
      34A     -0.597425    35A     -0.590336    36A     -0.573911
      37A     -0.562213    38A     -0.538194    39A     -0.513063
      40A     -0.482379    41A     -0.446850    42A     -0.440474
      43A     -0.433201    44A     -0.428659    45A     -0.356696

  @DF-RHF Final Energy:  -620.74684412874160

   => Energetics <=

    Nuclear Repulsion Energy =            674.8677440804266325
    One-Electron Energy =               -2187.3573447311405289
    Two-Electron Energy =                 891.7427565219721828
    Total Energy =                       -620.7468441287415999

  Dipole Moment: [D]
     X:    -6.1097      Y:    -0.4176      Z:    -0.1448     Total:     6.1257

  Basis Set: (AUG-CC-PVQZ AUX)
    Blend: AUG-CC-PVQZ-RI
	 Reference Energy          =    -620.7468441287415999 [Eh]
	 Singles Energy            =      -0.0000000000000000 [Eh]
	 Same-Spin Energy          =      -0.6603870853318270 [Eh]
	 Opposite-Spin Energy      =      -2.1312115832978584 [Eh]
	 Correlation Energy        =      -2.7915986686296854 [Eh]
	 Total Energy              =    -623.5384427973713173 [Eh]

	 ================> DF-SCS-MP2 Energies <==================
	-----------------------------------------------------------
	 SCS Same-Spin Scale       =       0.3333333333333333 [-]
	 SCS Opposite-Spin Scale   =       1.2000000000000000 [-]
	 SCS Same-Spin Energy      =      -0.2201290284439423 [Eh]
	 SCS Opposite-Spin Energy  =      -2.5574538999574301 [Eh]
	 SCS Correlation Energy    =      -2.7775829284013724 [Eh]
	 SCS Total Energy          =    -623.5244270571429297 [Eh]
	-----------------------------------------------------------

*** Psi4 exiting successfully. Buy a developer a beer!
