                               Psi4 1.4a2.dev224

  ==> Input File <==

--------------------------------------------------------------------------
#Generated by lconvert.py for cbs job

memory 40 GB

molecule  {
0 1
  C       -1.2327270     1.2116390    -0.1416240
  O       -0.5712770     2.2420160     0.0256170
  N       -0.6705810     0.0038890    -0.3142810
  H        0.3438470    -0.0905600    -0.3083270
  H       -1.2442140    -0.8063240    -0.4466830
  C       -2.7382450     1.2667580    -0.1558870
  H       -3.0779750     1.6466050     0.8045020
  H       -3.2021150     0.3028650    -0.3462110
  H       -3.0499870     1.9754900    -0.9185970
--
0 1
  N        4.0271420     1.1148990    -0.1216580
  H        4.5171710     0.2389420    -0.2395970
  C        4.8307680     2.2577440     0.0288230
  O        6.0463300     2.1621220     0.0136390
  C        4.0581760     3.4730610     0.1919670
  H        4.5799390     4.4062540     0.3150020
  C        2.7090150     3.4113850     0.1862910
  H        2.0886110     4.2877460     0.3039670
  N        2.0239330     2.2391040     0.0317250
  H        0.9911430     2.2300430     0.0308870
  C        2.6548230     1.0346340    -0.1305350
  O        2.0576340    -0.0292820    -0.2723430
units angstrom
no_reorient
symmetry c1
}

set {
scf_type DF
mp2_type DF
e_convergence 7
reference rhf
}

energy('mp2/aug-cc-pv[tq]z', bsse_type='cp')
--------------------------------------------------------------------------

    Molecular point group: c1
  Charge       = 0
  Multiplicity = 1
  Basis Set: AUG-CC-PVTZ
    Blend: AUG-CC-PVTZ
  Basis Set: (AUG-CC-PVTZ AUX)
    Blend: AUG-CC-PVTZ-JKFIT
  @DF-RHF Final Energy:  -412.62223443710718
    Total Energy =                       -412.6222344371071813
  Basis Set: (AUG-CC-PVTZ AUX)
    Blend: AUG-CC-PVTZ-RI
	 Reference Energy          =    -412.6222344371071813 [Eh]
	 Singles Energy            =      -0.0000000000000000 [Eh]
	 Same-Spin Energy          =      -0.4145283504152499 [Eh]
	 Opposite-Spin Energy      =      -1.2271615004406449 [Eh]
	 Correlation Energy        =      -1.6416898508558948 [Eh]
	 Total Energy              =    -414.2639242879630501 [Eh]
	 SCS Total Energy          =    -414.2330043544410501 [Eh]
    Molecular point group: c1
  Basis Set: AUG-CC-PVQZ
    Blend: AUG-CC-PVQZ
  Basis Set: (AUG-CC-PVQZ AUX)
    Blend: AUG-CC-PVQZ-JKFIT
  @DF-RHF Final Energy:  -412.64770501278582
    Total Energy =                       -412.6477050127858206
  Basis Set: (AUG-CC-PVQZ AUX)
  @DF-RHF Final Energy:  -412.62251333363270
    Total Energy =                       -412.6225133336326962
  @DF-RHF Final Energy:  -412.64776111615760
    Total Energy =                       -412.6477611161575965
  @DF-RHF Final Energy:  -208.06150693617286
    Total Energy =                       -208.0615069361728615
  @DF-RHF Final Energy:  -208.07443280779523
    Total Energy =                       -208.0744328077952332
  @DF-RHF Final Energy:  -208.06123710368226
    Total Energy =                       -208.0612371036822594
  @DF-RHF Final Energy:  -208.07436841237848
    Total Energy =                       -208.0743684123784760
  Multiplicity = 1
  @DF-RHF Final Energy:  -620.70374277526776
    Total Energy =                       -620.7037427752677559
	 Singles Energy            =      -0.0000000000000000 [Eh]
	 Same-Spin Energy          =      -0.6260213740696310 [Eh]
	 Opposite-Spin Energy      =      -1.8908125432271685 [Eh]
	 Correlation Energy        =      -2.5168339172967995 [Eh]
	 Total Energy              =    -623.2205766925645776 [Eh]
	 SCS Total Energy          =    -623.1813916184969457 [Eh]
    Molecular point group: c1

    Geometry (in Angstrom), charge = 0, multiplicity = 1:

       Center              X                  Y                   Z               Mass
    ------------   -----------------  -----------------  -----------------  -----------------
         C           -3.110215995230    -0.443650069537    -0.080527814257    12.000000000000
         O           -2.448765995230     0.586726930463     0.086713185743    15.994914619570
         N           -2.548069995230    -1.651400069537    -0.253184814257    14.003074004430
         H           -1.533641995230    -1.745849069537    -0.247230814257     1.007825032230
         H           -3.121702995230    -2.461613069537    -0.385586814257     1.007825032230
         C           -4.615733995230    -0.388531069537    -0.094790814257    12.000000000000
         H           -4.955463995230    -0.008684069537     0.865598185743     1.007825032230
         H           -5.079603995230    -1.352424069537    -0.285114814257     1.007825032230
         H           -4.927475995230     0.320200930463    -0.857500814257     1.007825032230
         N            2.149653004770    -0.540390069537    -0.060561814257    14.003074004430
         H            2.639682004770    -1.416347069537    -0.178500814257     1.007825032230
         C            2.953279004770     0.602454930463     0.089919185743    12.000000000000
         O            4.168841004770     0.506832930463     0.074735185743    15.994914619570
         C            2.180687004770     1.817771930463     0.253063185743    12.000000000000
         H            2.702450004770     2.750964930463     0.376098185743     1.007825032230
         C            0.831526004770     1.756095930463     0.247387185743    12.000000000000
         H            0.211122004770     2.632456930463     0.365063185743     1.007825032230
         N            0.146444004770     0.583814930463     0.092821185743    14.003074004430
         H           -0.886345995230     0.574753930463     0.091983185743     1.007825032230
         C            0.777334004770    -0.620655069537    -0.069438814257    12.000000000000
         O            0.180145004770    -1.684571069537    -0.211246814257    15.994914619570

  Charge       = 0
  Multiplicity = 1
  Basis Set: AUG-CC-PVQZ
    Blend: AUG-CC-PVQZ
  Basis Set: (AUG-CC-PVQZ AUX)
    Blend: AUG-CC-PVQZ-JKFIT

    Orbital Energies [Eh]
    ---------------------

    Doubly Occupied:

       1A    -20.541442     2A    -20.537545     3A    -20.526933
       4A    -15.617005     5A    -15.605251     6A    -15.584759
       7A    -11.410652     8A    -11.374354     9A    -11.367672
      10A    -11.320079    11A    -11.249213    12A    -11.236781
      13A     -1.429675    14A     -1.402651    15A     -1.386687
      16A     -1.297397    17A     -1.231610    18A     -1.225322
      19A     -1.071046    20A     -1.021344    21A     -0.917722
      22A     -0.890939    23A     -0.816529    24A     -0.793940
      25A     -0.756062    26A     -0.740214    27A     -0.713326
      28A     -0.685014    29A     -0.664368    30A     -0.657905
      31A     -0.638733    32A     -0.633138    33A     -0.607213
      34A     -0.595369    35A     -0.586883    36A     -0.572621
      37A     -0.560657    38A     -0.542287    39A     -0.508883
      40A     -0.485262    41A     -0.449241    42A     -0.438341
      43A     -0.435068    44A     -0.429579    45A     -0.351288

  @DF-RHF Final Energy:  -620.74202933286927

   => Energetics <=

    Nuclear Repulsion Energy =            690.1956514338055513
    One-Electron Energy =               -2218.0593565756157659
    Two-Electron Energy =                 907.1216758089409495
    Total Energy =                       -620.7420293328692651

  Dipole Moment: [D]
     X:    -6.3894      Y:    -0.5226      Z:    -0.1575     Total:     6.4127

  Basis Set: (AUG-CC-PVQZ AUX)
    Blend: AUG-CC-PVQZ-RI
	 Reference Energy          =    -620.7420293328692651 [Eh]
	 Singles Energy            =      -0.0000000000000000 [Eh]
	 Same-Spin Energy          =      -0.6634816994026801 [Eh]
	 Opposite-Spin Energy      =      -2.1334313686371935 [Eh]
	 Correlation Energy        =      -2.7969130680398737 [Eh]
	 Total Energy              =    -623.5389424009091499 [Eh]

	 ================> DF-SCS-MP2 Energies <==================
	-----------------------------------------------------------
	 SCS Same-Spin Scale       =       0.3333333333333333 [-]
	 SCS Opposite-Spin Scale   =       1.2000000000000000 [-]
	 SCS Same-Spin Energy      =      -0.2211605664675600 [Eh]
	 SCS Opposite-Spin Energy  =      -2.5601176423646321 [Eh]
	 SCS Correlation Energy    =      -2.7812782088321923 [Eh]
	 SCS Total Energy          =    -623.5233075417014561 [Eh]
	-----------------------------------------------------------

*** Psi4 exiting successfully. Buy a developer a beer!
