                               Psi4 1.4a2.dev224

  ==> Input File <==

--------------------------------------------------------------------------
#Generated by lconvert.py for cbs job

memory 40 GB

molecule  {
0 1
  C       -1.2327270     1.2116390    -0.1416240
  O       -0.5712770     2.2420160     0.0256170
  N       -0.6705810     0.0038890    -0.3142810
  H        0.3438470    -0.0905600    -0.3083270
  H       -1.2442140    -0.8063240    -0.4466830
  C       -2.7382450     1.2667580    -0.1558870
  H       -3.0779750     1.6466050     0.8045020
  H       -3.2021150     0.3028650    -0.3462110
  H       -3.0499870     1.9754900    -0.9185970
--
0 1
  N        3.8534670     1.1193830    -0.1209650
  H        4.3434960     0.2434260    -0.2389030
  C        4.6570930     2.2622280     0.0295170
  O        5.8726550     2.1666060     0.0143320
  C        3.8845010     3.4775440     0.1926610
  H        4.4062640     4.4107370     0.3156960
  C        2.5353400     3.4158690     0.1869840
  H        1.9149360     4.2922290     0.3046610
  N        1.8502580     2.2435870     0.0324190
  H        0.8174670     2.2345260     0.0315810
  C        2.4811480     1.0391180    -0.1298410
  O        1.8839590    -0.0247980    -0.2716490
units angstrom
no_reorient
symmetry c1
}

set {
scf_type DF
mp2_type DF
e_convergence 7
reference rhf
}

energy('mp2/aug-cc-pv[tq]z', bsse_type='cp')
--------------------------------------------------------------------------

    Molecular point group: c1
  Charge       = 0
  Multiplicity = 1
  Basis Set: AUG-CC-PVTZ
    Blend: AUG-CC-PVTZ
  Basis Set: (AUG-CC-PVTZ AUX)
    Blend: AUG-CC-PVTZ-JKFIT
  @DF-RHF Final Energy:  -412.62223437428264
    Total Energy =                       -412.6222343742826411
  Basis Set: (AUG-CC-PVTZ AUX)
    Blend: AUG-CC-PVTZ-RI
	 Reference Energy          =    -412.6222343742826411 [Eh]
	 Singles Energy            =      -0.0000000000000000 [Eh]
	 Same-Spin Energy          =      -0.4145283581211541 [Eh]
	 Opposite-Spin Energy      =      -1.2271615081925553 [Eh]
	 Correlation Energy        =      -1.6416898663137094 [Eh]
	 Total Energy              =    -414.2639242405963387 [Eh]
	 SCS Total Energy          =    -414.2330043034874052 [Eh]
    Molecular point group: c1
  Basis Set: AUG-CC-PVQZ
    Blend: AUG-CC-PVQZ
  Basis Set: (AUG-CC-PVQZ AUX)
    Blend: AUG-CC-PVQZ-JKFIT
  @DF-RHF Final Energy:  -412.64770494831043
    Total Energy =                       -412.6477049483104338
  Basis Set: (AUG-CC-PVQZ AUX)
  @DF-RHF Final Energy:  -412.62256837614399
    Total Energy =                       -412.6225683761439882
  @DF-RHF Final Energy:  -412.64777154867659
    Total Energy =                       -412.6477715486765874
  @DF-RHF Final Energy:  -208.06155580976221
    Total Energy =                       -208.0615558097622113
  @DF-RHF Final Energy:  -208.07444325468450
    Total Energy =                       -208.0744432546844962
  @DF-RHF Final Energy:  -208.06123710364295
    Total Energy =                       -208.0612371036429522
  @DF-RHF Final Energy:  -208.07436841290956
    Total Energy =                       -208.0743684129095641
  Multiplicity = 1
  @DF-RHF Final Energy:  -620.69010998371652
    Total Energy =                       -620.6901099837165248
	 Singles Energy            =      -0.0000000000000000 [Eh]
	 Same-Spin Energy          =      -0.6283285612972784 [Eh]
	 Opposite-Spin Energy      =      -1.8926836811994572 [Eh]
	 Correlation Energy        =      -2.5210122424967354 [Eh]
	 Total Energy              =    -623.2111222262132060 [Eh]
	 SCS Total Energy          =    -623.1707732549216416 [Eh]
    Molecular point group: c1

    Geometry (in Angstrom), charge = 0, multiplicity = 1:

       Center              X                  Y                   Z               Mass
    ------------   -----------------  -----------------  -----------------  -----------------
         C           -2.996479066849    -0.446586398259    -0.080982058018    12.000000000000
         O           -2.335029066849     0.583790601741     0.086258941982    15.994914619570
         N           -2.434333066849    -1.654336398259    -0.253639058018    14.003074004430
         H           -1.419905066849    -1.748785398259    -0.247685058018     1.007825032230
         H           -3.007966066849    -2.464549398259    -0.386041058018     1.007825032230
         C           -4.501997066849    -0.391467398259    -0.095245058018    12.000000000000
         H           -4.841727066849    -0.011620398259     0.865143941982     1.007825032230
         H           -4.965867066849    -1.355360398259    -0.285569058018     1.007825032230
         H           -4.813739066849     0.317264601741    -0.857955058018     1.007825032230
         N            2.089714933151    -0.538842398259    -0.060323058018    14.003074004430
         H            2.579743933151    -1.414799398259    -0.178261058018     1.007825032230
         C            2.893340933151     0.604002601741     0.090158941982    12.000000000000
         O            4.108902933151     0.508380601741     0.074973941982    15.994914619570
         C            2.120748933151     1.819318601741     0.253302941982    12.000000000000
         H            2.642511933151     2.752511601741     0.376337941982     1.007825032230
         C            0.771587933151     1.757643601741     0.247625941982    12.000000000000
         H            0.151183933151     2.634003601741     0.365302941982     1.007825032230
         N            0.086505933151     0.585361601741     0.093060941982    14.003074004430
         H           -0.946285066849     0.576300601741     0.092222941982     1.007825032230
         C            0.717395933151    -0.619107398259    -0.069199058018    12.000000000000
         O            0.120206933151    -1.683023398259    -0.211007058018    15.994914619570

  Charge       = 0
  Multiplicity = 1
  Basis Set: AUG-CC-PVQZ
    Blend: AUG-CC-PVQZ
  Basis Set: (AUG-CC-PVQZ AUX)
    Blend: AUG-CC-PVQZ-JKFIT

    Orbital Energies [Eh]
    ---------------------

    Doubly Occupied:

       1A    -20.542343     2A    -20.541278     3A    -20.524699
       4A    -15.615843     5A    -15.592149     6A    -15.578633
       7A    -11.410013     8A    -11.377405     9A    -11.365580
      10A    -11.316098    11A    -11.250397    12A    -11.233417
      13A     -1.433354    14A     -1.411737    15A     -1.385572
      16A     -1.295493    17A     -1.229298    18A     -1.224329
      19A     -1.068081    20A     -1.023831    21A     -0.914269
      22A     -0.893204    23A     -0.820951    24A     -0.800067
      25A     -0.758950    26A     -0.741801    27A     -0.717741
      28A     -0.682652    29A     -0.663966    30A     -0.656809
      31A     -0.635616    32A     -0.633717    33A     -0.609499
      34A     -0.593716    35A     -0.584290    36A     -0.569777
      37A     -0.560444    38A     -0.545413    39A     -0.505835
      40A     -0.486550    41A     -0.447881    42A     -0.436639
      43A     -0.436210    44A     -0.429305    45A     -0.347306

  @DF-RHF Final Energy:  -620.72833344816104

   => Energetics <=

    Nuclear Repulsion Energy =            698.8501029163285239
    One-Electron Energy =               -2235.3725495324210897
    Two-Electron Energy =                 915.7941131679315276
    Total Energy =                       -620.7283334481610382

  Dipole Moment: [D]
     X:    -6.5790      Y:    -0.6047      Z:    -0.1675     Total:     6.6089

  Basis Set: (AUG-CC-PVQZ AUX)
    Blend: AUG-CC-PVQZ-RI
	 Reference Energy          =    -620.7283334481610382 [Eh]
	 Singles Energy            =      -0.0000000000000000 [Eh]
	 Same-Spin Energy          =      -0.6658365873385009 [Eh]
	 Opposite-Spin Energy      =      -2.1351817920699085 [Eh]
	 Correlation Energy        =      -2.8010183794084096 [Eh]
	 Total Energy              =    -623.5293518275694851 [Eh]

	 ================> DF-SCS-MP2 Energies <==================
	-----------------------------------------------------------
	 SCS Same-Spin Scale       =       0.3333333333333333 [-]
	 SCS Opposite-Spin Scale   =       1.2000000000000000 [-]
	 SCS Same-Spin Energy      =      -0.2219455291128336 [Eh]
	 SCS Opposite-Spin Energy  =      -2.5622181504838903 [Eh]
	 SCS Correlation Energy    =      -2.7841636795967242 [Eh]
	 SCS Total Energy          =    -623.5124971277577970 [Eh]
	-----------------------------------------------------------

*** Psi4 exiting successfully. Buy a developer a beer!
