                               Psi4 1.4a2.dev224

  ==> Input File <==

--------------------------------------------------------------------------
#Generated by lconvert.py for cbs job

memory 20 GB

molecule  {
0 1
  C      -1.232730    1.211640   -0.141620
  O      -0.571280    2.242020    0.025620
  N      -0.670580    0.003890   -0.314280
  H       0.343850   -0.090560   -0.308330
  H      -1.244210   -0.806320   -0.446680
  C      -2.738250    1.266760   -0.155890
  H      -3.077970    1.646610    0.804500
  H      -3.202120    0.302860   -0.346210
  H      -3.049990    1.975490   -0.918600
--
0 1
  N       5.242320    1.115450   -0.113560
  H       5.732350    0.239490   -0.231500
  C       6.045950    2.258290    0.036920
  O       7.261510    2.162670    0.021740
  C       5.273350    3.473610    0.200060
  H       5.795120    4.406800    0.323100
  C       3.924190    3.411930    0.194390
  H       3.303790    4.288290    0.312060
  N       3.239110    2.239650    0.039820
  H       2.206320    2.230590    0.038980
  C       3.870000    1.035180   -0.122440
  O       3.272810   -0.028740   -0.264250
units angstrom
no_reorient
symmetry c1
}

set {
scf_type DF
mp2_type DF
e_convergence 7
reference rhf
}

energy('mp2/aug-cc-pv[tq]z', bsse_type='cp')
--------------------------------------------------------------------------

    Molecular point group: c1
  Charge       = 0
  Multiplicity = 1
  Basis Set: AUG-CC-PVTZ
    Blend: AUG-CC-PVTZ
  Basis Set: (AUG-CC-PVTZ AUX)
    Blend: AUG-CC-PVTZ-JKFIT
  @DF-RHF Final Energy:  -412.62223405654555
    Total Energy =                       -412.6222340565455511
  Basis Set: (AUG-CC-PVTZ AUX)
    Blend: AUG-CC-PVTZ-RI
	 Reference Energy          =    -412.6222340565455511 [Eh]
	 Singles Energy            =      -0.0000000000000000 [Eh]
	 Same-Spin Energy          =      -0.4145284213330980 [Eh]
	 Opposite-Spin Energy      =      -1.2271617166901647 [Eh]
	 Correlation Energy        =      -1.6416901380232627 [Eh]
	 Total Energy              =    -414.2639241945688013 [Eh]
	 SCS Total Energy          =    -414.2330042570181377 [Eh]
    Molecular point group: c1
  Basis Set: AUG-CC-PVQZ
    Blend: AUG-CC-PVQZ
  Basis Set: (AUG-CC-PVQZ AUX)
    Blend: AUG-CC-PVQZ-JKFIT
  @DF-RHF Final Energy:  -412.64770461767267
    Total Energy =                       -412.6477046176726731
  Basis Set: (AUG-CC-PVQZ AUX)
  @DF-RHF Final Energy:  -412.62231144188729
    Total Energy =                       -412.6223114418872910
  @DF-RHF Final Energy:  -412.64772173580002
    Total Energy =                       -412.6477217358000189
  @DF-RHF Final Energy:  -208.06130584759933
    Total Energy =                       -208.0613058475993284
  @DF-RHF Final Energy:  -208.07438843710054
    Total Energy =                       -208.0743884371005379
  @DF-RHF Final Energy:  -208.06123681633264
    Total Energy =                       -208.0612368163326380
  @DF-RHF Final Energy:  -208.07436810923406
    Total Energy =                       -208.0743681092340580
  Multiplicity = 1
  @DF-RHF Final Energy:  -620.69698343077732
    Total Energy =                       -620.6969834307773226
	 Singles Energy            =      -0.0000000000000000 [Eh]
	 Same-Spin Energy          =      -0.6201503780971755 [Eh]
	 Opposite-Spin Energy      =      -1.8847094636706028 [Eh]
	 Correlation Energy        =      -2.5048598417677783 [Eh]
	 Total Energy              =    -623.2018432725451476 [Eh]
	 SCS Total Energy          =    -623.1653515798810758 [Eh]
    Molecular point group: c1

    Geometry (in Angstrom), charge = 0, multiplicity = 1:

       Center              X                  Y                   Z               Mass
    ------------   -----------------  -----------------  -----------------  -----------------
         C           -3.906018156128    -0.444007694382    -0.085826412637    12.000000000000
         O           -3.244568156128     0.586372305618     0.081413587363    15.994914619570
         N           -3.343868156128    -1.651757694382    -0.258486412637    14.003074004430
         H           -2.329438156128    -1.746207694382    -0.252536412637     1.007825032230
         H           -3.917498156128    -2.461967694382    -0.390886412637     1.007825032230
         C           -5.411538156128    -0.388887694382    -0.100096412637    12.000000000000
         H           -5.751258156128    -0.009037694382     0.860293587363     1.007825032230
         H           -5.875408156128    -1.352787694382    -0.290416412637     1.007825032230
         H           -5.723278156128     0.319842305618    -0.862806412637     1.007825032230
         N            2.569031843872    -0.540197694382    -0.057766412637    14.003074004430
         H            3.059061843872    -1.416157694382    -0.175706412637     1.007825032230
         C            3.372661843872     0.602642305618     0.092713587363    12.000000000000
         O            4.588221843872     0.507022305618     0.077533587363    15.994914619570
         C            2.600061843872     1.817962305618     0.255853587363    12.000000000000
         H            3.121831843872     2.751152305618     0.378893587363     1.007825032230
         C            1.250901843872     1.756282305618     0.250183587363    12.000000000000
         H            0.630501843872     2.632642305618     0.367853587363     1.007825032230
         N            0.565821843872     0.584002305618     0.095613587363    14.003074004430
         H           -0.466968156128     0.574942305618     0.094773587363     1.007825032230
         C            1.196711843872    -0.620467694382    -0.066646412637    12.000000000000
         O            0.599521843872    -1.684387694382    -0.208456412637    15.994914619570

  Charge       = 0
  Multiplicity = 1
  Basis Set: AUG-CC-PVQZ
    Blend: AUG-CC-PVQZ
  Basis Set: (AUG-CC-PVQZ AUX)
    Blend: AUG-CC-PVQZ-JKFIT

    Orbital Energies [Eh]
    ---------------------

    Doubly Occupied:

       1A    -20.538267     2A    -20.534030     3A    -20.522129
       4A    -15.636874     5A    -15.621026     6A    -15.596168
       7A    -11.412891     8A    -11.374363     9A    -11.362970
      10A    -11.332421    11A    -11.247770    12A    -11.244200
      13A     -1.427569    14A     -1.390935    15A     -1.380500
      16A     -1.306059    17A     -1.239779    18A     -1.225647
      19A     -1.081381    20A     -1.014647    21A     -0.929276
      22A     -0.894215    23A     -0.812059    24A     -0.797535
      25A     -0.760445    26A     -0.736946    27A     -0.707067
      28A     -0.675811    29A     -0.670256    30A     -0.664324
      31A     -0.646301    32A     -0.625068    33A     -0.607871
      34A     -0.595564    35A     -0.590846    36A     -0.572316
      37A     -0.565488    38A     -0.533461    39A     -0.517869
      40A     -0.479320    41A     -0.444491    42A     -0.435798
      43A     -0.432706    44A     -0.424475    45A     -0.362947

  @DF-RHF Final Energy:  -620.73546551541085

   => Energetics <=

    Nuclear Repulsion Energy =            645.1975470259729946
    One-Electron Energy =               -2127.9218639692694524
    Two-Electron Energy =                 861.9888514278854927
    Total Energy =                       -620.7354655154108514

  Dipole Moment: [D]
     X:    -5.7585      Y:    -0.3045      Z:    -0.1292     Total:     5.7680

  Basis Set: (AUG-CC-PVQZ AUX)
    Blend: AUG-CC-PVQZ-RI
	 Reference Energy          =    -620.7354655154108514 [Eh]
	 Singles Energy            =      -0.0000000000000000 [Eh]
	 Same-Spin Energy          =      -0.6576620719291558 [Eh]
	 Opposite-Spin Energy      =      -2.1293028284151840 [Eh]
	 Correlation Energy        =      -2.7869649003443397 [Eh]
	 Total Energy              =    -623.5224304157551387 [Eh]

	 ================> DF-SCS-MP2 Energies <==================
	-----------------------------------------------------------
	 SCS Same-Spin Scale       =       0.3333333333333333 [-]
	 SCS Opposite-Spin Scale   =       1.2000000000000000 [-]
	 SCS Same-Spin Energy      =      -0.2192206906430519 [Eh]
	 SCS Opposite-Spin Energy  =      -2.5551633940982206 [Eh]
	 SCS Correlation Energy    =      -2.7743840847412726 [Eh]
	 SCS Total Energy          =    -623.5098496001521653 [Eh]
	-----------------------------------------------------------

*** Psi4 exiting successfully. Buy a developer a beer!
