                               Psi4 1.4a2.dev224

  ==> Input File <==

--------------------------------------------------------------------------
#Generated by lconvert.py for cbs job

memory 20 GB

molecule  {
0 1
  C       0.712640    1.121000    0.060540
  H       1.357840    1.986400    0.127740
  C       1.258240   -0.159250    0.124230
  H       2.324950   -0.287100    0.246740
  C       0.426890   -1.274530    0.042650
  H       0.850450   -2.268430    0.094750
  C      -0.949580   -1.110070   -0.100310
  H      -1.594460   -1.976270   -0.163710
  C      -1.495530    0.171050   -0.161550
  H      -2.563780    0.299220   -0.273700
  C      -0.663830    1.286640   -0.083400
  H      -1.086900    2.281000   -0.132890
--
0 1
  C       3.041620    1.099870    6.725120
  H       3.686470    1.966050    6.788870
  C       3.587580   -0.181280    6.786640
  H       4.655780   -0.309430    6.899380
  C       2.755930   -1.296880    6.707990
  H       3.179010   -2.291230    6.757640
  C       1.379520   -1.131250    6.563270
  H       0.734420   -1.996660    6.495640
  C       0.833970    0.148990    6.499310
  H      -0.232660    0.276810    6.376130
  C       1.665240    1.264270    6.581380
  H       1.241720    2.258170    6.529010
units angstrom
no_reorient
symmetry c1
}

set {
scf_type DF
mp2_type DF
e_convergence 7
reference rhf
}

energy('mp2/aug-cc-pv[tq]z', bsse_type='cp')
--------------------------------------------------------------------------

    Molecular point group: c1
  Charge       = 0
  Multiplicity = 1
  Basis Set: AUG-CC-PVTZ
    Blend: AUG-CC-PVTZ
  Basis Set: (AUG-CC-PVTZ AUX)
    Blend: AUG-CC-PVTZ-JKFIT
  @DF-RHF Final Energy:  -230.78126522477802
    Total Energy =                       -230.7812652247779965
  Basis Set: (AUG-CC-PVTZ AUX)
    Blend: AUG-CC-PVTZ-RI
	 Reference Energy          =    -230.7812652247780250 [Eh]
	 Singles Energy            =      -0.0000000000000000 [Eh]
	 Same-Spin Energy          =      -0.2553782821797355 [Eh]
	 Opposite-Spin Energy      =      -0.8183092852051155 [Eh]
	 Correlation Energy        =      -1.0736875673848509 [Eh]
	 Total Energy              =    -231.8549527921628624 [Eh]
	 SCS Total Energy          =    -231.8483624610840650 [Eh]
    Molecular point group: c1
  Basis Set: AUG-CC-PVQZ
    Blend: AUG-CC-PVQZ
  Basis Set: (AUG-CC-PVQZ AUX)
    Blend: AUG-CC-PVQZ-JKFIT
  @DF-RHF Final Energy:  -230.79444097940106
    Total Energy =                       -230.7944409794010880
  Basis Set: (AUG-CC-PVQZ AUX)
  @DF-RHF Final Energy:  -230.78128273417394
    Total Energy =                       -230.7812827341739421
  @DF-RHF Final Energy:  -230.79444699172296
    Total Energy =                       -230.7944469917229640
  @DF-RHF Final Energy:  -230.78128286776882
    Total Energy =                       -230.7812828677688231
  @DF-RHF Final Energy:  -230.79444711995129
    Total Energy =                       -230.7944471199513146
  @DF-RHF Final Energy:  -230.78126535719747
    Total Energy =                       -230.7812653571974693
  @DF-RHF Final Energy:  -230.79444110331391
    Total Energy =                       -230.7944411033139431
  Multiplicity = 1
  @DF-RHF Final Energy:  -461.56241364896812
    Total Energy =                       -461.5624136489681177
	 Singles Energy            =      -0.0000000000000000 [Eh]
	 Same-Spin Energy          =      -0.5109750047898866 [Eh]
	 Opposite-Spin Energy      =      -1.6371428364644793 [Eh]
	 Correlation Energy        =      -2.1481178412543658 [Eh]
	 Total Energy              =    -463.7105314902224791 [Eh]
	 SCS Total Energy          =    -463.6973100543221449 [Eh]
    Molecular point group: c1

    Geometry (in Angstrom), charge = 0, multiplicity = 1:

       Center              X                  Y                   Z               Mass
    ------------   -----------------  -----------------  -----------------  -----------------
         C           -0.333418468480     1.126120193696    -3.251614090070    12.000000000000
         H            0.311781531520     1.991520193696    -3.184414090070     1.007825032230
         C            0.212181531520    -0.154129806304    -3.187924090070    12.000000000000
         H            1.278891531520    -0.281979806304    -3.065414090070     1.007825032230
         C           -0.619168468480    -1.269409806304    -3.269504090070    12.000000000000
         H           -0.195608468480    -2.263309806304    -3.217404090070     1.007825032230
         C           -1.995638468480    -1.104949806304    -3.412464090070    12.000000000000
         H           -2.640518468480    -1.971149806304    -3.475864090070     1.007825032230
         C           -2.541588468480     0.176170193696    -3.473704090070    12.000000000000
         H           -3.609838468480     0.304340193696    -3.585854090070     1.007825032230
         C           -1.709888468480     1.291760193696    -3.395554090070    12.000000000000
         H           -2.132958468480     2.286120193696    -3.445044090070     1.007825032230
         C            1.995561531520     1.104990193696     3.412965909930    12.000000000000
         H            2.640411531520     1.971170193696     3.476715909930     1.007825032230
         C            2.541521531520    -0.176159806304     3.474485909930    12.000000000000
         H            3.609721531520    -0.304309806304     3.587225909930     1.007825032230
         C            1.709871531520    -1.291759806304     3.395835909930    12.000000000000
         H            2.132951531520    -2.286109806304     3.445485909930     1.007825032230
         C            0.333461531520    -1.126129806304     3.251115909930    12.000000000000
         H           -0.311638468480    -1.991539806304     3.183485909930     1.007825032230
         C           -0.212088468480     0.154110193696     3.187155909930    12.000000000000
         H           -1.278718468480     0.281930193696     3.063975909930     1.007825032230
         C            0.619181531520     1.269390193696     3.269225909930    12.000000000000
         H            0.195661531520     2.263290193696     3.216855909930     1.007825032230

  Charge       = 0
  Multiplicity = 1
  Basis Set: AUG-CC-PVQZ
    Blend: AUG-CC-PVQZ
  Basis Set: (AUG-CC-PVQZ AUX)
    Blend: AUG-CC-PVQZ-JKFIT

    Orbital Energies [Eh]
    ---------------------

    Doubly Occupied:

       1A    -11.233670     2A    -11.233669     3A    -11.233063
       4A    -11.233061     5A    -11.232947     6A    -11.232944
       7A    -11.231805     8A    -11.231805     9A    -11.231780
      10A    -11.231777    11A    -11.231085    12A    -11.231081
      13A     -1.148593    14A     -1.148589    15A     -1.013065
      16A     -1.013061    17A     -1.012917    18A     -1.012915
      19A     -0.822502    20A     -0.822500    21A     -0.822425
      22A     -0.822423    23A     -0.708216    24A     -0.708212
      25A     -0.642530    26A     -0.642528    27A     -0.617719
      28A     -0.617715    29A     -0.586687    30A     -0.586684
      31A     -0.586496    32A     -0.586491    33A     -0.501099
      34A     -0.500887    35A     -0.493542    36A     -0.493541
      37A     -0.493336    38A     -0.493334    39A     -0.335449
      40A     -0.335446    41A     -0.335249    42A     -0.335215

  @DF-RHF Final Energy:  -461.58874359263359

   => Energetics <=

    Nuclear Repulsion Energy =            534.9963876320024383
    One-Electron Energy =               -1683.1141663688874814
    Two-Electron Energy =                 686.5290351442515657
    Total Energy =                       -461.5887435926335911

  Dipole Moment: [D]
     X:     0.0001      Y:    -0.0000      Z:    -0.0003     Total:     0.0003

  Basis Set: (AUG-CC-PVQZ AUX)
    Blend: AUG-CC-PVQZ-RI
	 Reference Energy          =    -461.5887435926335911 [Eh]
	 Singles Energy            =      -0.0000000000000000 [Eh]
	 Same-Spin Energy          =      -0.5400861831256669 [Eh]
	 Opposite-Spin Energy      =      -1.8365904265187389 [Eh]
	 Correlation Energy        =      -2.3766766096444059 [Eh]
	 Total Energy              =    -463.9654202022779828 [Eh]

	 ================> DF-SCS-MP2 Energies <==================
	-----------------------------------------------------------
	 SCS Same-Spin Scale       =       0.3333333333333333 [-]
	 SCS Opposite-Spin Scale   =       1.2000000000000000 [-]
	 SCS Same-Spin Energy      =      -0.1800287277085556 [Eh]
	 SCS Opposite-Spin Energy  =      -2.2039085118224868 [Eh]
	 SCS Correlation Energy    =      -2.3839372395310425 [Eh]
	 SCS Total Energy          =    -463.9726808321646558 [Eh]
	-----------------------------------------------------------

*** Psi4 exiting successfully. Buy a developer a beer!
