                               Psi4 1.4a2.dev224

  ==> Input File <==

--------------------------------------------------------------------------
#Generated by lconvert.py for cbs job

memory 40 GB

molecule  {
0 1
  C        0.7126450     1.1209960     0.0605410
  H        1.3578420     1.9863990     0.1277370
  C        1.2582360    -0.1592520     0.1242340
  H        2.3249540    -0.2871000     0.2467430
  C        0.4268850    -1.2745270     0.0426500
  H        0.8504450    -2.2684330     0.0947500
  C       -0.9495780    -1.1100740    -0.1003140
  H       -1.5944560    -1.9762740    -0.1637130
  C       -1.4955260     0.1710510    -0.1615460
  H       -2.5637830     0.2992210    -0.2737030
  C       -0.6638280     1.2866430    -0.0834010
  H       -1.0869010     2.2810000    -0.1328860
--
0 1
  C        1.8888050     1.1106860     3.4272350
  H        2.5336500     1.9768690     3.4909860
  C        2.4347580    -0.1704650     3.4887550
  H        3.5029650    -0.2986120     3.6014990
  C        1.6031080    -1.2860660     3.4101050
  H        2.0261900    -2.2804180     3.4597580
  C        0.2267070    -1.1204310     3.2653880
  H       -0.4183960    -1.9858410     3.1977550
  C       -0.3188530     0.1598020     3.2014220
  H       -1.3854810     0.2876310     3.0782430
  C        0.5124240     1.2750830     3.2834930
  H        0.0888990     2.2689880     3.2311240
units angstrom
no_reorient
symmetry c1
}

set {
scf_type DF
mp2_type DF
e_convergence 7
reference rhf
}

energy('mp2/aug-cc-pv[tq]z', bsse_type='cp')
--------------------------------------------------------------------------

    Molecular point group: c1
  Charge       = 0
  Multiplicity = 1
  Basis Set: AUG-CC-PVTZ
    Blend: AUG-CC-PVTZ
  Basis Set: (AUG-CC-PVTZ AUX)
    Blend: AUG-CC-PVTZ-JKFIT
  @DF-RHF Final Energy:  -230.78126515166491
    Total Energy =                       -230.7812651516649112
  Basis Set: (AUG-CC-PVTZ AUX)
    Blend: AUG-CC-PVTZ-RI
	 Reference Energy          =    -230.7812651516649112 [Eh]
	 Singles Energy            =      -0.0000000000000000 [Eh]
	 Same-Spin Energy          =      -0.2553783080213144 [Eh]
	 Opposite-Spin Energy      =      -0.8183093226481608 [Eh]
	 Correlation Energy        =      -1.0736876306694754 [Eh]
	 Total Energy              =    -231.8549527823343794 [Eh]
	 SCS Total Energy          =    -231.8483624415164854 [Eh]
    Molecular point group: c1
  Basis Set: AUG-CC-PVQZ
    Blend: AUG-CC-PVQZ
  Basis Set: (AUG-CC-PVQZ AUX)
    Blend: AUG-CC-PVQZ-JKFIT
  @DF-RHF Final Energy:  -230.79444090174400
    Total Energy =                       -230.7944409017439966
  Basis Set: (AUG-CC-PVQZ AUX)
  @DF-RHF Final Energy:  -230.78148561317468
    Total Energy =                       -230.7814856131747092
  @DF-RHF Final Energy:  -230.79450054808240
    Total Energy =                       -230.7945005480823966
  @DF-RHF Final Energy:  -230.78148582872950
    Total Energy =                       -230.7814858287295010
  @DF-RHF Final Energy:  -230.79450070961497
    Total Energy =                       -230.7945007096149652
  @DF-RHF Final Energy:  -230.78126531061702
    Total Energy =                       -230.7812653106170160
  @DF-RHF Final Energy:  -230.79444106022135
    Total Energy =                       -230.7944410602213452
  Multiplicity = 1
  @DF-RHF Final Energy:  -461.54976963404141
    Total Energy =                       -461.5497696340414677
	 Singles Energy            =      -0.0000000000000000 [Eh]
	 Same-Spin Energy          =      -0.5209673741972001 [Eh]
	 Opposite-Spin Energy      =      -1.6526050572293203 [Eh]
	 Correlation Energy        =      -2.1735724314265203 [Eh]
	 Total Energy              =    -463.7233420654679321 [Eh]
	 SCS Total Energy          =    -463.7065514941156721 [Eh]
    Molecular point group: c1

    Geometry (in Angstrom), charge = 0, multiplicity = 1:

       Center              X                  Y                   Z               Mass
    ------------   -----------------  -----------------  -----------------  -----------------
         C            0.242995480470     1.120708936638    -1.602670763193    12.000000000000
         H            0.888192480470     1.986111936638    -1.535474763193     1.007825032230
         C            0.788586480470    -0.159539063362    -1.538977763193    12.000000000000
         H            1.855304480470    -0.287387063362    -1.416468763193     1.007825032230
         C           -0.042764519530    -1.274814063362    -1.620561763193    12.000000000000
         H            0.380795480470    -2.268720063362    -1.568461763193     1.007825032230
         C           -1.419227519530    -1.110361063362    -1.763525763193    12.000000000000
         H           -2.064105519530    -1.976561063362    -1.826924763193     1.007825032230
         C           -1.965175519530     0.170763936638    -1.824757763193    12.000000000000
         H           -3.033432519530     0.298933936638    -1.936914763193     1.007825032230
         C           -1.133477519530     1.286355936638    -1.746612763193    12.000000000000
         H           -1.556550519530     2.280712936638    -1.796097763193     1.007825032230
         C            1.419155480470     1.110398936638     1.764023236807    12.000000000000
         H            2.064000480470     1.976581936638     1.827774236807     1.007825032230
         C            1.965108480470    -0.170752063362     1.825543236807    12.000000000000
         H            3.033315480470    -0.298899063362     1.938287236807     1.007825032230
         C            1.133458480470    -1.286353063362     1.746893236807    12.000000000000
         H            1.556540480470    -2.280705063362     1.796546236807     1.007825032230
         C           -0.242942519530    -1.120718063362     1.602176236807    12.000000000000
         H           -0.888045519530    -1.986128063362     1.534543236807     1.007825032230
         C           -0.788502519530     0.159514936638     1.538210236807    12.000000000000
         H           -1.855130519530     0.287343936638     1.415031236807     1.007825032230
         C            0.042774480470     1.274795936638     1.620281236807    12.000000000000
         H           -0.380750519530     2.268700936638     1.567912236807     1.007825032230

  Charge       = 0
  Multiplicity = 1
  Basis Set: AUG-CC-PVQZ
    Blend: AUG-CC-PVQZ
  Basis Set: (AUG-CC-PVQZ AUX)
    Blend: AUG-CC-PVQZ-JKFIT

    Orbital Energies [Eh]
    ---------------------

    Doubly Occupied:

       1A    -11.229177     2A    -11.229173     3A    -11.228246
       4A    -11.228237     5A    -11.228095     6A    -11.228084
       7A    -11.226962     8A    -11.226954     9A    -11.226802
      10A    -11.226794    11A    -11.225397    12A    -11.225382
      13A     -1.147385    14A     -1.141086    15A     -1.011543
      16A     -1.009245    17A     -1.008019    18A     -1.006188
      19A     -0.819277    20A     -0.818555    21A     -0.818373
      22A     -0.817348    23A     -0.705436    24A     -0.703074
      25A     -0.639023    26A     -0.638806    27A     -0.613421
      28A     -0.612985    29A     -0.584067    30A     -0.582876
      31A     -0.582302    32A     -0.581165    33A     -0.519417
      34A     -0.489591    35A     -0.489551    36A     -0.489290
      37A     -0.489153    38A     -0.475123    39A     -0.350739
      40A     -0.333381    41A     -0.326088    42A     -0.312291

  @DF-RHF Final Energy:  -461.57580650260729

   => Energetics <=

    Nuclear Repulsion Energy =            638.0451654827190850
    One-Electron Energy =               -1889.5537230116910905
    Two-Electron Energy =                 789.9327510263647127
    Total Energy =                       -461.5758065026072927

  Dipole Moment: [D]
     X:     0.0000      Y:     0.0000      Z:    -0.0006     Total:     0.0006

  Basis Set: (AUG-CC-PVQZ AUX)
    Blend: AUG-CC-PVQZ-RI
	 Reference Energy          =    -461.5758065026072927 [Eh]
	 Singles Energy            =      -0.0000000000000000 [Eh]
	 Same-Spin Energy          =      -0.5498296977145430 [Eh]
	 Opposite-Spin Energy      =      -1.8491766778975975 [Eh]
	 Correlation Energy        =      -2.3990063756121405 [Eh]
	 Total Energy              =    -463.9748128782194385 [Eh]

	 ================> DF-SCS-MP2 Energies <==================
	-----------------------------------------------------------
	 SCS Same-Spin Scale       =       0.3333333333333333 [-]
	 SCS Opposite-Spin Scale   =       1.2000000000000000 [-]
	 SCS Same-Spin Energy      =      -0.1832765659048477 [Eh]
	 SCS Opposite-Spin Energy  =      -2.2190120134771170 [Eh]
	 SCS Correlation Energy    =      -2.4022885793819646 [Eh]
	 SCS Total Energy          =    -463.9780950819892382 [Eh]
	-----------------------------------------------------------

*** Psi4 exiting successfully. Buy a developer a beer!
