                               Psi4 1.4a2.dev224

  ==> Input File <==

--------------------------------------------------------------------------
#Generated by lconvert.py for cbs job

memory 20 GB

molecule  {
0 1
  C       0.712640    1.121000    0.060540
  H       1.357840    1.986400    0.127740
  C       1.258240   -0.159250    0.124230
  H       2.324950   -0.287100    0.246740
  C       0.426890   -1.274530    0.042650
  H       0.850450   -2.268430    0.094750
  C      -0.949580   -1.110070   -0.100310
  H      -1.594460   -1.976270   -0.163710
  C      -1.495530    0.171050   -0.161550
  H      -2.563780    0.299220   -0.273700
  C      -0.663830    1.286640   -0.083400
  H      -1.086900    2.281000   -0.132890
--
0 1
  C       2.312590    1.106710    4.639560
  H       2.957430    1.972890    4.703310
  C       2.858540   -0.174440    4.701080
  H       3.926750   -0.302590    4.813820
  C       2.026890   -1.290040    4.622430
  H       2.449970   -2.284390    4.672080
  C       0.650490   -1.124410    4.477710
  H       0.005390   -1.989820    4.410080
  C       0.104930    0.155830    4.413740
  H      -0.961700    0.283650    4.290560
  C       0.936210    1.271110    4.495810
  H       0.512680    2.265010    4.443440
units angstrom
no_reorient
symmetry c1
}

set {
scf_type DF
mp2_type DF
e_convergence 7
reference rhf
}

energy('mp2/aug-cc-pv[tq]z', bsse_type='cp')
--------------------------------------------------------------------------

    Molecular point group: c1
  Charge       = 0
  Multiplicity = 1
  Basis Set: AUG-CC-PVTZ
    Blend: AUG-CC-PVTZ
  Basis Set: (AUG-CC-PVTZ AUX)
    Blend: AUG-CC-PVTZ-JKFIT
  @DF-RHF Final Energy:  -230.78126519934989
    Total Energy =                       -230.7812651993498889
  Basis Set: (AUG-CC-PVTZ AUX)
    Blend: AUG-CC-PVTZ-RI
	 Reference Energy          =    -230.7812651993498889 [Eh]
	 Singles Energy            =      -0.0000000000000000 [Eh]
	 Same-Spin Energy          =      -0.2553782945553770 [Eh]
	 Opposite-Spin Energy      =      -0.8183093070071343 [Eh]
	 Correlation Energy        =      -1.0736876015625114 [Eh]
	 Total Energy              =    -231.8549528009124003 [Eh]
	 SCS Total Energy          =    -231.8483624659435804 [Eh]
    Molecular point group: c1
  Basis Set: AUG-CC-PVQZ
    Blend: AUG-CC-PVQZ
  Basis Set: (AUG-CC-PVQZ AUX)
    Blend: AUG-CC-PVQZ-JKFIT
  @DF-RHF Final Energy:  -230.79444094747882
    Total Energy =                       -230.7944409474787903
  Basis Set: (AUG-CC-PVQZ AUX)
  @DF-RHF Final Energy:  -230.78136079964312
    Total Energy =                       -230.7813607996431529
  @DF-RHF Final Energy:  -230.79446558232479
    Total Energy =                       -230.7944655823247899
  @DF-RHF Final Energy:  -230.78136098028625
    Total Energy =                       -230.7813609802862516
  @DF-RHF Final Energy:  -230.79446574276255
    Total Energy =                       -230.7944657427625543
  @DF-RHF Final Energy:  -230.78126535390311
    Total Energy =                       -230.7812653539031089
  @DF-RHF Final Energy:  -230.79444110255619
    Total Energy =                       -230.7944411025562204
  Multiplicity = 1
  @DF-RHF Final Energy:  -461.56175398663834
    Total Energy =                       -461.5617539866383368
	 Singles Energy            =      -0.0000000000000000 [Eh]
	 Same-Spin Energy          =      -0.5127698100223166 [Eh]
	 Opposite-Spin Energy      =      -1.6401658466958646 [Eh]
	 Correlation Energy        =      -2.1529356567181814 [Eh]
	 Total Energy              =    -463.7146896433565075 [Eh]
	 SCS Total Energy          =    -463.7008762726808300 [Eh]
    Molecular point group: c1

    Geometry (in Angstrom), charge = 0, multiplicity = 1:

       Center              X                  Y                   Z               Mass
    ------------   -----------------  -----------------  -----------------  -----------------
         C            0.031099096086     1.122700193696    -2.208832423403    12.000000000000
         H            0.676299096086     1.988100193696    -2.141632423403     1.007825032230
         C            0.576699096086    -0.157549806304    -2.145142423403    12.000000000000
         H            1.643409096086    -0.285399806304    -2.022632423403     1.007825032230
         C           -0.254650903914    -1.272829806304    -2.226722423403    12.000000000000
         H            0.168909096086    -2.266729806304    -2.174622423403     1.007825032230
         C           -1.631120903914    -1.108369806304    -2.369682423403    12.000000000000
         H           -2.276000903914    -1.974569806304    -2.433082423403     1.007825032230
         C           -2.177070903914     0.172750193696    -2.430922423403    12.000000000000
         H           -3.245320903914     0.300920193696    -2.543072423403     1.007825032230
         C           -1.345370903914     1.288340193696    -2.352772423403    12.000000000000
         H           -1.768440903914     2.282700193696    -2.402262423403     1.007825032230
         C            1.631049096086     1.108410193696     2.370187576597    12.000000000000
         H            2.275889096086     1.974590193696     2.433937576597     1.007825032230
         C            2.176999096086    -0.172739806304     2.431707576597    12.000000000000
         H            3.245209096086    -0.300889806304     2.544447576597     1.007825032230
         C            1.345349096086    -1.288339806304     2.353057576597    12.000000000000
         H            1.768429096086    -2.282689806304     2.402707576597     1.007825032230
         C           -0.031050903914    -1.122709806304     2.208337576597    12.000000000000
         H           -0.676150903914    -1.988119806304     2.140707576597     1.007825032230
         C           -0.576610903914     0.157530193696     2.144367576597    12.000000000000
         H           -1.643240903914     0.285350193696     2.021187576597     1.007825032230
         C            0.254669096086     1.272810193696     2.226437576597    12.000000000000
         H           -0.168860903914     2.266710193696     2.174067576597     1.007825032230

  Charge       = 0
  Multiplicity = 1
  Basis Set: AUG-CC-PVQZ
    Blend: AUG-CC-PVQZ
  Basis Set: (AUG-CC-PVQZ AUX)
    Blend: AUG-CC-PVQZ-JKFIT

    Orbital Energies [Eh]
    ---------------------

    Doubly Occupied:

       1A    -11.231862     2A    -11.231861     3A    -11.231148
       4A    -11.231144     5A    -11.230815     6A    -11.230810
       7A    -11.229911     8A    -11.229908     9A    -11.229740
      10A    -11.229734    11A    -11.228837    12A    -11.228829
      13A     -1.146680    14A     -1.146323    15A     -1.011088
      16A     -1.010998    17A     -1.010930    18A     -1.010805
      19A     -0.820598    20A     -0.820505    21A     -0.820459
      22A     -0.820414    23A     -0.706366    24A     -0.706183
      25A     -0.640728    26A     -0.640634    27A     -0.615717
      28A     -0.615681    29A     -0.584782    30A     -0.584682
      31A     -0.584674    32A     -0.584511    33A     -0.502383
      34A     -0.495391    35A     -0.491585    36A     -0.491552
      37A     -0.491513    38A     -0.491450    39A     -0.336465
      40A     -0.333599    41A     -0.332508    42A     -0.330260

  @DF-RHF Final Energy:  -461.58796770556808

   => Energetics <=

    Nuclear Repulsion Energy =            586.3131237754838594
    One-Electron Energy =               -1785.9140682439806369
    Two-Electron Energy =                 738.0129767629288153
    Total Energy =                       -461.5879677055680759

  Dipole Moment: [D]
     X:     0.0001      Y:    -0.0000      Z:    -0.0004     Total:     0.0004

  Basis Set: (AUG-CC-PVQZ AUX)
    Blend: AUG-CC-PVQZ-RI
	 Reference Energy          =    -461.5879677055680759 [Eh]
	 Singles Energy            =      -0.0000000000000000 [Eh]
	 Same-Spin Energy          =      -0.5417814912979957 [Eh]
	 Opposite-Spin Energy      =      -1.8387930042259581 [Eh]
	 Correlation Energy        =      -2.3805744955239536 [Eh]
	 Total Energy              =    -463.9685422010920206 [Eh]

	 ================> DF-SCS-MP2 Energies <==================
	-----------------------------------------------------------
	 SCS Same-Spin Scale       =       0.3333333333333333 [-]
	 SCS Opposite-Spin Scale   =       1.2000000000000000 [-]
	 SCS Same-Spin Energy      =      -0.1805938304326652 [Eh]
	 SCS Opposite-Spin Energy  =      -2.2065516050711498 [Eh]
	 SCS Correlation Energy    =      -2.3871454355038151 [Eh]
	 SCS Total Energy          =    -463.9751131410719154 [Eh]
	-----------------------------------------------------------

*** Psi4 exiting successfully. Buy a developer a beer!
