                               Psi4 1.4a2.dev224

  ==> Input File <==

--------------------------------------------------------------------------
#Generated by lconvert.py for cbs job

memory 40 GB

molecule  {
0 1
  C        0.7126450     1.1209960     0.0605410
  H        1.3578420     1.9863990     0.1277370
  C        1.2582360    -0.1592520     0.1242340
  H        2.3249540    -0.2871000     0.2467430
  C        0.4268850    -1.2745270     0.0426500
  H        0.8504450    -2.2684330     0.0947500
  C       -0.9495780    -1.1100740    -0.1003140
  H       -1.5944560    -1.9762740    -0.1637130
  C       -1.4955260     0.1710510    -0.1615460
  H       -2.5637830     0.2992210    -0.2737030
  C       -0.6638280     1.2866430    -0.0834010
  H       -1.0869010     2.2810000    -0.1328860
--
0 1
  C        1.5851170     1.1135350     2.5584700
  H        2.2299620     1.9797190     2.6222200
  C        2.1310700    -0.1676160     2.6199890
  H        3.1992770    -0.2957630     2.7327340
  C        1.2994200    -1.2832160     2.5413390
  H        1.7225020    -2.2775690     2.5909930
  C       -0.0769810    -1.1175810     2.3966220
  H       -0.7220840    -1.9829910     2.3289900
  C       -0.6225410     0.1626520     2.3326560
  H       -1.6891690     0.2904810     2.2094780
  C        0.2087360     1.2779320     2.4147270
  H       -0.2147890     2.2718370     2.3623580
units angstrom
no_reorient
symmetry c1
}

set {
scf_type DF
mp2_type DF
e_convergence 7
reference rhf
}

energy('mp2/aug-cc-pv[tq]z', bsse_type='cp')
--------------------------------------------------------------------------

    Molecular point group: c1
  Charge       = 0
  Multiplicity = 1
  Basis Set: AUG-CC-PVTZ
    Blend: AUG-CC-PVTZ
  Basis Set: (AUG-CC-PVTZ AUX)
    Blend: AUG-CC-PVTZ-JKFIT
  @DF-RHF Final Energy:  -230.78126517190316
    Total Energy =                       -230.7812651719031578
  Basis Set: (AUG-CC-PVTZ AUX)
    Blend: AUG-CC-PVTZ-RI
	 Reference Energy          =    -230.7812651719031578 [Eh]
	 Singles Energy            =      -0.0000000000000000 [Eh]
	 Same-Spin Energy          =      -0.2553783103046939 [Eh]
	 Opposite-Spin Energy      =      -0.8183093150606211 [Eh]
	 Correlation Energy        =      -1.0736876253653151 [Eh]
	 Total Energy              =    -231.8549527972684814 [Eh]
	 SCS Total Energy          =    -231.8483624534108003 [Eh]
    Molecular point group: c1
  Basis Set: AUG-CC-PVQZ
    Blend: AUG-CC-PVQZ
  Basis Set: (AUG-CC-PVQZ AUX)
    Blend: AUG-CC-PVQZ-JKFIT
  @DF-RHF Final Energy:  -230.79444091707578
    Total Energy =                       -230.7944409170758036
  Basis Set: (AUG-CC-PVQZ AUX)
  @DF-RHF Final Energy:  -230.78177061363300
    Total Energy =                       -230.7817706136330003
  @DF-RHF Final Energy:  -230.79454727650040
    Total Energy =                       -230.7945472765003956
  @DF-RHF Final Energy:  -230.78177091586701
    Total Energy =                       -230.7817709158670141
  @DF-RHF Final Energy:  -230.79454742709561
    Total Energy =                       -230.7945474270956083
  @DF-RHF Final Energy:  -230.78126531175738
    Total Energy =                       -230.7812653117574087
  @DF-RHF Final Energy:  -230.79444106154102
    Total Energy =                       -230.7944410615410220
  Multiplicity = 1
  @DF-RHF Final Energy:  -461.42501529464784
    Total Energy =                       -461.4250152946478920
	 Singles Energy            =      -0.0000000000000000 [Eh]
	 Same-Spin Energy          =      -0.5474270863494282 [Eh]
	 Opposite-Spin Energy      =      -1.6924960504565782 [Eh]
	 Correlation Energy        =      -2.2399231368060066 [Eh]
	 Total Energy              =    -463.6649384314538338 [Eh]
	 SCS Total Energy          =    -463.6384862506455420 [Eh]
    Molecular point group: c1

    Geometry (in Angstrom), charge = 0, multiplicity = 1:

       Center              X                  Y                   Z               Mass
    ------------   -----------------  -----------------  -----------------  -----------------
         C            0.394839480470     1.119284186638    -1.168287865896    12.000000000000
         H            1.040036480470     1.984687186638    -1.101091865896     1.007825032230
         C            0.940430480470    -0.160963813362    -1.104594865896    12.000000000000
         H            2.007148480470    -0.288811813362    -0.982085865896     1.007825032230
         C            0.109079480470    -1.276238813362    -1.186178865896    12.000000000000
         H            0.532639480470    -2.270144813362    -1.134078865896     1.007825032230
         C           -1.267383519530    -1.111785813362    -1.329142865896    12.000000000000
         H           -1.912261519530    -1.977985813362    -1.392541865896     1.007825032230
         C           -1.813331519530     0.169339186638    -1.390374865896    12.000000000000
         H           -2.881588519530     0.297509186638    -1.502531865896     1.007825032230
         C           -0.981633519530     1.284931186638    -1.312229865896    12.000000000000
         H           -1.404706519530     2.279288186638    -1.361714865896     1.007825032230
         C            1.267311480470     1.111823186638     1.329641134104    12.000000000000
         H            1.912156480470     1.978007186638     1.393391134104     1.007825032230
         C            1.813264480470    -0.169327813362     1.391160134104    12.000000000000
         H            2.881471480470    -0.297474813362     1.503905134104     1.007825032230
         C            0.981614480470    -1.284927813362     1.312510134104    12.000000000000
         H            1.404696480470    -2.279280813362     1.362164134104     1.007825032230
         C           -0.394786519530    -1.119292813362     1.167793134104    12.000000000000
         H           -1.039889519530    -1.984702813362     1.100161134104     1.007825032230
         C           -0.940346519530     0.160940186638     1.103827134104    12.000000000000
         H           -2.006974519530     0.288769186638     0.980649134104     1.007825032230
         C           -0.109069519530     1.276220186638     1.185898134104    12.000000000000
         H           -0.532594519530     2.270125186638     1.133529134104     1.007825032230

  Charge       = 0
  Multiplicity = 1
  Basis Set: AUG-CC-PVQZ
    Blend: AUG-CC-PVQZ
  Basis Set: (AUG-CC-PVQZ AUX)
    Blend: AUG-CC-PVQZ-JKFIT

    Orbital Energies [Eh]
    ---------------------

    Doubly Occupied:

       1A    -11.231748     2A    -11.231729     3A    -11.231219
       4A    -11.231195     5A    -11.224583     6A    -11.224564
       7A    -11.220778     8A    -11.220759     9A    -11.218507
      10A    -11.218485    11A    -11.216871    12A    -11.216849
      13A     -1.172687    14A     -1.125486    15A     -1.035092
      16A     -1.022808    17A     -0.999142    18A     -0.992160
      19A     -0.832920    20A     -0.828365    21A     -0.813326
      22A     -0.809982    23A     -0.716712    24A     -0.697283
      25A     -0.648297    26A     -0.634430    27A     -0.616260
      28A     -0.613255    29A     -0.592611    30A     -0.587129
      31A     -0.584495    32A     -0.574230    33A     -0.562361
      34A     -0.494981    35A     -0.491875    36A     -0.488355
      37A     -0.485219    38A     -0.430674    39A     -0.394311
      40A     -0.341653    41A     -0.294430    42A     -0.264977

  @DF-RHF Final Energy:  -461.45069048944458

   => Energetics <=

    Nuclear Repulsion Energy =            694.5226291092825477
    One-Electron Energy =               -2002.2810182404814441
    Two-Electron Energy =                 846.3076986417542003
    Total Energy =                       -461.4506904894445825

  Dipole Moment: [D]
     X:    -0.0004      Y:     0.0000      Z:    -0.0010     Total:     0.0011

  Basis Set: (AUG-CC-PVQZ AUX)
    Blend: AUG-CC-PVQZ-RI
	 Reference Energy          =    -461.4506904894445825 [Eh]
	 Singles Energy            =      -0.0000000000000000 [Eh]
	 Same-Spin Energy          =      -0.5761305375221106 [Eh]
	 Opposite-Spin Energy      =      -1.8844153184387527 [Eh]
	 Correlation Energy        =      -2.4605458559608633 [Eh]
	 Total Energy              =    -463.9112363454054275 [Eh]

	 ================> DF-SCS-MP2 Energies <==================
	-----------------------------------------------------------
	 SCS Same-Spin Scale       =       0.3333333333333333 [-]
	 SCS Opposite-Spin Scale   =       1.2000000000000000 [-]
	 SCS Same-Spin Energy      =      -0.1920435125073702 [Eh]
	 SCS Opposite-Spin Energy  =      -2.2612983821265029 [Eh]
	 SCS Correlation Energy    =      -2.4533418946338732 [Eh]
	 SCS Total Energy          =    -463.9040323840784481 [Eh]
	-----------------------------------------------------------

*** Psi4 exiting successfully. Buy a developer a beer!
