                               Psi4 1.4a2.dev224

  ==> Input File <==

--------------------------------------------------------------------------
#Generated by lconvert.py for cbs job

memory 40 GB

molecule  {
0 1
  C        0.7126450     1.1209960     0.0605410
  H        1.3578420     1.9863990     0.1277370
  C        1.2582360    -0.1592520     0.1242340
  H        2.3249540    -0.2871000     0.2467430
  C        0.4268850    -1.2745270     0.0426500
  H        0.8504450    -2.2684330     0.0947500
  C       -0.9495780    -1.1100740    -0.1003140
  H       -1.5944560    -1.9762740    -0.1637130
  C       -1.4955260     0.1710510    -0.1615460
  H       -2.5637830     0.2992210    -0.2737030
  C       -0.6638280     1.2866430    -0.0834010
  H       -1.0869010     2.2810000    -0.1328860
--
0 1
  C        2.0097530     1.1095510     3.7732340
  H        2.6545980     1.9757350     3.8369850
  C        2.5557060    -0.1716000     3.8347540
  H        3.6239130    -0.2997470     3.9474980
  C        1.7240570    -1.2872000     3.7561030
  H        2.1471380    -2.2815530     3.8057570
  C        0.3476550    -1.1215650     3.6113860
  H       -0.2974480    -1.9869760     3.5437540
  C       -0.1979050     0.1586670     3.5474210
  H       -1.2645330     0.2864970     3.4242420
  C        0.6333720     1.2739480     3.6294920
  H        0.2098470     2.2678530     3.5771230
units angstrom
no_reorient
symmetry c1
}

set {
scf_type DF
mp2_type DF
e_convergence 7
reference rhf
}

energy('mp2/aug-cc-pv[tq]z', bsse_type='cp')
--------------------------------------------------------------------------

    Molecular point group: c1
  Charge       = 0
  Multiplicity = 1
  Basis Set: AUG-CC-PVTZ
    Blend: AUG-CC-PVTZ
  Basis Set: (AUG-CC-PVTZ AUX)
    Blend: AUG-CC-PVTZ-JKFIT
  @DF-RHF Final Energy:  -230.78126515942006
    Total Energy =                       -230.7812651594200588
  Basis Set: (AUG-CC-PVTZ AUX)
    Blend: AUG-CC-PVTZ-RI
	 Reference Energy          =    -230.7812651594200588 [Eh]
	 Singles Energy            =      -0.0000000000000000 [Eh]
	 Same-Spin Energy          =      -0.2553783111446610 [Eh]
	 Opposite-Spin Energy      =      -0.8183093212377304 [Eh]
	 Correlation Energy        =      -1.0736876323823914 [Eh]
	 Total Energy              =    -231.8549527918024467 [Eh]
	 SCS Total Energy          =    -231.8483624486202359 [Eh]
    Molecular point group: c1
  Basis Set: AUG-CC-PVQZ
    Blend: AUG-CC-PVQZ
  Basis Set: (AUG-CC-PVQZ AUX)
    Blend: AUG-CC-PVQZ-JKFIT
  @DF-RHF Final Energy:  -230.79444090438173
    Total Energy =                       -230.7944409043817586
  Basis Set: (AUG-CC-PVQZ AUX)
  @DF-RHF Final Energy:  -230.78143600580478
    Total Energy =                       -230.7814360058047782
  @DF-RHF Final Energy:  -230.79448649072316
    Total Energy =                       -230.7944864907231590
  @DF-RHF Final Energy:  -230.78143621805245
    Total Energy =                       -230.7814362180524199
  @DF-RHF Final Energy:  -230.79448665261387
    Total Energy =                       -230.7944866526138981
  @DF-RHF Final Energy:  -230.78126530807296
    Total Energy =                       -230.7812653080729319
  @DF-RHF Final Energy:  -230.79444106023561
    Total Energy =                       -230.7944410602356129
  Multiplicity = 1
  @DF-RHF Final Energy:  -461.55747433456065
    Total Energy =                       -461.5574743345606521
	 Singles Energy            =      -0.0000000000000000 [Eh]
	 Same-Spin Energy          =      -0.5170267357370575 [Eh]
	 Opposite-Spin Energy      =      -1.6466641442196046 [Eh]
	 Correlation Energy        =      -2.1636908799566621 [Eh]
	 Total Energy              =    -463.7211652145173275 [Eh]
	 SCS Total Energy          =    -463.7058135528698699 [Eh]
    Molecular point group: c1

    Geometry (in Angstrom), charge = 0, multiplicity = 1:

       Center              X                  Y                   Z               Mass
    ------------   -----------------  -----------------  -----------------  -----------------
         C            0.182521403593     1.121276269971    -1.775670109440    12.000000000000
         H            0.827718403593     1.986679269971    -1.708474109440     1.007825032230
         C            0.728112403593    -0.158971730029    -1.711977109440    12.000000000000
         H            1.794830403593    -0.286819730029    -1.589468109440     1.007825032230
         C           -0.103238596407    -1.274246730029    -1.793561109440    12.000000000000
         H            0.320321403593    -2.268152730029    -1.741461109440     1.007825032230
         C           -1.479701596407    -1.109793730029    -1.936525109440    12.000000000000
         H           -2.124579596407    -1.975993730029    -1.999924109440     1.007825032230
         C           -2.025649596407     0.171331269971    -1.997757109440    12.000000000000
         H           -3.093906596407     0.299501269971    -2.109914109440     1.007825032230
         C           -1.193951596407     1.286923269971    -1.919612109440    12.000000000000
         H           -1.617024596407     2.281280269971    -1.969097109440     1.007825032230
         C            1.479629403593     1.109831269971     1.937022890560    12.000000000000
         H            2.124474403593     1.976015269971     2.000773890560     1.007825032230
         C            2.025582403593    -0.171319730029     1.998542890560    12.000000000000
         H            3.093789403593    -0.299466730029     2.111286890560     1.007825032230
         C            1.193933403593    -1.286919730029     1.919891890560    12.000000000000
         H            1.617014403593    -2.281272730029     1.969545890560     1.007825032230
         C           -0.182468596407    -1.121284730029     1.775174890560    12.000000000000
         H           -0.827571596407    -1.986695730029     1.707542890560     1.007825032230
         C           -0.728028596407     0.158947269971     1.711209890560    12.000000000000
         H           -1.794656596407     0.286777269971     1.588030890560     1.007825032230
         C            0.103248403593     1.274228269971     1.793280890560    12.000000000000
         H           -0.320276596407     2.268133269971     1.740911890560     1.007825032230

  Charge       = 0
  Multiplicity = 1
  Basis Set: AUG-CC-PVQZ
    Blend: AUG-CC-PVQZ
  Basis Set: (AUG-CC-PVQZ AUX)
    Blend: AUG-CC-PVQZ-JKFIT

    Orbital Energies [Eh]
    ---------------------

    Doubly Occupied:

       1A    -11.230295     2A    -11.230292     3A    -11.229365
       4A    -11.229358     5A    -11.229055     6A    -11.229047
       7A    -11.228137     8A    -11.228131     9A    -11.227968
      10A    -11.227960    11A    -11.226695    12A    -11.226683
      13A     -1.146282    14A     -1.143484    15A     -1.010614
      16A     -1.009457    17A     -1.009225    18A     -1.008290
      19A     -0.819298    20A     -0.819175    21A     -0.818985
      22A     -0.818589    23A     -0.705381    24A     -0.704297
      25A     -0.639473    26A     -0.639317    27A     -0.614166
      28A     -0.613925    29A     -0.583973    30A     -0.583305
      31A     -0.583077    32A     -0.582521    33A     -0.511018
      34A     -0.490131    35A     -0.490100    36A     -0.490060
      37A     -0.490009    38A     -0.484213    39A     -0.343586
      40A     -0.332083    41A     -0.330002    42A     -0.320489

  @DF-RHF Final Energy:  -461.58357865182217

   => Energetics <=

    Nuclear Repulsion Energy =            620.7415209838218288
    One-Electron Energy =               -1854.8951785541912614
    Two-Electron Energy =                 772.5700789185473241
    Total Energy =                       -461.5835786518221084

  Dipole Moment: [D]
     X:     0.0001      Y:     0.0000      Z:    -0.0005     Total:     0.0005

  Basis Set: (AUG-CC-PVQZ AUX)
    Blend: AUG-CC-PVQZ-RI
	 Reference Energy          =    -461.5835786518221653 [Eh]
	 Singles Energy            =      -0.0000000000000000 [Eh]
	 Same-Spin Energy          =      -0.5459482062357378 [Eh]
	 Opposite-Spin Energy      =      -1.8441168540052670 [Eh]
	 Correlation Energy        =      -2.3900650602410050 [Eh]
	 Total Energy              =    -463.9736437120631649 [Eh]

	 ================> DF-SCS-MP2 Energies <==================
	-----------------------------------------------------------
	 SCS Same-Spin Scale       =       0.3333333333333333 [-]
	 SCS Opposite-Spin Scale   =       1.2000000000000000 [-]
	 SCS Same-Spin Energy      =      -0.1819827354119126 [Eh]
	 SCS Opposite-Spin Energy  =      -2.2129402248063204 [Eh]
	 SCS Correlation Energy    =      -2.3949229602182331 [Eh]
	 SCS Total Energy          =    -463.9785016120404180 [Eh]
	-----------------------------------------------------------

*** Psi4 exiting successfully. Buy a developer a beer!
