                               Psi4 1.4a2.dev224

  ==> Input File <==

--------------------------------------------------------------------------
#Generated by lconvert.py for cbs job

memory 40 GB

molecule  {
0 1
  C        0.7126450     1.1209960     0.0605410
  H        1.3578420     1.9863990     0.1277370
  C        1.2582360    -0.1592520     0.1242340
  H        2.3249540    -0.2871000     0.2467430
  C        0.4268850    -1.2745270     0.0426500
  H        0.8504450    -2.2684330     0.0947500
  C       -0.9495780    -1.1100740    -0.1003140
  H       -1.5944560    -1.9762740    -0.1637130
  C       -1.4955260     0.1710510    -0.1615460
  H       -2.5637830     0.2992210    -0.2737030
  C       -0.6638280     1.2866430    -0.0834010
  H       -1.0869010     2.2810000    -0.1328860
--
0 1
  C        1.7066230     1.1123950     2.9060640
  H        2.3514680     1.9785790     2.9698150
  C        2.2525760    -0.1687560     2.9675840
  H        3.3207830    -0.2969030     3.0803280
  C        1.4209260    -1.2843560     2.8889330
  H        1.8440080    -2.2787090     2.9385870
  C        0.0445250    -1.1187210     2.7442170
  H       -0.6005780    -1.9841310     2.6765840
  C       -0.5010350     0.1615120     2.6802510
  H       -1.5676630     0.2893410     2.5570720
  C        0.3302420     1.2767920     2.7623220
  H       -0.0932830     2.2706970     2.7099530
units angstrom
no_reorient
symmetry c1
}

set {
scf_type DF
mp2_type DF
e_convergence 7
reference rhf
}

energy('mp2/aug-cc-pv[tq]z', bsse_type='cp')
--------------------------------------------------------------------------

    Molecular point group: c1
  Charge       = 0
  Multiplicity = 1
  Basis Set: AUG-CC-PVTZ
    Blend: AUG-CC-PVTZ
  Basis Set: (AUG-CC-PVTZ AUX)
    Blend: AUG-CC-PVTZ-JKFIT
  @DF-RHF Final Energy:  -230.78126517548441
    Total Energy =                       -230.7812651754844069
  Basis Set: (AUG-CC-PVTZ AUX)
    Blend: AUG-CC-PVTZ-RI
	 Reference Energy          =    -230.7812651754844069 [Eh]
	 Singles Energy            =      -0.0000000000000000 [Eh]
	 Same-Spin Energy          =      -0.2553783105419283 [Eh]
	 Opposite-Spin Energy      =      -0.8183093147713010 [Eh]
	 Correlation Energy        =      -1.0736876253132293 [Eh]
	 Total Energy              =    -231.8549528007976335 [Eh]
	 SCS Total Energy          =    -231.8483624567239474 [Eh]
    Molecular point group: c1
  Basis Set: AUG-CC-PVQZ
    Blend: AUG-CC-PVQZ
  Basis Set: (AUG-CC-PVQZ AUX)
    Blend: AUG-CC-PVQZ-JKFIT
  @DF-RHF Final Energy:  -230.79444091511598
    Total Energy =                       -230.7944409151159562
  Basis Set: (AUG-CC-PVQZ AUX)
  @DF-RHF Final Energy:  -230.78162067378747
    Total Energy =                       -230.7816206737874722
  @DF-RHF Final Energy:  -230.79452621648898
    Total Energy =                       -230.7945262164889755
  @DF-RHF Final Energy:  -230.78162097384165
    Total Energy =                       -230.7816209738416546
  @DF-RHF Final Energy:  -230.79452636527515
    Total Energy =                       -230.7945263652751464
  @DF-RHF Final Energy:  -230.78126531120600
    Total Energy =                       -230.7812653112060275
  @DF-RHF Final Energy:  -230.79444106063031
    Total Energy =                       -230.7944410606302768
  Multiplicity = 1
  @DF-RHF Final Energy:  -461.50887707207914
    Total Energy =                       -461.5088770720791445
	 Singles Energy            =      -0.0000000000000000 [Eh]
	 Same-Spin Energy          =      -0.5325682350212227 [Eh]
	 Opposite-Spin Energy      =      -1.6703022142689989 [Eh]
	 Correlation Energy        =      -2.2028704492902218 [Eh]
	 Total Energy              =    -463.7117475213693751 [Eh]
	 SCS Total Energy          =    -463.6907624742090093 [Eh]
    Molecular point group: c1

    Geometry (in Angstrom), charge = 0, multiplicity = 1:

       Center              X                  Y                   Z               Mass
    ------------   -----------------  -----------------  -----------------  -----------------
         C            0.334086480470     1.119854186638    -1.342085186316    12.000000000000
         H            0.979283480470     1.985257186638    -1.274889186316     1.007825032230
         C            0.879677480470    -0.160393813362    -1.278392186316    12.000000000000
         H            1.946395480470    -0.288241813362    -1.155883186316     1.007825032230
         C            0.048326480470    -1.275668813362    -1.359976186316    12.000000000000
         H            0.471886480470    -2.269574813362    -1.307876186316     1.007825032230
         C           -1.328136519530    -1.111215813362    -1.502940186316    12.000000000000
         H           -1.973014519530    -1.977415813362    -1.566339186316     1.007825032230
         C           -1.874084519530     0.169909186638    -1.564172186316    12.000000000000
         H           -2.942341519530     0.298079186638    -1.676329186316     1.007825032230
         C           -1.042386519530     1.285501186638    -1.486027186316    12.000000000000
         H           -1.465459519530     2.279858186638    -1.535512186316     1.007825032230
         C            1.328064480470     1.111253186638     1.503437813684    12.000000000000
         H            1.972909480470     1.977437186638     1.567188813684     1.007825032230
         C            1.874017480470    -0.169897813362     1.564957813684    12.000000000000
         H            2.942224480470    -0.298044813362     1.677701813684     1.007825032230
         C            1.042367480470    -1.285497813362     1.486306813684    12.000000000000
         H            1.465449480470    -2.279850813362     1.535960813684     1.007825032230
         C           -0.334033519530    -1.119862813362     1.341590813684    12.000000000000
         H           -0.979136519530    -1.985272813362     1.273957813684     1.007825032230
         C           -0.879593519530     0.160370186638     1.277624813684    12.000000000000
         H           -1.946221519530     0.288199186638     1.154445813684     1.007825032230
         C           -0.048316519530     1.275650186638     1.359695813684    12.000000000000
         H           -0.471841519530     2.269555186638     1.307326813684     1.007825032230

  Charge       = 0
  Multiplicity = 1
  Basis Set: AUG-CC-PVQZ
    Blend: AUG-CC-PVQZ
  Basis Set: (AUG-CC-PVQZ AUX)
    Blend: AUG-CC-PVQZ-JKFIT

    Orbital Energies [Eh]
    ---------------------

    Doubly Occupied:

       1A    -11.228004     2A    -11.227987     3A    -11.227834
       4A    -11.227817     5A    -11.225700     6A    -11.225695
       7A    -11.223522     8A    -11.223501     9A    -11.223163
      10A    -11.223153    11A    -11.222735    12A    -11.222725
      13A     -1.155305    14A     -1.134118    15A     -1.018739
      16A     -1.012408    17A     -1.004508    18A     -1.000018
      19A     -0.822690    20A     -0.820457    21A     -0.816395
      22A     -0.814117    23A     -0.708437    24A     -0.700258
      25A     -0.641036    26A     -0.637156    27A     -0.612676
      28A     -0.612373    29A     -0.586556    30A     -0.583449
      31A     -0.581902    32A     -0.577892    33A     -0.541586
      34A     -0.490337    35A     -0.489862    36A     -0.487879
      37A     -0.487489    38A     -0.452389    39A     -0.371119
      40A     -0.338676    41A     -0.312934    42A     -0.290350

  @DF-RHF Final Energy:  -461.53474452151625

   => Energetics <=

    Nuclear Repulsion Energy =            669.3047860118173276
    One-Electron Energy =               -1952.0691384772705987
    Two-Electron Energy =                 821.2296079439369123
    Total Energy =                       -461.5347445215162452

  Dipole Moment: [D]
     X:    -0.0001      Y:     0.0000      Z:    -0.0007     Total:     0.0007

  Basis Set: (AUG-CC-PVQZ AUX)
    Blend: AUG-CC-PVQZ-RI
	 Reference Energy          =    -461.5347445215162452 [Eh]
	 Singles Energy            =      -0.0000000000000000 [Eh]
	 Same-Spin Energy          =      -0.5613080279323892 [Eh]
	 Opposite-Spin Energy      =      -1.8644520869979506 [Eh]
	 Correlation Energy        =      -2.4257601149303398 [Eh]
	 Total Energy              =    -463.9605046364465579 [Eh]

	 ================> DF-SCS-MP2 Energies <==================
	-----------------------------------------------------------
	 SCS Same-Spin Scale       =       0.3333333333333333 [-]
	 SCS Opposite-Spin Scale   =       1.2000000000000000 [-]
	 SCS Same-Spin Energy      =      -0.1871026759774631 [Eh]
	 SCS Opposite-Spin Energy  =      -2.2373425043975406 [Eh]
	 SCS Correlation Energy    =      -2.4244451803750038 [Eh]
	 SCS Total Energy          =    -463.9591897018912618 [Eh]
	-----------------------------------------------------------

*** Psi4 exiting successfully. Buy a developer a beer!
