                               Psi4 1.4a2.dev224

  ==> Input File <==

--------------------------------------------------------------------------
#Generated by lconvert.py for cbs job

memory 20 GB

molecule  {
0 1
  C       0.712640    1.121000    0.060540
  H       1.357840    1.986400    0.127740
  C       1.258240   -0.159250    0.124230
  H       2.324950   -0.287100    0.246740
  C       0.426890   -1.274530    0.042650
  H       0.850450   -2.268430    0.094750
  C      -0.949580   -1.110070   -0.100310
  H      -1.594460   -1.976270   -0.163710
  C      -1.495530    0.171050   -0.161550
  H      -2.563780    0.299220   -0.273700
  C      -0.663830    1.286640   -0.083400
  H      -1.086900    2.281000   -0.132890
--
0 1
  C       2.677110    1.103290    5.682340
  H       3.321950    1.969470    5.746090
  C       3.223060   -0.177860    5.743860
  H       4.291270   -0.306010    5.856600
  C       2.391410   -1.293460    5.665210
  H       2.814490   -2.287810    5.714860
  C       1.015010   -1.127830    5.520490
  H       0.369900   -1.993240    5.452860
  C       0.469450    0.152410    5.456530
  H      -0.597180    0.280240    5.333350
  C       1.300720    1.267690    5.538600
  H       0.877200    2.261590    5.486230
units angstrom
no_reorient
symmetry c1
}

set {
scf_type DF
mp2_type DF
e_convergence 7
reference rhf
}

energy('mp2/aug-cc-pv[tq]z', bsse_type='cp')
--------------------------------------------------------------------------

    Molecular point group: c1
  Charge       = 0
  Multiplicity = 1
  Basis Set: AUG-CC-PVTZ
    Blend: AUG-CC-PVTZ
  Basis Set: (AUG-CC-PVTZ AUX)
    Blend: AUG-CC-PVTZ-JKFIT
  @DF-RHF Final Energy:  -230.78126510477966
    Total Energy =                       -230.7812651047796635
  Basis Set: (AUG-CC-PVTZ AUX)
    Blend: AUG-CC-PVTZ-RI
	 Reference Energy          =    -230.7812651047796635 [Eh]
	 Singles Energy            =      -0.0000000000000000 [Eh]
	 Same-Spin Energy          =      -0.2553783007505497 [Eh]
	 Opposite-Spin Energy      =      -0.8183093569033176 [Eh]
	 Correlation Energy        =      -1.0736876576538674 [Eh]
	 Total Energy              =    -231.8549527624335269 [Eh]
	 SCS Total Energy          =    -231.8483624333138380 [Eh]
    Molecular point group: c1
  Basis Set: AUG-CC-PVQZ
    Blend: AUG-CC-PVQZ
  Basis Set: (AUG-CC-PVQZ AUX)
    Blend: AUG-CC-PVQZ-JKFIT
  @DF-RHF Final Energy:  -230.79444084523013
    Total Energy =                       -230.7944408452301559
  Basis Set: (AUG-CC-PVQZ AUX)
  @DF-RHF Final Energy:  -230.78130099359942
    Total Energy =                       -230.7813009935994160
  @DF-RHF Final Energy:  -230.79445350337593
    Total Energy =                       -230.7944535033759621
  @DF-RHF Final Energy:  -230.78130125972470
    Total Energy =                       -230.7813012597247280
  @DF-RHF Final Energy:  -230.79445376279082
    Total Energy =                       -230.7944537627907948
  @DF-RHF Final Energy:  -230.78126535856475
    Total Energy =                       -230.7812653585647809
  @DF-RHF Final Energy:  -230.79444110551378
    Total Energy =                       -230.7944411055137834
  Multiplicity = 1
  @DF-RHF Final Energy:  -461.56227310915074
    Total Energy =                       -461.5622731091507376
	 Singles Energy            =      -0.0000000000000000 [Eh]
	 Same-Spin Energy          =      -0.5113612303101838 [Eh]
	 Opposite-Spin Energy      =      -1.6378338544411788 [Eh]
	 Correlation Energy        =      -2.1491950847513626 [Eh]
	 Total Energy              =    -463.7114681939020784 [Eh]
	 SCS Total Energy          =    -463.6981274779168984 [Eh]
    Molecular point group: c1

    Geometry (in Angstrom), charge = 0, multiplicity = 1:

       Center              X                  Y                   Z               Mass
    ------------   -----------------  -----------------  -----------------  -----------------
         C           -0.151160070581     1.124410129131    -2.730224090070    12.000000000000
         H            0.494039929419     1.989810129131    -2.663024090070     1.007825032230
         C            0.394439929419    -0.155839870869    -2.666534090070    12.000000000000
         H            1.461149929419    -0.283689870869    -2.544024090070     1.007825032230
         C           -0.436910070581    -1.271119870869    -2.748114090070    12.000000000000
         H           -0.013350070581    -2.265019870869    -2.696014090070     1.007825032230
         C           -1.813380070581    -1.106659870869    -2.891074090070    12.000000000000
         H           -2.458260070581    -1.972859870869    -2.954474090070     1.007825032230
         C           -2.359330070581     0.174460129131    -2.952314090070    12.000000000000
         H           -3.427580070581     0.302630129131    -3.064464090070     1.007825032230
         C           -1.527630070581     1.290050129131    -2.874164090070    12.000000000000
         H           -1.950700070581     2.284410129131    -2.923654090070     1.007825032230
         C            1.813309929419     1.106700129131     2.891575909930    12.000000000000
         H            2.458149929419     1.972880129131     2.955325909930     1.007825032230
         C            2.359259929419    -0.174449870869     2.953095909930    12.000000000000
         H            3.427469929419    -0.302599870869     3.065835909930     1.007825032230
         C            1.527609929419    -1.290049870869     2.874445909930    12.000000000000
         H            1.950689929419    -2.284399870869     2.924095909930     1.007825032230
         C            0.151209929419    -1.124419870869     2.729725909930    12.000000000000
         H           -0.493900070581    -1.989829870869     2.662095909930     1.007825032230
         C           -0.394350070581     0.155820129131     2.665765909930    12.000000000000
         H           -1.460980070581     0.283650129131     2.542585909930     1.007825032230
         C            0.436919929419     1.271100129131     2.747835909930    12.000000000000
         H            0.013399929419     2.265000129131     2.695465909930     1.007825032230

  Charge       = 0
  Multiplicity = 1
  Basis Set: AUG-CC-PVQZ
    Blend: AUG-CC-PVQZ
  Basis Set: (AUG-CC-PVQZ AUX)
    Blend: AUG-CC-PVQZ-JKFIT

    Orbital Energies [Eh]
    ---------------------

    Doubly Occupied:

       1A    -11.232962     2A    -11.232961     3A    -11.232326
       4A    -11.232324     5A    -11.232132     6A    -11.232129
       7A    -11.231074     8A    -11.231074     9A    -11.231006
      10A    -11.231002    11A    -11.230250    12A    -11.230245
      13A     -1.147807    14A     -1.147778    15A     -1.012265
      16A     -1.012250    17A     -1.012168    18A     -1.012146
      19A     -0.821751    20A     -0.821737    21A     -0.821656
      22A     -0.821653    23A     -0.707473    24A     -0.707447
      25A     -0.641807    26A     -0.641793    27A     -0.616945
      28A     -0.616940    29A     -0.585908    30A     -0.585903
      31A     -0.585792    32A     -0.585755    33A     -0.500798
      34A     -0.499541    35A     -0.492778    36A     -0.492773
      37A     -0.492620    38A     -0.492605    39A     -0.335174
      40A     -0.334792    41A     -0.334175    42A     -0.333953

  @DF-RHF Final Energy:  -461.58858236605761

   => Energetics <=

    Nuclear Repulsion Energy =            556.5768644327488346
    One-Electron Energy =               -1726.3395672707067661
    Two-Electron Energy =                 708.1741204719003235
    Total Energy =                       -461.5885823660576079

  Dipole Moment: [D]
     X:     0.0001      Y:     0.0000      Z:    -0.0003     Total:     0.0003

  Basis Set: (AUG-CC-PVQZ AUX)
    Blend: AUG-CC-PVQZ-RI
	 Reference Energy          =    -461.5885823660576079 [Eh]
	 Singles Energy            =      -0.0000000000000000 [Eh]
	 Same-Spin Energy          =      -0.5404476152328725 [Eh]
	 Opposite-Spin Energy      =      -1.8370860065506127 [Eh]
	 Correlation Energy        =      -2.3775336217834853 [Eh]
	 Total Energy              =    -463.9661159878410785 [Eh]

	 ================> DF-SCS-MP2 Energies <==================
	-----------------------------------------------------------
	 SCS Same-Spin Scale       =       0.3333333333333333 [-]
	 SCS Opposite-Spin Scale   =       1.2000000000000000 [-]
	 SCS Same-Spin Energy      =      -0.1801492050776242 [Eh]
	 SCS Opposite-Spin Energy  =      -2.2045032078607352 [Eh]
	 SCS Correlation Energy    =      -2.3846524129383595 [Eh]
	 SCS Total Energy          =    -463.9732347789959590 [Eh]
	-----------------------------------------------------------

*** Psi4 exiting successfully. Buy a developer a beer!
