                               Psi4 1.4a2.dev224

  ==> Input File <==

--------------------------------------------------------------------------
#Generated by lconvert.py for cbs job

memory 40 GB

molecule  {
0 1
  C        0.7126450     1.1209960     0.0605410
  H        1.3578420     1.9863990     0.1277370
  C        1.2582360    -0.1592520     0.1242340
  H        2.3249540    -0.2871000     0.2467430
  C        0.4268850    -1.2745270     0.0426500
  H        0.8504450    -2.2684330     0.0947500
  C       -0.9495780    -1.1100740    -0.1003140
  H       -1.5944560    -1.9762740    -0.1637130
  C       -1.4955260     0.1710510    -0.1615460
  H       -2.5637830     0.2992210    -0.2737030
  C       -0.6638280     1.2866430    -0.0834010
  H       -1.0869010     2.2810000    -0.1328860
--
0 1
  C        2.0695750     1.1089900     3.9443690
  H        2.7144200     1.9751730     4.0081190
  C        2.6155280    -0.1721620     4.0058880
  H        3.6837350    -0.3003090     4.1186330
  C        1.7838790    -1.2877620     3.9272380
  H        2.2069610    -2.2821140     3.9768920
  C        0.4074770    -1.1221270     3.7825210
  H       -0.2376250    -1.9875370     3.7148890
  C       -0.1380820     0.1581060     3.7185550
  H       -1.2047100     0.2859350     3.5953770
  C        0.6931940     1.2733870     3.8006260
  H        0.2696700     2.2672920     3.7482570
units angstrom
no_reorient
symmetry c1
}

set {
scf_type DF
mp2_type DF
e_convergence 7
reference rhf
}

energy('mp2/aug-cc-pv[tq]z', bsse_type='cp')
--------------------------------------------------------------------------

    Molecular point group: c1
  Charge       = 0
  Multiplicity = 1
  Basis Set: AUG-CC-PVTZ
    Blend: AUG-CC-PVTZ
  Basis Set: (AUG-CC-PVTZ AUX)
    Blend: AUG-CC-PVTZ-JKFIT
  @DF-RHF Final Energy:  -230.78126517363694
    Total Energy =                       -230.7812651736369389
  Basis Set: (AUG-CC-PVTZ AUX)
    Blend: AUG-CC-PVTZ-RI
	 Reference Energy          =    -230.7812651736369389 [Eh]
	 Singles Energy            =      -0.0000000000000000 [Eh]
	 Same-Spin Energy          =      -0.2553783060255134 [Eh]
	 Opposite-Spin Energy      =      -0.8183093106146602 [Eh]
	 Correlation Energy        =      -1.0736876166401736 [Eh]
	 Total Energy              =    -231.8549527902771104 [Eh]
	 SCS Total Energy          =    -231.8483624483830283 [Eh]
    Molecular point group: c1
  Basis Set: AUG-CC-PVQZ
    Blend: AUG-CC-PVQZ
  Basis Set: (AUG-CC-PVQZ AUX)
    Blend: AUG-CC-PVQZ-JKFIT
  @DF-RHF Final Energy:  -230.79444092719962
    Total Energy =                       -230.7944409271996165
  Basis Set: (AUG-CC-PVQZ AUX)
  @DF-RHF Final Energy:  -230.78141621831915
    Total Energy =                       -230.7814162183191229
  @DF-RHF Final Energy:  -230.79448087769288
    Total Energy =                       -230.7944808776928767
  @DF-RHF Final Energy:  -230.78141639985409
    Total Energy =                       -230.7814163998540948
  @DF-RHF Final Energy:  -230.79448102368710
    Total Energy =                       -230.7944810236870694
  @DF-RHF Final Energy:  -230.78126531189491
    Total Energy =                       -230.7812653118949129
  @DF-RHF Final Energy:  -230.79444106378926
    Total Energy =                       -230.7944410637892929
  Multiplicity = 1
  @DF-RHF Final Energy:  -461.55925085076996
    Total Energy =                       -461.5592508507698994
	 Singles Energy            =      -0.0000000000000000 [Eh]
	 Same-Spin Energy          =      -0.5157157997312166 [Eh]
	 Opposite-Spin Energy      =      -1.6447024646324968 [Eh]
	 Correlation Energy        =      -2.1604182643637135 [Eh]
	 Total Energy              =    -463.7196691151336836 [Eh]
	 SCS Total Energy          =    -463.7047990749060205 [Eh]
    Molecular point group: c1

    Geometry (in Angstrom), charge = 0, multiplicity = 1:

       Center              X                  Y                   Z               Mass
    ------------   -----------------  -----------------  -----------------  -----------------
         C            0.152610300890     1.121557019971    -1.861237365896    12.000000000000
         H            0.797807300890     1.986960019971    -1.794041365896     1.007825032230
         C            0.698201300890    -0.158690980029    -1.797544365896    12.000000000000
         H            1.764919300890    -0.286538980029    -1.675035365896     1.007825032230
         C           -0.133149699110    -1.273965980029    -1.879128365896    12.000000000000
         H            0.290410300890    -2.267871980029    -1.827028365896     1.007825032230
         C           -1.509612699110    -1.109512980029    -2.022092365896    12.000000000000
         H           -2.154490699110    -1.975712980029    -2.085491365896     1.007825032230
         C           -2.055560699110     0.171612019971    -2.083324365896    12.000000000000
         H           -3.123817699110     0.299782019971    -2.195481365896     1.007825032230
         C           -1.223862699110     1.287204019971    -2.005179365896    12.000000000000
         H           -1.646935699110     2.281561019971    -2.054664365896     1.007825032230
         C            1.509540300890     1.109551019971     2.022590634104    12.000000000000
         H            2.154385300890     1.975734019971     2.086340634104     1.007825032230
         C            2.055493300890    -0.171600980029     2.084109634104    12.000000000000
         H            3.123700300890    -0.299747980029     2.196854634104     1.007825032230
         C            1.223844300890    -1.287200980029     2.005459634104    12.000000000000
         H            1.646926300890    -2.281552980029     2.055113634104     1.007825032230
         C           -0.152557699110    -1.121565980029     1.860742634104    12.000000000000
         H           -0.797659699110    -1.986975980029     1.793110634104     1.007825032230
         C           -0.698116699110     0.158667019971     1.796776634104    12.000000000000
         H           -1.764744699110     0.286496019971     1.673598634104     1.007825032230
         C            0.133159300890     1.273948019971     1.878847634104    12.000000000000
         H           -0.290364699110     2.267853019971     1.826478634104     1.007825032230

  Charge       = 0
  Multiplicity = 1
  Basis Set: AUG-CC-PVQZ
    Blend: AUG-CC-PVQZ
  Basis Set: (AUG-CC-PVQZ AUX)
    Blend: AUG-CC-PVQZ-JKFIT

    Orbital Energies [Eh]
    ---------------------

    Doubly Occupied:

       1A    -11.230701     2A    -11.230698     3A    -11.229830
       4A    -11.229825     5A    -11.229474     6A    -11.229467
       7A    -11.228599     8A    -11.228593     9A    -11.228397
      10A    -11.228389    11A    -11.227233    12A    -11.227222
      13A     -1.146171    14A     -1.144301    15A     -1.010544
      16A     -1.009728    17A     -1.009674    18A     -1.009008
      19A     -0.819506    20A     -0.819488    21A     -0.819294
      22A     -0.819057    23A     -0.705524    24A     -0.704775
      25A     -0.639756    26A     -0.639572    27A     -0.614518
      28A     -0.614347    29A     -0.584077    30A     -0.583578
      31A     -0.583445    32A     -0.583040    33A     -0.508210
      34A     -0.490444    35A     -0.490442    36A     -0.490395
      37A     -0.490343    38A     -0.487457    39A     -0.341250
      40A     -0.331889    41A     -0.331194    42A     -0.323367

  @DF-RHF Final Energy:  -461.58538241241257

   => Energetics <=

    Nuclear Repulsion Energy =            613.0229029692234235
    One-Electron Energy =               -1839.4309345796007165
    Two-Electron Energy =                 764.8226491979647790
    Total Energy =                       -461.5853824124125140

  Dipole Moment: [D]
     X:     0.0001      Y:     0.0000      Z:    -0.0005     Total:     0.0005

  Basis Set: (AUG-CC-PVQZ AUX)
    Blend: AUG-CC-PVQZ-RI
	 Reference Energy          =    -461.5853824124125708 [Eh]
	 Singles Energy            =      -0.0000000000000000 [Eh]
	 Same-Spin Energy          =      -0.5446578879904032 [Eh]
	 Opposite-Spin Energy      =      -1.8424501024219511 [Eh]
	 Correlation Energy        =      -2.3871079904123542 [Eh]
	 Total Energy              =    -463.9724904028249171 [Eh]

	 ================> DF-SCS-MP2 Energies <==================
	-----------------------------------------------------------
	 SCS Same-Spin Scale       =       0.3333333333333333 [-]
	 SCS Opposite-Spin Scale   =       1.2000000000000000 [-]
	 SCS Same-Spin Energy      =      -0.1815526293301344 [Eh]
	 SCS Opposite-Spin Energy  =      -2.2109401229063410 [Eh]
	 SCS Correlation Energy    =      -2.3924927522364756 [Eh]
	 SCS Total Energy          =    -463.9778751646490491 [Eh]
	-----------------------------------------------------------

*** Psi4 exiting successfully. Buy a developer a beer!
