                               Psi4 1.4a2.dev224

  ==> Input File <==

--------------------------------------------------------------------------
#Generated by lconvert.py for cbs job

memory 40 GB

molecule  {
0 1
  C        0.7126450     1.1209960     0.0605410
  H        1.3578420     1.9863990     0.1277370
  C        1.2582360    -0.1592520     0.1242340
  H        2.3249540    -0.2871000     0.2467430
  C        0.4268850    -1.2745270     0.0426500
  H        0.8504450    -2.2684330     0.0947500
  C       -0.9495780    -1.1100740    -0.1003140
  H       -1.5944560    -1.9762740    -0.1637130
  C       -1.4955260     0.1710510    -0.1615460
  H       -2.5637830     0.2992210    -0.2737030
  C       -0.6638280     1.2866430    -0.0834010
  H       -1.0869010     2.2810000    -0.1328860
--
0 1
  C        1.8275080     1.1112610     3.2518810
  H        2.4723530     1.9774450     3.3156320
  C        2.3734610    -0.1698900     3.3134010
  H        3.4416680    -0.2980370     3.4261450
  C        1.5418110    -1.2854900     3.2347510
  H        1.9648930    -2.2798430     3.2844040
  C        0.1654100    -1.1198550     3.0900340
  H       -0.4796930    -1.9852660     3.0224010
  C       -0.3801500     0.1603770     3.0260680
  H       -1.4467780     0.2882070     2.9028890
  C        0.4511270     1.2756580     3.1081390
  H        0.0276020     2.2695630     3.0557700
units angstrom
no_reorient
symmetry c1
}

set {
scf_type DF
mp2_type DF
e_convergence 7
reference rhf
}

energy('mp2/aug-cc-pv[tq]z', bsse_type='cp')
--------------------------------------------------------------------------

    Molecular point group: c1
  Charge       = 0
  Multiplicity = 1
  Basis Set: AUG-CC-PVTZ
    Blend: AUG-CC-PVTZ
  Basis Set: (AUG-CC-PVTZ AUX)
    Blend: AUG-CC-PVTZ-JKFIT
  @DF-RHF Final Energy:  -230.78126516078655
    Total Energy =                       -230.7812651607865746
  Basis Set: (AUG-CC-PVTZ AUX)
    Blend: AUG-CC-PVTZ-RI
	 Reference Energy          =    -230.7812651607865462 [Eh]
	 Singles Energy            =      -0.0000000000000000 [Eh]
	 Same-Spin Energy          =      -0.2553783118529197 [Eh]
	 Opposite-Spin Energy      =      -0.8183093195594401 [Eh]
	 Correlation Energy        =      -1.0736876314123598 [Eh]
	 Total Energy              =    -231.8549527921989011 [Eh]
	 SCS Total Energy          =    -231.8483624482088601 [Eh]
    Molecular point group: c1
  Basis Set: AUG-CC-PVQZ
    Blend: AUG-CC-PVQZ
  Basis Set: (AUG-CC-PVQZ AUX)
    Blend: AUG-CC-PVQZ-JKFIT
  @DF-RHF Final Energy:  -230.79444090894481
    Total Energy =                       -230.7944409089448072
  Basis Set: (AUG-CC-PVQZ AUX)
  @DF-RHF Final Energy:  -230.78151926317403
    Total Energy =                       -230.7815192631740615
  @DF-RHF Final Energy:  -230.79450831057153
    Total Energy =                       -230.7945083105715298
  @DF-RHF Final Energy:  -230.78151950177170
    Total Energy =                       -230.7815195017716974
  @DF-RHF Final Energy:  -230.79450846458673
    Total Energy =                       -230.7945084645867269
  @DF-RHF Final Energy:  -230.78126531056674
    Total Energy =                       -230.7812653105667664
  @DF-RHF Final Energy:  -230.79444105947033
    Total Energy =                       -230.7944410594703299
  Multiplicity = 1
  @DF-RHF Final Energy:  -461.54186033415499
    Total Energy =                       -461.5418603341549897
	 Singles Energy            =      -0.0000000000000000 [Eh]
	 Same-Spin Energy          =      -0.5239021864588571 [Eh]
	 Opposite-Spin Energy      =      -1.6570840994902918 [Eh]
	 Correlation Energy        =      -2.1809862859491487 [Eh]
	 Total Energy              =    -463.7228466201041215 [Eh]
	 SCS Total Energy          =    -463.7049953156962943 [Eh]
    Molecular point group: c1

    Geometry (in Angstrom), charge = 0, multiplicity = 1:

       Center              X                  Y                   Z               Mass
    ------------   -----------------  -----------------  -----------------  -----------------
         C            0.273643980470     1.120421269971    -1.514993763193    12.000000000000
         H            0.918840980470     1.985824269971    -1.447797763193     1.007825032230
         C            0.819234980470    -0.159826730029    -1.451300763193    12.000000000000
         H            1.885952980470    -0.287674730029    -1.328791763193     1.007825032230
         C           -0.012116019530    -1.275101730029    -1.532884763193    12.000000000000
         H            0.411443980470    -2.269007730029    -1.480784763193     1.007825032230
         C           -1.388579019530    -1.110648730029    -1.675848763193    12.000000000000
         H           -2.033457019530    -1.976848730029    -1.739247763193     1.007825032230
         C           -1.934527019530     0.170476269971    -1.737080763193    12.000000000000
         H           -3.002784019530     0.298646269971    -1.849237763193     1.007825032230
         C           -1.102829019530     1.286068269971    -1.658935763193    12.000000000000
         H           -1.525902019530     2.280425269971    -1.708420763193     1.007825032230
         C            1.388506980470     1.110686269971     1.676346236807    12.000000000000
         H            2.033351980470     1.976870269971     1.740097236807     1.007825032230
         C            1.934459980470    -0.170464730029     1.737866236807    12.000000000000
         H            3.002666980470    -0.298611730029     1.850610236807     1.007825032230
         C            1.102809980470    -1.286064730029     1.659216236807    12.000000000000
         H            1.525891980470    -2.280417730029     1.708869236807     1.007825032230
         C           -0.273591019530    -1.120429730029     1.514499236807    12.000000000000
         H           -0.918694019530    -1.985840730029     1.446866236807     1.007825032230
         C           -0.819151019530     0.159802269971     1.450533236807    12.000000000000
         H           -1.885779019530     0.287632269971     1.327354236807     1.007825032230
         C            0.012125980470     1.275083269971     1.532604236807    12.000000000000
         H           -0.411399019530     2.268988269971     1.480235236807     1.007825032230

  Charge       = 0
  Multiplicity = 1
  Basis Set: AUG-CC-PVQZ
    Blend: AUG-CC-PVQZ
  Basis Set: (AUG-CC-PVQZ AUX)
    Blend: AUG-CC-PVQZ-JKFIT

    Orbital Energies [Eh]
    ---------------------

    Doubly Occupied:

       1A    -11.228381     2A    -11.228376     3A    -11.227777
       4A    -11.227766     5A    -11.227648     6A    -11.227635
       7A    -11.226105     8A    -11.226097     9A    -11.225862
      10A    -11.225855    11A    -11.224662    12A    -11.224645
      13A     -1.148801    14A     -1.139316    15A     -1.012798
      16A     -1.009558    17A     -1.007159    18A     -1.004633
      19A     -0.819694    20A     -0.818626    21A     -0.817860
      22A     -0.816500    23A     -0.705841    24A     -0.702284
      25A     -0.639167    26A     -0.638384    27A     -0.613069
      28A     -0.612540    29A     -0.584431    30A     -0.582814
      31A     -0.581965    32A     -0.580268    33A     -0.525444
      34A     -0.489465    35A     -0.489454    36A     -0.488789
      37A     -0.488677    38A     -0.468872    39A     -0.356042
      40A     -0.334682    41A     -0.322941    42A     -0.306494

  @DF-RHF Final Energy:  -461.56785169329606

   => Energetics <=

    Nuclear Repulsion Energy =            647.7975219138165812
    One-Electron Energy =               -1909.0759761403514858
    Two-Electron Energy =                 799.7106025332388981
    Total Energy =                       -461.5678516932960065

  Dipole Moment: [D]
     X:     0.0000      Y:     0.0000      Z:    -0.0006     Total:     0.0006

  Basis Set: (AUG-CC-PVQZ AUX)
    Blend: AUG-CC-PVQZ-RI
	 Reference Energy          =    -461.5678516932960633 [Eh]
	 Singles Energy            =      -0.0000000000000000 [Eh]
	 Same-Spin Energy          =      -0.5527229278670467 [Eh]
	 Opposite-Spin Energy      =      -1.8529744119994451 [Eh]
	 Correlation Energy        =      -2.4056973398664918 [Eh]
	 Total Energy              =    -463.9735490331625556 [Eh]

	 ================> DF-SCS-MP2 Energies <==================
	-----------------------------------------------------------
	 SCS Same-Spin Scale       =       0.3333333333333333 [-]
	 SCS Opposite-Spin Scale   =       1.2000000000000000 [-]
	 SCS Same-Spin Energy      =      -0.1842409759556822 [Eh]
	 SCS Opposite-Spin Energy  =      -2.2235692943993342 [Eh]
	 SCS Correlation Energy    =      -2.4078102703550162 [Eh]
	 SCS Total Energy          =    -463.9756619636510777 [Eh]
	-----------------------------------------------------------

*** Psi4 exiting successfully. Buy a developer a beer!
