                               Psi4 1.4a2.dev224

  ==> Input File <==

--------------------------------------------------------------------------
#Generated by lconvert.py for cbs job

memory 40 GB

molecule  {
0 1
  C        0.7126450     1.1209960     0.0605410
  H        1.3578420     1.9863990     0.1277370
  C        1.2582360    -0.1592520     0.1242340
  H        2.3249540    -0.2871000     0.2467430
  C        0.4268850    -1.2745270     0.0426500
  H        0.8504450    -2.2684330     0.0947500
  C       -0.9495780    -1.1100740    -0.1003140
  H       -1.5944560    -1.9762740    -0.1637130
  C       -1.4955260     0.1710510    -0.1615460
  H       -2.5637830     0.2992210    -0.2737030
  C       -0.6638280     1.2866430    -0.0834010
  H       -1.0869010     2.2810000    -0.1328860
--
0 1
  C        1.9494880     1.1101160     3.6008340
  H        2.5943330     1.9763000     3.6645840
  C        2.4954410    -0.1710350     3.6623530
  H        3.5636480    -0.2991820     3.7750980
  C        1.6637920    -1.2866350     3.5837030
  H        2.0868740    -2.2809870     3.6333570
  C        0.2873900    -1.1210000     3.4389860
  H       -0.3577120    -1.9864100     3.3713530
  C       -0.2581700     0.1592330     3.3750200
  H       -1.3247980     0.2870620     3.2518420
  C        0.5731070     1.2745140     3.4570910
  H        0.1495820     2.2684190     3.4047220
units angstrom
no_reorient
symmetry c1
}

set {
scf_type DF
mp2_type DF
e_convergence 7
reference rhf
}

energy('mp2/aug-cc-pv[tq]z', bsse_type='cp')
--------------------------------------------------------------------------

    Molecular point group: c1
  Charge       = 0
  Multiplicity = 1
  Basis Set: AUG-CC-PVTZ
    Blend: AUG-CC-PVTZ
  Basis Set: (AUG-CC-PVTZ AUX)
    Blend: AUG-CC-PVTZ-JKFIT
  @DF-RHF Final Energy:  -230.78126516252624
    Total Energy =                       -230.7812651625262674
  Basis Set: (AUG-CC-PVTZ AUX)
    Blend: AUG-CC-PVTZ-RI
	 Reference Energy          =    -230.7812651625262390 [Eh]
	 Singles Energy            =      -0.0000000000000000 [Eh]
	 Same-Spin Energy          =      -0.2553783080986175 [Eh]
	 Opposite-Spin Energy      =      -0.8183093209666716 [Eh]
	 Correlation Energy        =      -1.0736876290652893 [Eh]
	 Total Energy              =    -231.8549527915915291 [Eh]
	 SCS Total Energy          =    -231.8483624503857925 [Eh]
    Molecular point group: c1
  Basis Set: AUG-CC-PVQZ
    Blend: AUG-CC-PVQZ
  Basis Set: (AUG-CC-PVQZ AUX)
    Blend: AUG-CC-PVQZ-JKFIT
  @DF-RHF Final Energy:  -230.79444090302701
    Total Energy =                       -230.7944409030270094
  Basis Set: (AUG-CC-PVQZ AUX)
  @DF-RHF Final Energy:  -230.78145897282263
    Total Energy =                       -230.7814589728226338
  @DF-RHF Final Energy:  -230.79449305103145
    Total Energy =                       -230.7944930510314521
  @DF-RHF Final Energy:  -230.78145918499621
    Total Energy =                       -230.7814591849962085
  @DF-RHF Final Energy:  -230.79449321052613
    Total Energy =                       -230.7944932105261273
  @DF-RHF Final Energy:  -230.78126531057762
    Total Energy =                       -230.7812653105776235
  @DF-RHF Final Energy:  -230.79444106135628
    Total Energy =                       -230.7944410613562809
  Multiplicity = 1
  @DF-RHF Final Energy:  -461.55456094905259
    Total Energy =                       -461.5545609490525294
	 Singles Energy            =      -0.0000000000000000 [Eh]
	 Same-Spin Energy          =      -0.5187349745234067 [Eh]
	 Opposite-Spin Energy      =      -1.6492258233156560 [Eh]
	 Correlation Energy        =      -2.1679607978390627 [Eh]
	 Total Energy              =    -463.7225217468916298 [Eh]
	 SCS Total Energy          =    -463.7065435952058579 [Eh]
    Molecular point group: c1

    Geometry (in Angstrom), charge = 0, multiplicity = 1:

       Center              X                  Y                   Z               Mass
    ------------   -----------------  -----------------  -----------------  -----------------
         C            0.212653890680     1.120993596848    -1.689469859440    12.000000000000
         H            0.857850890680     1.986396596848    -1.622273859440     1.007825032230
         C            0.758244890680    -0.159254403152    -1.625776859440    12.000000000000
         H            1.824962890680    -0.287102403152    -1.503267859440     1.007825032230
         C           -0.073106109320    -1.274529403152    -1.707360859440    12.000000000000
         H            0.350453890680    -2.268435403152    -1.655260859440     1.007825032230
         C           -1.449569109320    -1.110076403152    -1.850324859440    12.000000000000
         H           -2.094447109320    -1.976276403152    -1.913723859440     1.007825032230
         C           -1.995517109320     0.171048596848    -1.911556859440    12.000000000000
         H           -3.063774109320     0.299218596848    -2.023713859440     1.007825032230
         C           -1.163819109320     1.286640596848    -1.833411859440    12.000000000000
         H           -1.586892109320     2.280997596848    -1.882896859440     1.007825032230
         C            1.449496890680     1.110113596848     1.850823140560    12.000000000000
         H            2.094341890680     1.976297596848     1.914573140560     1.007825032230
         C            1.995449890680    -0.171037403152     1.912342140560    12.000000000000
         H            3.063656890680    -0.299184403152     2.025087140560     1.007825032230
         C            1.163800890680    -1.286637403152     1.833692140560    12.000000000000
         H            1.586882890680    -2.280989403152     1.883346140560     1.007825032230
         C           -0.212601109320    -1.121002403152     1.688975140560    12.000000000000
         H           -0.857703109320    -1.986412403152     1.621342140560     1.007825032230
         C           -0.758161109320     0.159230596848     1.625009140560    12.000000000000
         H           -1.824789109320     0.287059596848     1.501831140560     1.007825032230
         C            0.073115890680     1.274511596848     1.707080140560    12.000000000000
         H           -0.350409109320     2.268416596848     1.654711140560     1.007825032230

  Charge       = 0
  Multiplicity = 1
  Basis Set: AUG-CC-PVQZ
    Blend: AUG-CC-PVQZ
  Basis Set: (AUG-CC-PVQZ AUX)
    Blend: AUG-CC-PVQZ-JKFIT

    Orbital Energies [Eh]
    ---------------------

    Doubly Occupied:

       1A    -11.229800     2A    -11.229797     3A    -11.228822
       4A    -11.228814     5A    -11.228590     6A    -11.228581
       7A    -11.227595     8A    -11.227588     9A    -11.227467
      10A    -11.227458    11A    -11.226082    12A    -11.226069
      13A     -1.146634    14A     -1.142439    15A     -1.010898
      16A     -1.009266    17A     -1.008686    18A     -1.007374
      19A     -0.819198    20A     -0.818802    21A     -0.818716
      22A     -0.818029    23A     -0.705326    24A     -0.703736
      25A     -0.639161    26A     -0.639112    27A     -0.613796
      28A     -0.613464    29A     -0.583949    30A     -0.583059
      31A     -0.582689    32A     -0.581905    33A     -0.514687
      34A     -0.489835    35A     -0.489775    36A     -0.489721
      37A     -0.489602    38A     -0.480160    39A     -0.346679
      40A     -0.332548    41A     -0.328358    42A     -0.316864

  @DF-RHF Final Energy:  -461.58063385635779

   => Energetics <=

    Nuclear Repulsion Energy =            629.0617018994681757
    One-Electron Energy =               -1871.5624039151816760
    Two-Electron Energy =                 780.9200681593558784
    Total Energy =                       -461.5806338563577356

  Dipole Moment: [D]
     X:     0.0001      Y:     0.0000      Z:    -0.0005     Total:     0.0005

  Basis Set: (AUG-CC-PVQZ AUX)
    Blend: AUG-CC-PVQZ-RI
	 Reference Energy          =    -461.5806338563577924 [Eh]
	 Singles Energy            =      -0.0000000000000000 [Eh]
	 Same-Spin Energy          =      -0.5476304628420756 [Eh]
	 Opposite-Spin Energy      =      -1.8463025421322365 [Eh]
	 Correlation Energy        =      -2.3939330049743122 [Eh]
	 Total Energy              =    -463.9745668613321072 [Eh]

	 ================> DF-SCS-MP2 Energies <==================
	-----------------------------------------------------------
	 SCS Same-Spin Scale       =       0.3333333333333333 [-]
	 SCS Opposite-Spin Scale   =       1.2000000000000000 [-]
	 SCS Same-Spin Energy      =      -0.1825434876140252 [Eh]
	 SCS Opposite-Spin Energy  =      -2.2155630505586839 [Eh]
	 SCS Correlation Energy    =      -2.3981065381727089 [Eh]
	 SCS Total Energy          =    -463.9787403945305186 [Eh]
	-----------------------------------------------------------

*** Psi4 exiting successfully. Buy a developer a beer!
