                               Psi4 1.4a2.dev224

  ==> Input File <==

--------------------------------------------------------------------------
#Generated by lconvert.py for cbs job

memory 40 GB

molecule  {
0 1
  N        1.5724810     0.2545490    -0.2564810
  C        0.9693600    -0.9031600     0.0445260
  H        1.6136390    -1.7721810     0.1023450
  C       -0.3981580    -1.0288190     0.2809600
  H       -0.8184250    -1.9917370     0.5335640
  C       -1.1958050     0.1065580     0.1953970
  H       -2.2606900     0.0495390     0.3734430
  C       -0.5871280     1.3174120    -0.1201050
  H       -1.1618120     2.2295000    -0.2004630
  C        0.7885470     1.3397060    -0.3322410
  H        1.2884320     2.2687940    -0.5785270
--
0 1
  N       -0.4839560    -1.4736330     3.4097390
  C       -1.4164350    -0.5130040     3.4835900
  H       -2.4192240    -0.8439590     3.7257830
  C       -1.1544320     0.8380640     3.2742110
  H       -1.9529890     1.5625700     3.3524820
  C        0.1449960     1.2273060     2.9639420
  H        0.3869800     2.2663040     2.7880710
  C        1.1245550     0.2444080     2.8805810
  H        2.1468560     0.4911530     2.6321440
  C        0.7620750    -1.0807300     3.1137740
  H        1.5059360    -1.8662850     3.0573250
units angstrom
no_reorient
symmetry c1
}

set {
scf_type DF
mp2_type DF
e_convergence 7
reference rhf
}

energy('mp2/aug-cc-pv[tq]z', bsse_type='cp')
--------------------------------------------------------------------------

    Molecular point group: c1
  Charge       = 0
  Multiplicity = 1
  Basis Set: AUG-CC-PVTZ
    Blend: AUG-CC-PVTZ
  Basis Set: (AUG-CC-PVTZ AUX)
    Blend: AUG-CC-PVTZ-JKFIT
  @DF-RHF Final Energy:  -246.77864667271240
    Total Energy =                       -246.7786466727123980
  Basis Set: (AUG-CC-PVTZ AUX)
    Blend: AUG-CC-PVTZ-RI
	 Reference Energy          =    -246.7786466727123980 [Eh]
	 Singles Energy            =      -0.0000000000000000 [Eh]
	 Same-Spin Energy          =      -0.2687953163583130 [Eh]
	 Opposite-Spin Energy      =      -0.8388340817313553 [Eh]
	 Correlation Energy        =      -1.1076293980896683 [Eh]
	 Total Energy              =    -247.8862760708020687 [Eh]
	 SCS Total Energy          =    -247.8748460095761175 [Eh]
    Molecular point group: c1
  Basis Set: AUG-CC-PVQZ
    Blend: AUG-CC-PVQZ
  Basis Set: (AUG-CC-PVQZ AUX)
    Blend: AUG-CC-PVQZ-JKFIT
  @DF-RHF Final Energy:  -246.79278711853826
    Total Energy =                       -246.7927871185382855
  Basis Set: (AUG-CC-PVQZ AUX)
  @DF-RHF Final Energy:  -246.77889069825849
    Total Energy =                       -246.7788906982584649
  @DF-RHF Final Energy:  -246.79285362377860
    Total Energy =                       -246.7928536237786261
  @DF-RHF Final Energy:  -246.77888772802908
    Total Energy =                       -246.7788877280290762
  @DF-RHF Final Energy:  -246.79285074712629
    Total Energy =                       -246.7928507471262947
  @DF-RHF Final Energy:  -246.77864393516927
    Total Energy =                       -246.7786439351692707
  @DF-RHF Final Energy:  -246.79278428572434
    Total Energy =                       -246.7927842857243377
  Multiplicity = 1
  @DF-RHF Final Energy:  -493.53794146686090
    Total Energy =                       -493.5379414668609570
	 Singles Energy            =      -0.0000000000000000 [Eh]
	 Same-Spin Energy          =      -0.5511196897900160 [Eh]
	 Opposite-Spin Energy      =      -1.6978129775682274 [Eh]
	 Correlation Energy        =      -2.2489326673582433 [Eh]
	 Total Energy              =    -495.7868741342191470 [Eh]
	 SCS Total Energy          =    -495.7590236032061171 [Eh]
    Molecular point group: c1

    Geometry (in Angstrom), charge = 0, multiplicity = 1:

       Center              X                  Y                   Z               Mass
    ------------   -----------------  -----------------  -----------------  -----------------
         N            1.559771199419     0.229787560315    -1.834629267813    14.003074004430
         C            0.956650199419    -0.927921439685    -1.533622267813    12.000000000000
         H            1.600929199419    -1.796942439685    -1.475803267813     1.007825032230
         C           -0.410867800581    -1.053580439685    -1.297188267813    12.000000000000
         H           -0.831134800581    -2.016498439685    -1.044584267813     1.007825032230
         C           -1.208514800581     0.081796560315    -1.382751267813    12.000000000000
         H           -2.273399800581     0.024777560315    -1.204705267813     1.007825032230
         C           -0.599837800581     1.292650560315    -1.698253267813    12.000000000000
         H           -1.174521800581     2.204738560315    -1.778611267813     1.007825032230
         C            0.775837199419     1.314944560315    -1.910389267813    12.000000000000
         H            1.275722199419     2.244032560315    -2.156675267813     1.007825032230
         N           -0.496665800581    -1.498394439685     1.831590732187    14.003074004430
         C           -1.429144800581    -0.537765439685     1.905441732187    12.000000000000
         H           -2.431933800581    -0.868720439685     2.147634732187     1.007825032230
         C           -1.167141800581     0.813302560315     1.696062732187    12.000000000000
         H           -1.965698800581     1.537808560315     1.774333732187     1.007825032230
         C            0.132286199419     1.202544560315     1.385793732187    12.000000000000
         H            0.374270199419     2.241542560315     1.209922732187     1.007825032230
         C            1.111845199419     0.219646560315     1.302432732187    12.000000000000
         H            2.134146199419     0.466391560315     1.053995732187     1.007825032230
         C            0.749365199419    -1.105491439685     1.535625732187    12.000000000000
         H            1.493226199419    -1.891046439685     1.479176732187     1.007825032230

  Charge       = 0
  Multiplicity = 1
  Basis Set: AUG-CC-PVQZ
    Blend: AUG-CC-PVQZ
  Basis Set: (AUG-CC-PVQZ AUX)
    Blend: AUG-CC-PVQZ-JKFIT

    Orbital Energies [Eh]
    ---------------------

    Doubly Occupied:

       1A    -15.560944     2A    -15.560863     3A    -11.271451
       4A    -11.271374     5A    -11.270895     6A    -11.270830
       7A    -11.255385     8A    -11.255314     9A    -11.237769
      10A    -11.237662    11A    -11.236333    12A    -11.236204
      13A     -1.256160    14A     -1.251635    15A     -1.089745
      16A     -1.084195    17A     -1.033896    18A     -1.028415
      19A     -0.857328    20A     -0.856909    21A     -0.853817
      22A     -0.852654    23A     -0.722837    24A     -0.717018
      25A     -0.658391    26A     -0.657014    27A     -0.653008
      28A     -0.651100    29A     -0.597756    30A     -0.594536
      31A     -0.575348    32A     -0.574243    33A     -0.566682
      34A     -0.518299    35A     -0.517929    36A     -0.514295
      37A     -0.418786    38A     -0.416941    39A     -0.394033
      40A     -0.377469    41A     -0.352060    42A     -0.326511

  @DF-RHF Final Energy:  -493.56588436331168

   => Energetics <=

    Nuclear Repulsion Energy =            660.4028101566585747
    One-Electron Energy =               -1978.6693106744437500
    Two-Electron Energy =                 824.7006161544734368
    Total Energy =                       -493.5658843633116248

  Dipole Moment: [D]
     X:    -1.6410      Y:     1.9583      Z:     0.0085     Total:     2.5550

  Basis Set: (AUG-CC-PVQZ AUX)
    Blend: AUG-CC-PVQZ-RI
	 Reference Energy          =    -493.5658843633116817 [Eh]
	 Singles Energy            =      -0.0000000000000000 [Eh]
	 Same-Spin Energy          =      -0.5816233341313637 [Eh]
	 Opposite-Spin Energy      =      -1.9019361171929638 [Eh]
	 Correlation Energy        =      -2.4835594513243278 [Eh]
	 Total Energy              =    -496.0494438146359926 [Eh]

	 ================> DF-SCS-MP2 Energies <==================
	-----------------------------------------------------------
	 SCS Same-Spin Scale       =       0.3333333333333333 [-]
	 SCS Opposite-Spin Scale   =       1.2000000000000000 [-]
	 SCS Same-Spin Energy      =      -0.1938744447104546 [Eh]
	 SCS Opposite-Spin Energy  =      -2.2823233406315566 [Eh]
	 SCS Correlation Energy    =      -2.4761977853420110 [Eh]
	 SCS Total Energy          =    -496.0420821486537193 [Eh]
	-----------------------------------------------------------

*** Psi4 exiting successfully. Buy a developer a beer!
