                               Psi4 1.4a2.dev224

  ==> Input File <==

--------------------------------------------------------------------------
#Generated by lconvert.py for cbs job

memory 40 GB

molecule  {
0 1
  N        1.5724810     0.2545490    -0.2564810
  C        0.9693600    -0.9031600     0.0445260
  H        1.6136390    -1.7721810     0.1023450
  C       -0.3981580    -1.0288190     0.2809600
  H       -0.8184250    -1.9917370     0.5335640
  C       -1.1958050     0.1065580     0.1953970
  H       -2.2606900     0.0495390     0.3734430
  C       -0.5871280     1.3174120    -0.1201050
  H       -1.1618120     2.2295000    -0.2004630
  C        0.7885470     1.3397060    -0.3322410
  H        1.2884320     2.2687940    -0.5785270
--
0 1
  N       -0.5231870    -1.5069210     3.7521710
  C       -1.4556650    -0.5462920     3.8260220
  H       -2.4584540    -0.8772460     4.0682150
  C       -1.1936620     0.8047770     3.6166430
  H       -1.9922190     1.5292820     3.6949140
  C        0.1057660     1.1940180     3.3063750
  H        0.3477500     2.2330170     3.1305030
  C        1.0853250     0.2111200     3.2230130
  H        2.1076260     0.4578660     2.9745760
  C        0.7228450    -1.1140180     3.4562060
  H        1.4667060    -1.8995720     3.3997580
units angstrom
no_reorient
symmetry c1
}

set {
scf_type DF
mp2_type DF
e_convergence 7
reference rhf
}

energy('mp2/aug-cc-pv[tq]z', bsse_type='cp')
--------------------------------------------------------------------------

    Molecular point group: c1
  Charge       = 0
  Multiplicity = 1
  Basis Set: AUG-CC-PVTZ
    Blend: AUG-CC-PVTZ
  Basis Set: (AUG-CC-PVTZ AUX)
    Blend: AUG-CC-PVTZ-JKFIT
  @DF-RHF Final Energy:  -246.77864665987681
    Total Energy =                       -246.7786466598768129
  Basis Set: (AUG-CC-PVTZ AUX)
    Blend: AUG-CC-PVTZ-RI
	 Reference Energy          =    -246.7786466598768129 [Eh]
	 Singles Energy            =      -0.0000000000000000 [Eh]
	 Same-Spin Energy          =      -0.2687953165082341 [Eh]
	 Opposite-Spin Energy      =      -0.8388340895611925 [Eh]
	 Correlation Energy        =      -1.1076294060694267 [Eh]
	 Total Energy              =    -247.8862760659462481 [Eh]
	 SCS Total Energy          =    -247.8748460061863170 [Eh]
    Molecular point group: c1
  Basis Set: AUG-CC-PVQZ
    Blend: AUG-CC-PVQZ
  Basis Set: (AUG-CC-PVQZ AUX)
    Blend: AUG-CC-PVQZ-JKFIT
  @DF-RHF Final Energy:  -246.79278710650976
    Total Energy =                       -246.7927871065097634
  Basis Set: (AUG-CC-PVQZ AUX)
  @DF-RHF Final Energy:  -246.77883690135343
    Total Energy =                       -246.7788369013534293
  @DF-RHF Final Energy:  -246.79283775328292
    Total Energy =                       -246.7928377532829245
  @DF-RHF Final Energy:  -246.77883408438180
    Total Energy =                       -246.7788340843817991
  @DF-RHF Final Energy:  -246.79283490709645
    Total Energy =                       -246.7928349070964487
  @DF-RHF Final Energy:  -246.77864393454209
    Total Energy =                       -246.7786439345421172
  @DF-RHF Final Energy:  -246.79278428554082
    Total Energy =                       -246.7927842855408471
  Multiplicity = 1
  @DF-RHF Final Energy:  -493.55058318973192
    Total Energy =                       -493.5505831897319240
	 Singles Energy            =      -0.0000000000000000 [Eh]
	 Same-Spin Energy          =      -0.5459491330817146 [Eh]
	 Opposite-Spin Energy      =      -1.6902854844994393 [Eh]
	 Correlation Energy        =      -2.2362346175811538 [Eh]
	 Total Energy              =    -495.7868178073130707 [Eh]
	 SCS Total Energy          =    -495.7609088154918027 [Eh]
    Molecular point group: c1

    Geometry (in Angstrom), charge = 0, multiplicity = 1:

       Center              X                  Y                   Z               Mass
    ------------   -----------------  -----------------  -----------------  -----------------
         N            1.579386287999     0.246431458905    -2.005845350097    14.003074004430
         C            0.976265287999    -0.911277541095    -1.704838350097    12.000000000000
         H            1.620544287999    -1.780298541095    -1.647019350097     1.007825032230
         C           -0.391252712001    -1.036936541095    -1.468404350097    12.000000000000
         H           -0.811519712001    -1.999854541095    -1.215800350097     1.007825032230
         C           -1.188899712001     0.098440458905    -1.553967350097    12.000000000000
         H           -2.253784712001     0.041421458905    -1.375921350097     1.007825032230
         C           -0.580222712001     1.309294458905    -1.869469350097    12.000000000000
         H           -1.154906712001     2.221382458905    -1.949827350097     1.007825032230
         C            0.795452287999     1.331588458905    -2.081605350097    12.000000000000
         H            1.295337287999     2.260676458905    -2.327891350097     1.007825032230
         N           -0.516281712001    -1.515038541095     2.002806649903    14.003074004430
         C           -1.448759712001    -0.554409541095     2.076657649903    12.000000000000
         H           -2.451548712001    -0.885363541095     2.318850649903     1.007825032230
         C           -1.186756712001     0.796659458905     1.867278649903    12.000000000000
         H           -1.985313712001     1.521164458905     1.945549649903     1.007825032230
         C            0.112671287999     1.185900458905     1.557010649903    12.000000000000
         H            0.354655287999     2.224899458905     1.381138649903     1.007825032230
         C            1.092230287999     0.203002458905     1.473648649903    12.000000000000
         H            2.114531287999     0.449748458905     1.225211649903     1.007825032230
         C            0.729750287999    -1.122135541095     1.706841649903    12.000000000000
         H            1.473611287999    -1.907689541095     1.650393649903     1.007825032230

  Charge       = 0
  Multiplicity = 1
  Basis Set: AUG-CC-PVQZ
    Blend: AUG-CC-PVQZ
  Basis Set: (AUG-CC-PVQZ AUX)
    Blend: AUG-CC-PVQZ-JKFIT

    Orbital Energies [Eh]
    ---------------------

    Doubly Occupied:

       1A    -15.562949     2A    -15.562891     3A    -11.272343
       4A    -11.272296     5A    -11.271845     6A    -11.271786
       7A    -11.256128     8A    -11.256072     9A    -11.239053
      10A    -11.238985    11A    -11.237157    12A    -11.237068
      13A     -1.255429    14A     -1.253466    15A     -1.088653
      16A     -1.085700    17A     -1.032607    18A     -1.029966
      19A     -0.857239    20A     -0.857111    21A     -0.853881
      22A     -0.853505    23A     -0.721464    24A     -0.718691
      25A     -0.658710    26A     -0.657912    27A     -0.652416
      28A     -0.651951    29A     -0.597016    30A     -0.595437
      31A     -0.575265    32A     -0.574940    33A     -0.556532
      34A     -0.524880    35A     -0.518203    36A     -0.517396
      37A     -0.419194    38A     -0.418179    39A     -0.388688
      40A     -0.377798    41A     -0.353059    42A     -0.334590

  @DF-RHF Final Energy:  -493.57859147964285

   => Energetics <=

    Nuclear Repulsion Energy =            641.7325465900368044
    One-Electron Energy =               -1941.3053727477135908
    Two-Electron Energy =                 805.9942346780341040
    Total Energy =                       -493.5785914796427960

  Dipole Moment: [D]
     X:    -1.6687      Y:     1.9919      Z:     0.0073     Total:     2.5985

  Basis Set: (AUG-CC-PVQZ AUX)
    Blend: AUG-CC-PVQZ-RI
	 Reference Energy          =    -493.5785914796428528 [Eh]
	 Singles Energy            =      -0.0000000000000000 [Eh]
	 Same-Spin Energy          =      -0.5765035654390726 [Eh]
	 Opposite-Spin Energy      =      -1.8952497477947212 [Eh]
	 Correlation Energy        =      -2.4717533132337937 [Eh]
	 Total Energy              =    -496.0503447928766718 [Eh]

	 ================> DF-SCS-MP2 Energies <==================
	-----------------------------------------------------------
	 SCS Same-Spin Scale       =       0.3333333333333333 [-]
	 SCS Opposite-Spin Scale   =       1.2000000000000000 [-]
	 SCS Same-Spin Energy      =      -0.1921678551463575 [Eh]
	 SCS Opposite-Spin Energy  =      -2.2742996973536656 [Eh]
	 SCS Correlation Energy    =      -2.4664675525000233 [Eh]
	 SCS Total Energy          =    -496.0450590321428876 [Eh]
	-----------------------------------------------------------

*** Psi4 exiting successfully. Buy a developer a beer!
