                               Psi4 1.4a2.dev224

  ==> Input File <==

--------------------------------------------------------------------------
#Generated by lconvert.py for cbs job

memory 40 GB

molecule  {
0 1
  N        1.5724810     0.2545490    -0.2564810
  C        0.9693600    -0.9031600     0.0445260
  H        1.6136390    -1.7721810     0.1023450
  C       -0.3981580    -1.0288190     0.2809600
  H       -0.8184250    -1.9917370     0.5335640
  C       -1.1958050     0.1065580     0.1953970
  H       -2.2606900     0.0495390     0.3734430
  C       -0.5871280     1.3174120    -0.1201050
  H       -1.1618120     2.2295000    -0.2004630
  C        0.7885470     1.3397060    -0.3322410
  H        1.2884320     2.2687940    -0.5785270
--
0 1
  N       -0.5426480    -1.5234340     3.9220460
  C       -1.4751260    -0.5628050     3.9958970
  H       -2.4779150    -0.8937600     4.2380900
  C       -1.2131230     0.7882630     3.7865180
  H       -2.0116810     1.5127690     3.8647890
  C        0.0863040     1.1775050     3.4762490
  H        0.3282890     2.2165030     3.3003780
  C        1.0658640     0.1946070     3.3928880
  H        2.0881650     0.4413520     3.1444510
  C        0.7033840    -1.1305310     3.6260810
  H        1.4472450    -1.9160860     3.5696320
units angstrom
no_reorient
symmetry c1
}

set {
scf_type DF
mp2_type DF
e_convergence 7
reference rhf
}

energy('mp2/aug-cc-pv[tq]z', bsse_type='cp')
--------------------------------------------------------------------------

    Molecular point group: c1
  Charge       = 0
  Multiplicity = 1
  Basis Set: AUG-CC-PVTZ
    Blend: AUG-CC-PVTZ
  Basis Set: (AUG-CC-PVTZ AUX)
    Blend: AUG-CC-PVTZ-JKFIT
  @DF-RHF Final Energy:  -246.77864665485120
    Total Energy =                       -246.7786466548511726
  Basis Set: (AUG-CC-PVTZ AUX)
    Blend: AUG-CC-PVTZ-RI
	 Reference Energy          =    -246.7786466548512010 [Eh]
	 Singles Energy            =      -0.0000000000000000 [Eh]
	 Same-Spin Energy          =      -0.2687953197507749 [Eh]
	 Opposite-Spin Energy      =      -0.8388340919470252 [Eh]
	 Correlation Energy        =      -1.1076294116978000 [Eh]
	 Total Energy              =    -247.8862760665489873 [Eh]
	 SCS Total Energy          =    -247.8748460051045583 [Eh]
    Molecular point group: c1
  Basis Set: AUG-CC-PVQZ
    Blend: AUG-CC-PVQZ
  Basis Set: (AUG-CC-PVQZ AUX)
    Blend: AUG-CC-PVQZ-JKFIT
  @DF-RHF Final Energy:  -246.79278710161921
    Total Energy =                       -246.7927871016191830
  Basis Set: (AUG-CC-PVQZ AUX)
  @DF-RHF Final Energy:  -246.77881552053100
    Total Energy =                       -246.7788155205309977
  @DF-RHF Final Energy:  -246.79283144892159
    Total Energy =                       -246.7928314489216177
  @DF-RHF Final Energy:  -246.77881273315100
    Total Energy =                       -246.7788127331509713
  @DF-RHF Final Energy:  -246.79282858454178
    Total Energy =                       -246.7928285845417804
  @DF-RHF Final Energy:  -246.77864393666221
    Total Energy =                       -246.7786439366622062
  @DF-RHF Final Energy:  -246.79278428636411
    Total Energy =                       -246.7927842863641104
  Multiplicity = 1
  @DF-RHF Final Energy:  -493.55348424435346
    Total Energy =                       -493.5534842443535126
	 Singles Energy            =      -0.0000000000000000 [Eh]
	 Same-Spin Energy          =      -0.5442100688605198 [Eh]
	 Opposite-Spin Energy      =      -1.6877890385699281 [Eh]
	 Correlation Energy        =      -2.2319991074304477 [Eh]
	 Total Energy              =    -495.7854833517839097 [Eh]
	 SCS Total Energy          =    -495.7602344469241871 [Eh]
    Molecular point group: c1

    Geometry (in Angstrom), charge = 0, multiplicity = 1:

       Center              X                  Y                   Z               Mass
    ------------   -----------------  -----------------  -----------------  -----------------
         N            1.589116870283     0.254688060315    -2.090782767813    14.003074004430
         C            0.985995870283    -0.903020939685    -1.789775767813    12.000000000000
         H            1.630274870283    -1.772041939685    -1.731956767813     1.007825032230
         C           -0.381522129717    -1.028679939685    -1.553341767813    12.000000000000
         H           -0.801789129717    -1.991597939685    -1.300737767813     1.007825032230
         C           -1.179169129717     0.106697060315    -1.638904767813    12.000000000000
         H           -2.244054129717     0.049678060315    -1.460858767813     1.007825032230
         C           -0.570492129717     1.317551060315    -1.954406767813    12.000000000000
         H           -1.145176129717     2.229639060315    -2.034764767813     1.007825032230
         C            0.805182870283     1.339845060315    -2.166542767813    12.000000000000
         H            1.305067870283     2.268933060315    -2.412828767813     1.007825032230
         N           -0.526012129717    -1.523294939685     2.087744232187    14.003074004430
         C           -1.458490129717    -0.562665939685     2.161595232187    12.000000000000
         H           -2.461279129717    -0.893620939685     2.403788232187     1.007825032230
         C           -1.196487129717     0.788402060315     1.952216232187    12.000000000000
         H           -1.995045129717     1.512908060315     2.030487232187     1.007825032230
         C            0.102939870283     1.177644060315     1.641947232187    12.000000000000
         H            0.344924870283     2.216642060315     1.466076232187     1.007825032230
         C            1.082499870283     0.194746060315     1.558586232187    12.000000000000
         H            2.104800870283     0.441491060315     1.310149232187     1.007825032230
         C            0.720019870283    -1.130391939685     1.791779232187    12.000000000000
         H            1.463880870283    -1.915946939685     1.735330232187     1.007825032230

  Charge       = 0
  Multiplicity = 1
  Basis Set: AUG-CC-PVQZ
    Blend: AUG-CC-PVQZ
  Basis Set: (AUG-CC-PVQZ AUX)
    Blend: AUG-CC-PVQZ-JKFIT

    Orbital Energies [Eh]
    ---------------------

    Doubly Occupied:

       1A    -15.563499     2A    -15.563448     3A    -11.272762
       4A    -11.272720     5A    -11.272089     6A    -11.272036
       7A    -11.256509     8A    -11.256459     9A    -11.239489
      10A    -11.239432    11A    -11.237598    12A    -11.237523
      13A     -1.255346    14A     -1.254047    15A     -1.088464
      16A     -1.086331    17A     -1.032372    18A     -1.030536
      19A     -0.857440    20A     -0.857251    21A     -0.854014
      22A     -0.853810    23A     -0.721203    24A     -0.719274
      25A     -0.658890    26A     -0.658302    27A     -0.652434
      28A     -0.652264    29A     -0.596947    30A     -0.595827
      31A     -0.575419    32A     -0.575236    33A     -0.552921
      34A     -0.528150    35A     -0.518303    36A     -0.517835
      37A     -0.419331    38A     -0.418570    39A     -0.387362
      40A     -0.378279    41A     -0.352580    42A     -0.337261

  @DF-RHF Final Energy:  -493.58152021851242

   => Energetics <=

    Nuclear Repulsion Energy =            633.3807747353066588
    One-Electron Energy =               -1924.5854582099648269
    Two-Electron Energy =                 797.6231632561457445
    Total Energy =                       -493.5815202185124235

  Dipole Moment: [D]
     X:    -1.6784      Y:     2.0036      Z:     0.0069     Total:     2.6137

  Basis Set: (AUG-CC-PVQZ AUX)
    Blend: AUG-CC-PVQZ-RI
	 Reference Energy          =    -493.5815202185124235 [Eh]
	 Singles Energy            =      -0.0000000000000000 [Eh]
	 Same-Spin Energy          =      -0.5747816006992172 [Eh]
	 Opposite-Spin Energy      =      -1.8930276395759629 [Eh]
	 Correlation Energy        =      -2.4678092402751801 [Eh]
	 Total Energy              =    -496.0493294587876107 [Eh]

	 ================> DF-SCS-MP2 Energies <==================
	-----------------------------------------------------------
	 SCS Same-Spin Scale       =       0.3333333333333333 [-]
	 SCS Opposite-Spin Scale   =       1.2000000000000000 [-]
	 SCS Same-Spin Energy      =      -0.1915938668997391 [Eh]
	 SCS Opposite-Spin Energy  =      -2.2716331674911552 [Eh]
	 SCS Correlation Energy    =      -2.4632270343908944 [Eh]
	 SCS Total Energy          =    -496.0447472529033348 [Eh]
	-----------------------------------------------------------

*** Psi4 exiting successfully. Buy a developer a beer!
