                               Psi4 1.4a2.dev224

  ==> Input File <==

--------------------------------------------------------------------------
#Generated by lconvert.py for cbs job

memory 20 GB

molecule  {
0 1
  N       1.572480    0.254550   -0.256480
  C       0.969360   -0.903160    0.044530
  H       1.613640   -1.772180    0.102350
  C      -0.398160   -1.028820    0.280960
  H      -0.818420   -1.991740    0.533560
  C      -1.195810    0.106560    0.195400
  H      -2.260690    0.049540    0.373440
  C      -0.587130    1.317410   -0.120110
  H      -1.161810    2.229500   -0.200460
  C       0.788550    1.339710   -0.332240
  H       1.288430    2.268790   -0.578530
--
0 1
  N      -0.860440   -1.793090    6.695990
  C      -1.792920   -0.832460    6.769840
  H      -2.795710   -1.163420    7.012030
  C      -1.530910    0.518600    6.560460
  H      -2.329470    1.243110    6.638730
  C      -0.231490    0.907850    6.250190
  H       0.010500    1.946840    6.074320
  C       0.748070   -0.075050    6.166830
  H       1.770370    0.171690    5.918390
  C       0.385590   -1.400190    6.400020
  H       1.129450   -2.185740    6.343570
units angstrom
no_reorient
symmetry c1
}

set {
scf_type DF
mp2_type DF
e_convergence 7
reference rhf
}

energy('mp2/aug-cc-pv[tq]z', bsse_type='cp')
--------------------------------------------------------------------------

    Molecular point group: c1
  Charge       = 0
  Multiplicity = 1
  Basis Set: AUG-CC-PVTZ
    Blend: AUG-CC-PVTZ
  Basis Set: (AUG-CC-PVTZ AUX)
    Blend: AUG-CC-PVTZ-JKFIT
  @DF-RHF Final Energy:  -246.77864684225514
    Total Energy =                       -246.7786468422551138
  Basis Set: (AUG-CC-PVTZ AUX)
    Blend: AUG-CC-PVTZ-RI
	 Reference Energy          =    -246.7786468422551422 [Eh]
	 Singles Energy            =      -0.0000000000000000 [Eh]
	 Same-Spin Energy          =      -0.2687953284560490 [Eh]
	 Opposite-Spin Energy      =      -0.8388340083712562 [Eh]
	 Correlation Energy        =      -1.1076293368273054 [Eh]
	 Total Energy              =    -247.8862761790824436 [Eh]
	 SCS Total Energy          =    -247.8748460951193238 [Eh]
    Molecular point group: c1
  Basis Set: AUG-CC-PVQZ
    Blend: AUG-CC-PVQZ
  Basis Set: (AUG-CC-PVQZ AUX)
    Blend: AUG-CC-PVQZ-JKFIT
  @DF-RHF Final Energy:  -246.79278729876197
    Total Energy =                       -246.7927872987619367
  Basis Set: (AUG-CC-PVQZ AUX)
  @DF-RHF Final Energy:  -246.77866389409377
    Total Energy =                       -246.7786638940937678
  @DF-RHF Final Energy:  -246.79279368158768
    Total Energy =                       -246.7927936815876819
  @DF-RHF Final Energy:  -246.77866091377979
    Total Energy =                       -246.7786609137797882
  @DF-RHF Final Energy:  -246.79279060923554
    Total Energy =                       -246.7927906092355101
  @DF-RHF Final Energy:  -246.77864388564035
    Total Energy =                       -246.7786438856403493
  @DF-RHF Final Energy:  -246.79278423452087
    Total Energy =                       -246.7927842345208660
  Multiplicity = 1
  @DF-RHF Final Energy:  -493.55751433997267
    Total Energy =                       -493.5575143399727267
	 Singles Energy            =      -0.0000000000000000 [Eh]
	 Same-Spin Energy          =      -0.5378691473300028 [Eh]
	 Opposite-Spin Energy      =      -1.6782415716967352 [Eh]
	 Correlation Energy        =      -2.2161107190267382 [Eh]
	 Total Energy              =    -495.7736250589994143 [Eh]
	 SCS Total Energy          =    -495.7506939417854142 [Eh]
    Molecular point group: c1

    Geometry (in Angstrom), charge = 0, multiplicity = 1:

       Center              X                  Y                   Z               Mass
    ------------   -----------------  -----------------  -----------------  -----------------
         N            1.748012622916     0.389517573819    -3.477752957050    14.003074004430
         C            1.144892622916    -0.768192426181    -3.176742957050    12.000000000000
         H            1.789172622916    -1.637212426181    -3.118922957050     1.007825032230
         C           -0.222627377084    -0.893852426181    -2.940312957050    12.000000000000
         H           -0.642887377084    -1.856772426181    -2.687712957050     1.007825032230
         C           -1.020277377084     0.241527573819    -3.025872957050    12.000000000000
         H           -2.085157377084     0.184507573819    -2.847832957050     1.007825032230
         C           -0.411597377084     1.452377573819    -3.341382957050    12.000000000000
         H           -0.986277377084     2.364467573819    -3.421732957050     1.007825032230
         C            0.964082622916     1.474677573819    -3.553512957050    12.000000000000
         H            1.463962622916     2.403757573819    -3.799802957050     1.007825032230
         N           -0.684907377084    -1.658122426181     3.474717042950    14.003074004430
         C           -1.617387377084    -0.697492426181     3.548567042950    12.000000000000
         H           -2.620177377084    -1.028452426181     3.790757042950     1.007825032230
         C           -1.355377377084     0.653567573819     3.339187042950    12.000000000000
         H           -2.153937377084     1.378077573819     3.417457042950     1.007825032230
         C           -0.055957377084     1.042817573819     3.028917042950    12.000000000000
         H            0.186032622916     2.081807573819     2.853047042950     1.007825032230
         C            0.923602622916     0.059917573819     2.945557042950    12.000000000000
         H            1.945902622916     0.306657573819     2.697117042950     1.007825032230
         C            0.561122622916    -1.265222426181     3.178747042950    12.000000000000
         H            1.304982622916    -2.050772426181     3.122297042950     1.007825032230

  Charge       = 0
  Multiplicity = 1
  Basis Set: AUG-CC-PVQZ
    Blend: AUG-CC-PVQZ
  Basis Set: (AUG-CC-PVQZ AUX)
    Blend: AUG-CC-PVQZ-JKFIT

    Orbital Energies [Eh]
    ---------------------

    Doubly Occupied:

       1A    -15.565303     2A    -15.565296     3A    -11.274403
       4A    -11.274399     5A    -11.274143     6A    -11.274134
       7A    -11.259226     8A    -11.259211     9A    -11.241400
      10A    -11.241387    11A    -11.240823    12A    -11.240810
      13A     -1.256352    14A     -1.256319    15A     -1.089685
      16A     -1.089669    17A     -1.033298    18A     -1.033276
      19A     -0.859317    20A     -0.859301    21A     -0.855744
      22A     -0.855731    23A     -0.722041    24A     -0.722024
      25A     -0.660636    26A     -0.660610    27A     -0.654285
      28A     -0.654280    29A     -0.598204    30A     -0.598191
      31A     -0.577389    32A     -0.577369    33A     -0.541577
      34A     -0.541300    35A     -0.520006    36A     -0.520000
      37A     -0.420279    38A     -0.420267    39A     -0.384382
      40A     -0.384040    41A     -0.348075    42A     -0.347693

  @DF-RHF Final Energy:  -493.58577423862772

   => Energetics <=

    Nuclear Repulsion Energy =            548.7631929074805157
    One-Electron Energy =               -1755.1941657671077337
    Two-Electron Energy =                 712.8451986209995539
    Total Energy =                       -493.5857742386276641

  Dipole Moment: [D]
     X:    -1.7416      Y:     2.0786      Z:     0.0052     Total:     2.7118

  Basis Set: (AUG-CC-PVQZ AUX)
    Blend: AUG-CC-PVQZ-RI
	 Reference Energy          =    -493.5857742386277209 [Eh]
	 Singles Energy            =      -0.0000000000000000 [Eh]
	 Same-Spin Energy          =      -0.5686009472034768 [Eh]
	 Opposite-Spin Energy      =      -1.8851905738723065 [Eh]
	 Correlation Energy        =      -2.4537915210757832 [Eh]
	 Total Energy              =    -496.0395657597035211 [Eh]

	 ================> DF-SCS-MP2 Energies <==================
	-----------------------------------------------------------
	 SCS Same-Spin Scale       =       0.3333333333333333 [-]
	 SCS Opposite-Spin Scale   =       1.2000000000000000 [-]
	 SCS Same-Spin Energy      =      -0.1895336490678256 [Eh]
	 SCS Opposite-Spin Energy  =      -2.2622286886467675 [Eh]
	 SCS Correlation Energy    =      -2.4517623377145932 [Eh]
	 SCS Total Energy          =    -496.0375365763422906 [Eh]
	-----------------------------------------------------------

*** Psi4 exiting successfully. Buy a developer a beer!
