                               Psi4 1.4a2.dev224

  ==> Input File <==

--------------------------------------------------------------------------
#Generated by lconvert.py for cbs job

memory 40 GB

molecule  {
0 1
  N        1.5724810     0.2545490    -0.2564810
  C        0.9693600    -0.9031600     0.0445260
  H        1.6136390    -1.7721810     0.1023450
  C       -0.3981580    -1.0288190     0.2809600
  H       -0.8184250    -1.9917370     0.5335640
  C       -1.1958050     0.1065580     0.1953970
  H       -2.2606900     0.0495390     0.3734430
  C       -0.5871280     1.3174120    -0.1201050
  H       -1.1618120     2.2295000    -0.2004630
  C        0.7885470     1.3397060    -0.3322410
  H        1.2884320     2.2687940    -0.5785270
--
0 1
  N       -0.5036410    -1.4903360     3.5815600
  C       -1.4361190    -0.5297070     3.6554110
  H       -2.4389080    -0.8606610     3.8976040
  C       -1.1741160     0.8213620     3.4460320
  H       -1.9726740     1.5458670     3.5243030
  C        0.1253110     1.2106030     3.1357630
  H        0.3672960     2.2496020     2.9598920
  C        1.1048710     0.2277050     3.0524020
  H        2.1271720     0.4744510     2.8039650
  C        0.7423910    -1.0974330     3.2855950
  H        1.4862520    -1.8829870     3.2291460
units angstrom
no_reorient
symmetry c1
}

set {
scf_type DF
mp2_type DF
e_convergence 7
reference rhf
}

energy('mp2/aug-cc-pv[tq]z', bsse_type='cp')
--------------------------------------------------------------------------

    Molecular point group: c1
  Charge       = 0
  Multiplicity = 1
  Basis Set: AUG-CC-PVTZ
    Blend: AUG-CC-PVTZ
  Basis Set: (AUG-CC-PVTZ AUX)
    Blend: AUG-CC-PVTZ-JKFIT
  @DF-RHF Final Energy:  -246.77864665110374
    Total Energy =                       -246.7786466511037133
  Basis Set: (AUG-CC-PVTZ AUX)
    Blend: AUG-CC-PVTZ-RI
	 Reference Energy          =    -246.7786466511037418 [Eh]
	 Singles Energy            =      -0.0000000000000000 [Eh]
	 Same-Spin Energy          =      -0.2687953179914686 [Eh]
	 Opposite-Spin Energy      =      -0.8388340941889494 [Eh]
	 Correlation Energy        =      -1.1076294121804180 [Eh]
	 Total Energy              =    -247.8862760632841571 [Eh]
	 SCS Total Energy          =    -247.8748460034609593 [Eh]
    Molecular point group: c1
  Basis Set: AUG-CC-PVQZ
    Blend: AUG-CC-PVQZ
  Basis Set: (AUG-CC-PVQZ AUX)
    Blend: AUG-CC-PVQZ-JKFIT
  @DF-RHF Final Energy:  -246.79278709605140
    Total Energy =                       -246.7927870960513701
  Basis Set: (AUG-CC-PVQZ AUX)
  @DF-RHF Final Energy:  -246.77886146081926
    Total Energy =                       -246.7788614608192574
  @DF-RHF Final Energy:  -246.79284514770825
    Total Energy =                       -246.7928451477082490
  @DF-RHF Final Energy:  -246.77885860986171
    Total Energy =                       -246.7788586098616861
  @DF-RHF Final Energy:  -246.79284230866560
    Total Energy =                       -246.7928423086655698
  @DF-RHF Final Energy:  -246.77864393529080
    Total Energy =                       -246.7786439352908019
  @DF-RHF Final Energy:  -246.79278428557203
    Total Energy =                       -246.7927842855720542
  Multiplicity = 1
  @DF-RHF Final Energy:  -493.54579984850966
    Total Energy =                       -493.5457998485096596
	 Singles Energy            =      -0.0000000000000000 [Eh]
	 Same-Spin Energy          =      -0.5481974758576509 [Eh]
	 Opposite-Spin Energy      =      -1.6935416123803502 [Eh]
	 Correlation Energy        =      -2.2417390882380008 [Eh]
	 Total Energy              =    -495.7875389367476373 [Eh]
	 SCS Total Energy          =    -495.7607822753186042 [Eh]
    Molecular point group: c1

    Geometry (in Angstrom), charge = 0, multiplicity = 1:

       Center              X                  Y                   Z               Mass
    ------------   -----------------  -----------------  -----------------  -----------------
         N            1.569613370283     0.238138958905    -1.920539767813    14.003074004430
         C            0.966492370283    -0.919570041095    -1.619532767813    12.000000000000
         H            1.610771370283    -1.788591041095    -1.561713767813     1.007825032230
         C           -0.401025629717    -1.045229041095    -1.383098767813    12.000000000000
         H           -0.821292629717    -2.008147041095    -1.130494767813     1.007825032230
         C           -1.198672629717     0.090147958905    -1.468661767813    12.000000000000
         H           -2.263557629717     0.033128958905    -1.290615767813     1.007825032230
         C           -0.589995629717     1.301001958905    -1.784163767813    12.000000000000
         H           -1.164679629717     2.213089958905    -1.864521767813     1.007825032230
         C            0.785679370283     1.323295958905    -1.996299767813    12.000000000000
         H            1.285564370283     2.252383958905    -2.242585767813     1.007825032230
         N           -0.506508629717    -1.506746041095     1.917501232187    14.003074004430
         C           -1.438986629717    -0.546117041095     1.991352232187    12.000000000000
         H           -2.441775629717    -0.877071041095     2.233545232187     1.007825032230
         C           -1.176983629717     0.804951958905     1.781973232187    12.000000000000
         H           -1.975541629717     1.529456958905     1.860244232187     1.007825032230
         C            0.122443370283     1.194192958905     1.471704232187    12.000000000000
         H            0.364428370283     2.233191958905     1.295833232187     1.007825032230
         C            1.102003370283     0.211294958905     1.388343232187    12.000000000000
         H            2.124304370283     0.458040958905     1.139906232187     1.007825032230
         C            0.739523370283    -1.113843041095     1.621536232187    12.000000000000
         H            1.483384370283    -1.899397041095     1.565087232187     1.007825032230

  Charge       = 0
  Multiplicity = 1
  Basis Set: AUG-CC-PVQZ
    Blend: AUG-CC-PVQZ
  Basis Set: (AUG-CC-PVQZ AUX)
    Blend: AUG-CC-PVQZ-JKFIT

    Orbital Energies [Eh]
    ---------------------

    Doubly Occupied:

       1A    -15.562143     2A    -15.562075     3A    -11.271750
       4A    -11.271695     5A    -11.271616     6A    -11.271549
       7A    -11.255739     8A    -11.255676     9A    -11.238491
      10A    -11.238407    11A    -11.236715    12A    -11.236608
      13A     -1.255660    14A     -1.252686    15A     -1.089043
      16A     -1.084978    17A     -1.033068    18A     -1.029268
      19A     -0.857115    20A     -0.857020    21A     -0.853805
      22A     -0.853131    23A     -0.721959    24A     -0.717955
      25A     -0.658538    26A     -0.657475    27A     -0.652565
      28A     -0.651569    29A     -0.597242    30A     -0.595000
      31A     -0.575189    32A     -0.574610    33A     -0.561093
      34A     -0.521072    35A     -0.518180    36A     -0.516663
      37A     -0.419017    38A     -0.417655    39A     -0.390775
      40A     -0.377504    41A     -0.353033    42A     -0.331103

  @DF-RHF Final Energy:  -493.57377733639220

   => Energetics <=

    Nuclear Repulsion Energy =            650.7088217723737671
    One-Electron Energy =               -1959.2723212428584247
    Two-Electron Energy =                 814.9897221340925171
    Total Energy =                       -493.5737773363921406

  Dipole Moment: [D]
     X:    -1.6566      Y:     1.9773      Z:     0.0078     Total:     2.5796

  Basis Set: (AUG-CC-PVQZ AUX)
    Blend: AUG-CC-PVQZ-RI
	 Reference Energy          =    -493.5737773363921974 [Eh]
	 Singles Energy            =      -0.0000000000000000 [Eh]
	 Same-Spin Energy          =      -0.5787297330561350 [Eh]
	 Opposite-Spin Energy      =      -1.8981440763058812 [Eh]
	 Correlation Energy        =      -2.4768738093620160 [Eh]
	 Total Energy              =    -496.0506511457542160 [Eh]

	 ================> DF-SCS-MP2 Energies <==================
	-----------------------------------------------------------
	 SCS Same-Spin Scale       =       0.3333333333333333 [-]
	 SCS Opposite-Spin Scale   =       1.2000000000000000 [-]
	 SCS Same-Spin Energy      =      -0.1929099110187116 [Eh]
	 SCS Opposite-Spin Energy  =      -2.2777728915670572 [Eh]
	 SCS Correlation Energy    =      -2.4706828025857690 [Eh]
	 SCS Total Energy          =    -496.0444601389779677 [Eh]
	-----------------------------------------------------------

*** Psi4 exiting successfully. Buy a developer a beer!
