                               Psi4 1.4a2.dev224

  ==> Input File <==

--------------------------------------------------------------------------
#Generated by lconvert.py for cbs job

memory 40 GB

molecule  {
0 1
  N        1.5724810     0.2545490    -0.2564810
  C        0.9693600    -0.9031600     0.0445260
  H        1.6136390    -1.7721810     0.1023450
  C       -0.3981580    -1.0288190     0.2809600
  H       -0.8184250    -1.9917370     0.5335640
  C       -1.1958050     0.1065580     0.1953970
  H       -2.2606900     0.0495390     0.3734430
  C       -0.5871280     1.3174120    -0.1201050
  H       -1.1618120     2.2295000    -0.2004630
  C        0.7885470     1.3397060    -0.3322410
  H        1.2884320     2.2687940    -0.5785270
--
0 1
  N       -0.4074760    -1.4087380     2.7421570
  C       -1.3399550    -0.4481090     2.8160090
  H       -2.3427440    -0.7790640     3.0582020
  C       -1.0779520     0.9029600     2.6066290
  H       -1.8765090     1.6274650     2.6849000
  C        0.2214760     1.2922010     2.2963610
  H        0.4634600     2.3311990     2.1204900
  C        1.2010350     0.3093030     2.2129990
  H        2.2233360     0.5560480     1.9645620
  C        0.8385550    -1.0158350     2.4461920
  H        1.5824160    -1.8013900     2.3897440
units angstrom
no_reorient
symmetry c1
}

set {
scf_type DF
mp2_type DF
e_convergence 7
reference rhf
}

energy('mp2/aug-cc-pv[tq]z', bsse_type='cp')
--------------------------------------------------------------------------

    Molecular point group: c1
  Charge       = 0
  Multiplicity = 1
  Basis Set: AUG-CC-PVTZ
    Blend: AUG-CC-PVTZ
  Basis Set: (AUG-CC-PVTZ AUX)
    Blend: AUG-CC-PVTZ-JKFIT
  @DF-RHF Final Energy:  -246.77864667014322
    Total Energy =                       -246.7786466701432460
  Basis Set: (AUG-CC-PVTZ AUX)
    Blend: AUG-CC-PVTZ-RI
	 Reference Energy          =    -246.7786466701432175 [Eh]
	 Singles Energy            =      -0.0000000000000000 [Eh]
	 Same-Spin Energy          =      -0.2687953153257553 [Eh]
	 Opposite-Spin Energy      =      -0.8388340837701297 [Eh]
	 Correlation Energy        =      -1.1076293990958850 [Eh]
	 Total Energy              =    -247.8862760692391021 [Eh]
	 SCS Total Energy          =    -247.8748460091092909 [Eh]
    Molecular point group: c1
  Basis Set: AUG-CC-PVQZ
    Blend: AUG-CC-PVQZ
  Basis Set: (AUG-CC-PVQZ AUX)
    Blend: AUG-CC-PVQZ-JKFIT
  @DF-RHF Final Energy:  -246.79278711391072
    Total Energy =                       -246.7927871139107197
  Basis Set: (AUG-CC-PVQZ AUX)
  @DF-RHF Final Energy:  -246.77911144580870
    Total Energy =                       -246.7791114458086668
  @DF-RHF Final Energy:  -246.79289177850487
    Total Energy =                       -246.7928917785048952
  @DF-RHF Final Energy:  -246.77910817582750
    Total Energy =                       -246.7791081758275027
  @DF-RHF Final Energy:  -246.79288890790792
    Total Energy =                       -246.7928889079079227
  @DF-RHF Final Energy:  -246.77864393492334
    Total Energy =                       -246.7786439349233092
  @DF-RHF Final Energy:  -246.79278428531251
    Total Energy =                       -246.7927842853125071
  Multiplicity = 1
  @DF-RHF Final Energy:  -493.42909083661107
    Total Energy =                       -493.4290908366110671
	 Singles Energy            =      -0.0000000000000000 [Eh]
	 Same-Spin Energy          =      -0.5732097920954676 [Eh]
	 Opposite-Spin Energy      =      -1.7304149122297798 [Eh]
	 Correlation Energy        =      -2.3036247043252476 [Eh]
	 Total Energy              =    -495.7327155409363399 [Eh]
	 SCS Total Energy          =    -495.6966586619852819 [Eh]
    Molecular point group: c1

    Geometry (in Angstrom), charge = 0, multiplicity = 1:

       Center              X                  Y                   Z               Mass
    ------------   -----------------  -----------------  -----------------  -----------------
         N            1.521531199419     0.197339984406    -1.500838438757    14.003074004430
         C            0.918410199419    -0.960369015594    -1.199831438757    12.000000000000
         H            1.562689199419    -1.829390015594    -1.142012438757     1.007825032230
         C           -0.449107800581    -1.086028015594    -0.963397438757    12.000000000000
         H           -0.869374800581    -2.048946015594    -0.710793438757     1.007825032230
         C           -1.246754800581     0.049348984406    -1.048960438757    12.000000000000
         H           -2.311639800581    -0.007670015594    -0.870914438757     1.007825032230
         C           -0.638077800581     1.260202984406    -1.364462438757    12.000000000000
         H           -1.212761800581     2.172290984406    -1.444820438757     1.007825032230
         C            0.737597199419     1.282496984406    -1.576598438757    12.000000000000
         H            1.237482199419     2.211584984406    -1.822884438757     1.007825032230
         N           -0.458425800581    -1.465947015594     1.497799561243    14.003074004430
         C           -1.390904800581    -0.505318015594     1.571651561243    12.000000000000
         H           -2.393693800581    -0.836273015594     1.813844561243     1.007825032230
         C           -1.128901800581     0.845750984406     1.362271561243    12.000000000000
         H           -1.927458800581     1.570255984406     1.440542561243     1.007825032230
         C            0.170526199419     1.234991984406     1.052003561243    12.000000000000
         H            0.412510199419     2.273989984406     0.876132561243     1.007825032230
         C            1.150085199419     0.252093984406     0.968641561243    12.000000000000
         H            2.172386199419     0.498838984406     0.720204561243     1.007825032230
         C            0.787605199419    -1.073044015594     1.201834561243    12.000000000000
         H            1.531466199419    -1.858599015594     1.145386561243     1.007825032230

  Charge       = 0
  Multiplicity = 1
  Basis Set: AUG-CC-PVQZ
    Blend: AUG-CC-PVQZ
  Basis Set: (AUG-CC-PVQZ AUX)
    Blend: AUG-CC-PVQZ-JKFIT

    Orbital Energies [Eh]
    ---------------------

    Doubly Occupied:

       1A    -15.547726     2A    -15.547508     3A    -11.274564
       4A    -11.274382     5A    -11.262404     6A    -11.262192
       7A    -11.256674     8A    -11.256555     9A    -11.239504
      10A    -11.239272    11A    -11.233259    12A    -11.232898
      13A     -1.267408    14A     -1.243580    15A     -1.099619
      16A     -1.084110    17A     -1.045747    18A     -1.022974
      19A     -0.867012    20A     -0.864535    21A     -0.851769
      22A     -0.848028    23A     -0.735752    24A     -0.710185
      25A     -0.663287    26A     -0.658321    27A     -0.657919
      28A     -0.647759    29A     -0.610868    30A     -0.602045
      31A     -0.594758    32A     -0.573969    33A     -0.571866
      34A     -0.522970    35A     -0.514943    36A     -0.488273
      37A     -0.424626    38A     -0.416875    39A     -0.409961
      40A     -0.374959    41A     -0.328983    42A     -0.291807

  @DF-RHF Final Energy:  -493.45675935677968

   => Energetics <=

    Nuclear Repulsion Energy =            705.6487917266774730
    One-Electron Energy =               -2068.9673920479858680
    Two-Electron Energy =                 869.8618409645287102
    Total Energy =                       -493.4567593567796848

  Dipole Moment: [D]
     X:    -1.4980      Y:     1.7828      Z:     0.0159     Total:     2.3287

  Basis Set: (AUG-CC-PVQZ AUX)
    Blend: AUG-CC-PVQZ-RI
	 Reference Energy          =    -493.4567593567796848 [Eh]
	 Singles Energy            =      -0.0000000000000000 [Eh]
	 Same-Spin Energy          =      -0.6036390437170709 [Eh]
	 Opposite-Spin Energy      =      -1.9312419875242339 [Eh]
	 Correlation Energy        =      -2.5348810312413050 [Eh]
	 Total Energy              =    -495.9916403880209828 [Eh]

	 ================> DF-SCS-MP2 Energies <==================
	-----------------------------------------------------------
	 SCS Same-Spin Scale       =       0.3333333333333333 [-]
	 SCS Opposite-Spin Scale   =       1.2000000000000000 [-]
	 SCS Same-Spin Energy      =      -0.2012130145723570 [Eh]
	 SCS Opposite-Spin Energy  =      -2.3174903850290804 [Eh]
	 SCS Correlation Energy    =      -2.5187033996014376 [Eh]
	 SCS Total Energy          =    -495.9754627563811482 [Eh]
	-----------------------------------------------------------

*** Psi4 exiting successfully. Buy a developer a beer!
