                               Psi4 1.4a2.dev224

  ==> Input File <==

--------------------------------------------------------------------------
#Generated by lconvert.py for cbs job

memory 40 GB

molecule  {
0 1
  N        1.5724810     0.2545490    -0.2564810
  C        0.9693600    -0.9031600     0.0445260
  H        1.6136390    -1.7721810     0.1023450
  C       -0.3981580    -1.0288190     0.2809600
  H       -0.8184250    -1.9917370     0.5335640
  C       -1.1958050     0.1065580     0.1953970
  H       -2.2606900     0.0495390     0.3734430
  C       -0.5871280     1.3174120    -0.1201050
  H       -1.1618120     2.2295000    -0.2004630
  C        0.7885470     1.3397060    -0.3322410
  H        1.2884320     2.2687940    -0.5785270
--
0 1
  N       -0.4447800    -1.4403920     3.0677770
  C       -1.3772580    -0.4797620     3.1416280
  H       -2.3800480    -0.8107170     3.3838210
  C       -1.1152550     0.8713060     2.9322490
  H       -1.9138130     1.5958120     3.0105200
  C        0.1841720     1.2605480     2.6219800
  H        0.4261560     2.2995460     2.4461090
  C        1.1637310     0.2776490     2.5386190
  H        2.1860320     0.5243950     2.2901820
  C        0.8012520    -1.0474880     2.7718120
  H        1.5451120    -1.8330430     2.7153630
units angstrom
no_reorient
symmetry c1
}

set {
scf_type DF
mp2_type DF
e_convergence 7
reference rhf
}

energy('mp2/aug-cc-pv[tq]z', bsse_type='cp')
--------------------------------------------------------------------------

    Molecular point group: c1
  Charge       = 0
  Multiplicity = 1
  Basis Set: AUG-CC-PVTZ
    Blend: AUG-CC-PVTZ
  Basis Set: (AUG-CC-PVTZ AUX)
    Blend: AUG-CC-PVTZ-JKFIT
  @DF-RHF Final Energy:  -246.77864662541214
    Total Energy =                       -246.7786466254121365
  Basis Set: (AUG-CC-PVTZ AUX)
    Blend: AUG-CC-PVTZ-RI
	 Reference Energy          =    -246.7786466254121365 [Eh]
	 Singles Energy            =      -0.0000000000000000 [Eh]
	 Same-Spin Energy          =      -0.2687953287060516 [Eh]
	 Opposite-Spin Energy      =      -0.8388341144826257 [Eh]
	 Correlation Energy        =      -1.1076294431886773 [Eh]
	 Total Energy              =    -247.8862760686008073 [Eh]
	 SCS Total Energy          =    -247.8748460056933141 [Eh]
    Molecular point group: c1
  Basis Set: AUG-CC-PVQZ
    Blend: AUG-CC-PVQZ
  Basis Set: (AUG-CC-PVQZ AUX)
    Blend: AUG-CC-PVQZ-JKFIT
  @DF-RHF Final Energy:  -246.79278707189781
    Total Energy =                       -246.7927870718978056
  Basis Set: (AUG-CC-PVQZ AUX)
  @DF-RHF Final Energy:  -246.77897825266803
    Total Energy =                       -246.7789782526680256
  @DF-RHF Final Energy:  -246.79287186337555
    Total Energy =                       -246.7928718633755807
  @DF-RHF Final Energy:  -246.77897506736878
    Total Energy =                       -246.7789750673687763
  @DF-RHF Final Energy:  -246.79286901724277
    Total Energy =                       -246.7928690172427650
  @DF-RHF Final Energy:  -246.77864393461809
    Total Energy =                       -246.7786439346181169
  @DF-RHF Final Energy:  -246.79278428646683
    Total Energy =                       -246.7927842864668264
  Multiplicity = 1
  @DF-RHF Final Energy:  -493.50509978199017
    Total Energy =                       -493.5050997819901113
	 Singles Energy            =      -0.0000000000000000 [Eh]
	 Same-Spin Energy          =      -0.5597215242591226 [Eh]
	 Opposite-Spin Energy      =      -1.7105309438367207 [Eh]
	 Correlation Energy        =      -2.2702524680958431 [Eh]
	 Total Energy              =    -495.7753522500860299 [Eh]
	 SCS Total Energy          =    -495.7443107560139310 [Eh]
    Molecular point group: c1

    Geometry (in Angstrom), charge = 0, multiplicity = 1:

       Center              X                  Y                   Z               Mass
    ------------   -----------------  -----------------  -----------------  -----------------
         N            1.540182971692     0.213166724804    -1.663648267813    14.003074004430
         C            0.937061971692    -0.944542275196    -1.362641267813    12.000000000000
         H            1.581340971692    -1.813563275196    -1.304822267813     1.007825032230
         C           -0.430456028308    -1.070201275196    -1.126207267813    12.000000000000
         H           -0.850723028308    -2.033119275196    -0.873603267813     1.007825032230
         C           -1.228103028308     0.065175724804    -1.211770267813    12.000000000000
         H           -2.292988028308     0.008156724804    -1.033724267813     1.007825032230
         C           -0.619426028308     1.276029724804    -1.527272267813    12.000000000000
         H           -1.194110028308     2.188117724804    -1.607630267813     1.007825032230
         C            0.756248971692     1.298323724804    -1.739408267813    12.000000000000
         H            1.256133971692     2.227411724804    -1.985694267813     1.007825032230
         N           -0.477078028308    -1.481774275196     1.660609732187    14.003074004430
         C           -1.409556028308    -0.521144275196     1.734460732187    12.000000000000
         H           -2.412346028308    -0.852099275196     1.976653732187     1.007825032230
         C           -1.147553028308     0.829923724804     1.525081732187    12.000000000000
         H           -1.946111028308     1.554429724804     1.603352732187     1.007825032230
         C            0.151873971692     1.219165724804     1.214812732187    12.000000000000
         H            0.393857971692     2.258163724804     1.038941732187     1.007825032230
         C            1.131432971692     0.236266724804     1.131451732187    12.000000000000
         H            2.153733971692     0.483012724804     0.883014732187     1.007825032230
         C            0.768953971692    -1.088870275196     1.364644732187    12.000000000000
         H            1.512813971692    -1.874425275196     1.308195732187     1.007825032230

  Charge       = 0
  Multiplicity = 1
  Basis Set: AUG-CC-PVQZ
    Blend: AUG-CC-PVQZ
  Basis Set: (AUG-CC-PVQZ AUX)
    Blend: AUG-CC-PVQZ-JKFIT

    Orbital Energies [Eh]
    ---------------------

    Doubly Occupied:

       1A    -15.556578     2A    -15.556455     3A    -11.271766
       4A    -11.271659     5A    -11.267941     6A    -11.267835
       7A    -11.255174     8A    -11.255085     9A    -11.236346
      10A    -11.236163    11A    -11.235757    12A    -11.235567
      13A     -1.258937    14A     -1.248419    15A     -1.092765
      16A     -1.082911    17A     -1.037555    18A     -1.026177
      19A     -0.859530    20A     -0.857983    21A     -0.853718
      22A     -0.851125    23A     -0.726689    24A     -0.714330
      25A     -0.658316    26A     -0.656401    27A     -0.655641
      28A     -0.649802    29A     -0.600726    30A     -0.593836
      31A     -0.583715    32A     -0.574000    33A     -0.573365
      34A     -0.519430    35A     -0.516058    36A     -0.502222
      37A     -0.418084    38A     -0.414669    39A     -0.405512
      40A     -0.377924    41A     -0.345183    42A     -0.312806

  @DF-RHF Final Energy:  -493.53294075552827

   => Energetics <=

    Nuclear Repulsion Energy =            681.9184341573643451
    One-Electron Energy =               -2021.6744238139262961
    Two-Electron Energy =                 846.2230489010337351
    Total Energy =                       -493.5329407555282160

  Dipole Moment: [D]
     X:    -1.5917      Y:     1.8981      Z:     0.0109     Total:     2.4771

  Basis Set: (AUG-CC-PVQZ AUX)
    Blend: AUG-CC-PVQZ-RI
	 Reference Energy          =    -493.5329407555282728 [Eh]
	 Singles Energy            =      -0.0000000000000000 [Eh]
	 Same-Spin Energy          =      -0.5901607921484433 [Eh]
	 Opposite-Spin Energy      =      -1.9132669752602167 [Eh]
	 Correlation Energy        =      -2.5034277674086600 [Eh]
	 Total Energy              =    -496.0363685229369253 [Eh]

	 ================> DF-SCS-MP2 Energies <==================
	-----------------------------------------------------------
	 SCS Same-Spin Scale       =       0.3333333333333333 [-]
	 SCS Opposite-Spin Scale   =       1.2000000000000000 [-]
	 SCS Same-Spin Energy      =      -0.1967202640494811 [Eh]
	 SCS Opposite-Spin Energy  =      -2.2959203703122602 [Eh]
	 SCS Correlation Energy    =      -2.4926406343617411 [Eh]
	 SCS Total Energy          =    -496.0255813898900215 [Eh]
	-----------------------------------------------------------

*** Psi4 exiting successfully. Buy a developer a beer!
