                               Psi4 1.4a2.dev224

  ==> Input File <==

--------------------------------------------------------------------------
#Generated by lconvert.py for cbs job

memory 20 GB

molecule  {
0 1
  N       1.572480    0.254550   -0.256480
  C       0.969360   -0.903160    0.044530
  H       1.613640   -1.772180    0.102350
  C      -0.398160   -1.028820    0.280960
  H      -0.818420   -1.991740    0.533560
  C      -1.195810    0.106560    0.195400
  H      -2.260690    0.049540    0.373440
  C      -0.587130    1.317410   -0.120110
  H      -1.161810    2.229500   -0.200460
  C       0.788550    1.339710   -0.332240
  H       1.288430    2.268790   -0.578530
--
0 1
  N      -0.748530   -1.698130    5.719130
  C      -1.681010   -0.737500    5.792980
  H      -2.683790   -1.068460    6.035170
  C      -1.419000    0.613570    5.583600
  H      -2.217560    1.338070    5.661870
  C      -0.119580    1.002810    5.273330
  H       0.122410    2.041810    5.097460
  C       0.859980    0.019910    5.189970
  H       1.882290    0.266660    4.941530
  C       0.497500   -1.305230    5.423160
  H       1.241370   -2.090780    5.366710
units angstrom
no_reorient
symmetry c1
}

set {
scf_type DF
mp2_type DF
e_convergence 7
reference rhf
}

energy('mp2/aug-cc-pv[tq]z', bsse_type='cp')
--------------------------------------------------------------------------

    Molecular point group: c1
  Charge       = 0
  Multiplicity = 1
  Basis Set: AUG-CC-PVTZ
    Blend: AUG-CC-PVTZ
  Basis Set: (AUG-CC-PVTZ AUX)
    Blend: AUG-CC-PVTZ-JKFIT
  @DF-RHF Final Energy:  -246.77864658203490
    Total Energy =                       -246.7786465820348667
  Basis Set: (AUG-CC-PVTZ AUX)
    Blend: AUG-CC-PVTZ-RI
	 Reference Energy          =    -246.7786465820348951 [Eh]
	 Singles Energy            =      -0.0000000000000000 [Eh]
	 Same-Spin Energy          =      -0.2687953451505083 [Eh]
	 Opposite-Spin Energy      =      -0.8388341469630440 [Eh]
	 Correlation Energy        =      -1.1076294921135523 [Eh]
	 Total Energy              =    -247.8862760741484408 [Eh]
	 SCS Total Energy          =    -247.8748460067740496 [Eh]
    Molecular point group: c1
  Basis Set: AUG-CC-PVQZ
    Blend: AUG-CC-PVQZ
  Basis Set: (AUG-CC-PVQZ AUX)
    Blend: AUG-CC-PVQZ-JKFIT
  @DF-RHF Final Energy:  -246.79278702228112
    Total Energy =                       -246.7927870222811180
  Basis Set: (AUG-CC-PVQZ AUX)
  @DF-RHF Final Energy:  -246.77868397206782
    Total Energy =                       -246.7786839720678245
  @DF-RHF Final Energy:  -246.79280040383901
    Total Energy =                       -246.7928004038390100
  @DF-RHF Final Energy:  -246.77868118135194
    Total Energy =                       -246.7786811813519421
  @DF-RHF Final Energy:  -246.79279760941444
    Total Energy =                       -246.7927976094144356
  @DF-RHF Final Energy:  -246.77864388737336
    Total Energy =                       -246.7786438873733914
  @DF-RHF Final Energy:  -246.79278423514506
    Total Energy =                       -246.7927842351450636
  Multiplicity = 1
  @DF-RHF Final Energy:  -493.55759597417284
    Total Energy =                       -493.5575959741728411
	 Singles Energy            =      -0.0000000000000000 [Eh]
	 Same-Spin Energy          =      -0.5383291955936155 [Eh]
	 Opposite-Spin Energy      =      -1.6790673904111464 [Eh]
	 Correlation Energy        =      -2.2173965860047620 [Eh]
	 Total Energy              =    -495.7749925601776226 [Eh]
	 SCS Total Energy          =    -495.7519199078640781 [Eh]
    Molecular point group: c1

    Geometry (in Angstrom), charge = 0, multiplicity = 1:

       Center              X                  Y                   Z               Mass
    ------------   -----------------  -----------------  -----------------  -----------------
         N            1.692057431659     0.342036687226    -2.989322957050    14.003074004430
         C            1.088937431659    -0.815673312774    -2.688312957050    12.000000000000
         H            1.733217431659    -1.684693312774    -2.630492957050     1.007825032230
         C           -0.278582568341    -0.941333312774    -2.451882957050    12.000000000000
         H           -0.698842568341    -1.904253312774    -2.199282957050     1.007825032230
         C           -1.076232568341     0.194046687226    -2.537442957050    12.000000000000
         H           -2.141112568341     0.137026687226    -2.359402957050     1.007825032230
         C           -0.467552568341     1.404896687226    -2.852952957050    12.000000000000
         H           -1.042232568341     2.316986687226    -2.933302957050     1.007825032230
         C            0.908127431659     1.427196687226    -3.065082957050    12.000000000000
         H            1.408007431659     2.356276687226    -3.311372957050     1.007825032230
         N           -0.628952568341    -1.610643312774     2.986287042950    14.003074004430
         C           -1.561432568341    -0.650013312774     3.060137042950    12.000000000000
         H           -2.564212568341    -0.980973312774     3.302327042950     1.007825032230
         C           -1.299422568341     0.701056687226     2.850757042950    12.000000000000
         H           -2.097982568341     1.425556687226     2.929027042950     1.007825032230
         C           -0.000002568341     1.090296687226     2.540487042950    12.000000000000
         H            0.241987431659     2.129296687226     2.364617042950     1.007825032230
         C            0.979557431659     0.107396687226     2.457127042950    12.000000000000
         H            2.001867431659     0.354146687226     2.208687042950     1.007825032230
         C            0.617077431659    -1.217743312774     2.690317042950    12.000000000000
         H            1.360947431659    -2.003293312774     2.633867042950     1.007825032230

  Charge       = 0
  Multiplicity = 1
  Basis Set: AUG-CC-PVQZ
    Blend: AUG-CC-PVQZ
  Basis Set: (AUG-CC-PVQZ AUX)
    Blend: AUG-CC-PVQZ-JKFIT

    Orbital Energies [Eh]
    ---------------------

    Doubly Occupied:

       1A    -15.565055     2A    -15.565041     3A    -11.274152
       4A    -11.274140     5A    -11.273743     6A    -11.273725
       7A    -11.258752     8A    -11.258730     9A    -11.241126
      10A    -11.241107    11A    -11.240256    12A    -11.240234
      13A     -1.256057    14A     -1.256014    15A     -1.089261
      16A     -1.089206    17A     -1.032938    18A     -1.032893
      19A     -0.858920    20A     -0.858892    21A     -0.855390
      22A     -0.855370    23A     -0.721687    24A     -0.721632
      25A     -0.660266    26A     -0.660232    27A     -0.653891
      28A     -0.653866    29A     -0.597849    30A     -0.597807
      31A     -0.576981    32A     -0.576958    33A     -0.541830
      34A     -0.540393    35A     -0.519641    36A     -0.519625
      37A     -0.420056    38A     -0.420014    39A     -0.384390
      40A     -0.383170    41A     -0.348236    42A     -0.346749

  @DF-RHF Final Energy:  -493.58583122356146

   => Energetics <=

    Nuclear Repulsion Energy =            570.4809601590349075
    One-Electron Energy =               -1798.6610165292534020
    Two-Electron Energy =                 734.5942251466572088
    Total Energy =                       -493.5858312235613994

  Dipole Moment: [D]
     X:    -1.7286      Y:     2.0632      Z:     0.0054     Total:     2.6916

  Basis Set: (AUG-CC-PVQZ AUX)
    Blend: AUG-CC-PVQZ-RI
	 Reference Energy          =    -493.5858312235614562 [Eh]
	 Singles Energy            =      -0.0000000000000000 [Eh]
	 Same-Spin Energy          =      -0.5690360440633888 [Eh]
	 Opposite-Spin Energy      =      -1.8857652853919087 [Eh]
	 Correlation Energy        =      -2.4548013294552975 [Eh]
	 Total Energy              =    -496.0406325530167351 [Eh]

	 ================> DF-SCS-MP2 Energies <==================
	-----------------------------------------------------------
	 SCS Same-Spin Scale       =       0.3333333333333333 [-]
	 SCS Opposite-Spin Scale   =       1.2000000000000000 [-]
	 SCS Same-Spin Energy      =      -0.1896786813544629 [Eh]
	 SCS Opposite-Spin Energy  =      -2.2629183424702903 [Eh]
	 SCS Correlation Energy    =      -2.4525970238247532 [Eh]
	 SCS Total Energy          =    -496.0384282473862072 [Eh]
	-----------------------------------------------------------

*** Psi4 exiting successfully. Buy a developer a beer!
