                               Psi4 1.4a2.dev224

  ==> Input File <==

--------------------------------------------------------------------------
#Generated by lconvert.py for cbs job

memory 40 GB

molecule  {
0 1
  N        1.5724810     0.2545490    -0.2564810
  C        0.9693600    -0.9031600     0.0445260
  H        1.6136390    -1.7721810     0.1023450
  C       -0.3981580    -1.0288190     0.2809600
  H       -0.8184250    -1.9917370     0.5335640
  C       -1.1958050     0.1065580     0.1953970
  H       -2.2606900     0.0495390     0.3734430
  C       -0.5871280     1.3174120    -0.1201050
  H       -1.1618120     2.2295000    -0.2004630
  C        0.7885470     1.3397060    -0.3322410
  H        1.2884320     2.2687940    -0.5785270
--
0 1
  N       -0.5620070    -1.5398610     4.0910260
  C       -1.4944850    -0.5792310     4.1648770
  H       -2.4972740    -0.9101860     4.4070700
  C       -1.2324820     0.7718370     3.9554980
  H       -2.0310400     1.4963420     4.0337690
  C        0.0669450     1.1610780     3.6452300
  H        0.3089300     2.2000770     3.4693580
  C        1.0465050     0.1781800     3.5618680
  H        2.0688060     0.4249260     3.3134310
  C        0.6840250    -1.1469580     3.7950610
  H        1.4278860    -1.9325120     3.7386130
units angstrom
no_reorient
symmetry c1
}

set {
scf_type DF
mp2_type DF
e_convergence 7
reference rhf
}

energy('mp2/aug-cc-pv[tq]z', bsse_type='cp')
--------------------------------------------------------------------------

    Molecular point group: c1
  Charge       = 0
  Multiplicity = 1
  Basis Set: AUG-CC-PVTZ
    Blend: AUG-CC-PVTZ
  Basis Set: (AUG-CC-PVTZ AUX)
    Blend: AUG-CC-PVTZ-JKFIT
  @DF-RHF Final Energy:  -246.77864663621088
    Total Energy =                       -246.7786466362108513
  Basis Set: (AUG-CC-PVTZ AUX)
    Blend: AUG-CC-PVTZ-RI
	 Reference Energy          =    -246.7786466362108797 [Eh]
	 Singles Energy            =      -0.0000000000000000 [Eh]
	 Same-Spin Energy          =      -0.2687953226975739 [Eh]
	 Opposite-Spin Energy      =      -0.8388341046253112 [Eh]
	 Correlation Energy        =      -1.1076294273228851 [Eh]
	 Total Energy              =    -247.8862760635337565 [Eh]
	 SCS Total Energy          =    -247.8748460026604334 [Eh]
    Molecular point group: c1
  Basis Set: AUG-CC-PVQZ
    Blend: AUG-CC-PVQZ
  Basis Set: (AUG-CC-PVQZ AUX)
    Blend: AUG-CC-PVQZ-JKFIT
  @DF-RHF Final Energy:  -246.79278708347758
    Total Energy =                       -246.7927870834776058
  Basis Set: (AUG-CC-PVQZ AUX)
  @DF-RHF Final Energy:  -246.77879747630868
    Total Energy =                       -246.7787974763086822
  @DF-RHF Final Energy:  -246.79282608191630
    Total Energy =                       -246.7928260819163029
  @DF-RHF Final Energy:  -246.77879471680220
    Total Energy =                       -246.7787947168021674
  @DF-RHF Final Energy:  -246.79282322663408
    Total Energy =                       -246.7928232266340842
  @DF-RHF Final Energy:  -246.77864393695856
    Total Energy =                       -246.7786439369585310
  @DF-RHF Final Energy:  -246.79278428455456
    Total Energy =                       -246.7927842845545570
  Multiplicity = 1
  @DF-RHF Final Energy:  -493.55523072373302
    Total Energy =                       -493.5552307237329615
	 Singles Energy            =      -0.0000000000000000 [Eh]
	 Same-Spin Energy          =      -0.5428617738620276 [Eh]
	 Opposite-Spin Energy      =      -1.6858638101801402 [Eh]
	 Correlation Energy        =      -2.2287255840421678 [Eh]
	 Total Energy              =    -495.7839563077752132 [Eh]
	 SCS Total Energy          =    -495.7592212205698843 [Eh]
    Molecular point group: c1

    Geometry (in Angstrom), charge = 0, multiplicity = 1:

       Center              X                  Y                   Z               Mass
    ------------   -----------------  -----------------  -----------------  -----------------
         N            1.598796370283     0.262901382997    -2.175272850097    14.003074004430
         C            0.995675370283    -0.894807617003    -1.874265850097    12.000000000000
         H            1.639954370283    -1.763828617003    -1.816446850097     1.007825032230
         C           -0.371842629717    -1.020466617003    -1.637831850097    12.000000000000
         H           -0.792109629717    -1.983384617003    -1.385227850097     1.007825032230
         C           -1.169489629717     0.114910382997    -1.723394850097    12.000000000000
         H           -2.234374629717     0.057891382997    -1.545348850097     1.007825032230
         C           -0.560812629717     1.325764382997    -2.038896850097    12.000000000000
         H           -1.135496629717     2.237852382997    -2.119254850097     1.007825032230
         C            0.814862370283     1.348058382997    -2.251032850097    12.000000000000
         H            1.314747370283     2.277146382997    -2.497318850097     1.007825032230
         N           -0.535691629717    -1.531508617003     2.172234149903    14.003074004430
         C           -1.468169629717    -0.570878617003     2.246085149903    12.000000000000
         H           -2.470958629717    -0.901833617003     2.488278149903     1.007825032230
         C           -1.206166629717     0.780189382997     2.036706149903    12.000000000000
         H           -2.004724629717     1.504694382997     2.114977149903     1.007825032230
         C            0.093260370283     1.169430382997     1.726438149903    12.000000000000
         H            0.335245370283     2.208429382997     1.550566149903     1.007825032230
         C            1.072820370283     0.186532382997     1.643076149903    12.000000000000
         H            2.095121370283     0.433278382997     1.394639149903     1.007825032230
         C            0.710340370283    -1.138605617003     1.876269149903    12.000000000000
         H            1.454201370283    -1.924159617003     1.819821149903     1.007825032230

  Charge       = 0
  Multiplicity = 1
  Basis Set: AUG-CC-PVQZ
    Blend: AUG-CC-PVQZ
  Basis Set: (AUG-CC-PVQZ AUX)
    Blend: AUG-CC-PVQZ-JKFIT

    Orbital Energies [Eh]
    ---------------------

    Doubly Occupied:

       1A    -15.563876     2A    -15.563832     3A    -11.273063
       4A    -11.273026     5A    -11.272327     6A    -11.272280
       7A    -11.256861     8A    -11.256815     9A    -11.239826
      10A    -11.239778    11A    -11.238009    12A    -11.237946
      13A     -1.255344    14A     -1.254482    15A     -1.088400
      16A     -1.086867    17A     -1.032275    18A     -1.030997
      19A     -0.857637    20A     -0.857438    21A     -0.854174
      22A     -0.854064    23A     -0.721089    24A     -0.719739
      25A     -0.659065    26A     -0.658639    27A     -0.652551
      28A     -0.652514    29A     -0.596966    30A     -0.596166
      31A     -0.575602    32A     -0.575498    33A     -0.550109
      34A     -0.530827    35A     -0.518438    36A     -0.518165
      37A     -0.419440    38A     -0.418865    39A     -0.386502
      40A     -0.378862    41A     -0.351899    42A     -0.339327

  @DF-RHF Final Energy:  -493.58329005953527

   => Energetics <=

    Nuclear Repulsion Energy =            625.6025623581823538
    One-Electron Energy =               -1909.0125226883096730
    Two-Electron Energy =                 789.8266702705921034
    Total Energy =                       -493.5832900595353294

  Dipole Moment: [D]
     X:    -1.6864      Y:     2.0132      Z:     0.0066     Total:     2.6262

  Basis Set: (AUG-CC-PVQZ AUX)
    Blend: AUG-CC-PVQZ-RI
	 Reference Energy          =    -493.5832900595352726 [Eh]
	 Singles Energy            =      -0.0000000000000000 [Eh]
	 Same-Spin Energy          =      -0.5734475840572610 [Eh]
	 Opposite-Spin Energy      =      -1.8913189307547524 [Eh]
	 Correlation Energy        =      -2.4647665148120135 [Eh]
	 Total Energy              =    -496.0480565743472994 [Eh]

	 ================> DF-SCS-MP2 Energies <==================
	-----------------------------------------------------------
	 SCS Same-Spin Scale       =       0.3333333333333333 [-]
	 SCS Opposite-Spin Scale   =       1.2000000000000000 [-]
	 SCS Same-Spin Energy      =      -0.1911491946857537 [Eh]
	 SCS Opposite-Spin Energy  =      -2.2695827169057030 [Eh]
	 SCS Correlation Energy    =      -2.4607319115914565 [Eh]
	 SCS Total Energy          =    -496.0440219711267105 [Eh]
	-----------------------------------------------------------

*** Psi4 exiting successfully. Buy a developer a beer!
