                               Psi4 1.4a2.dev224

  ==> Input File <==

--------------------------------------------------------------------------
#Generated by lconvert.py for cbs job

memory 20 GB

molecule  {
0 1
  N       1.572480    0.254550   -0.256480
  C       0.969360   -0.903160    0.044530
  H       1.613640   -1.772180    0.102350
  C      -0.398160   -1.028820    0.280960
  H      -0.818420   -1.991740    0.533560
  C      -1.195810    0.106560    0.195400
  H      -2.260690    0.049540    0.373440
  C      -0.587130    1.317410   -0.120110
  H      -1.161810    2.229500   -0.200460
  C       0.788550    1.339710   -0.332240
  H       1.288430    2.268790   -0.578530
--
0 1
  N      -0.636620   -1.603170    4.742270
  C      -1.569090   -0.642540    4.816120
  H      -2.571880   -0.973490    5.058310
  C      -1.307090    0.708530    4.606740
  H      -2.105650    1.433030    4.685010
  C      -0.007660    1.097770    4.296470
  H       0.234320    2.136770    4.120600
  C       0.971900    0.114870    4.213110
  H       1.994200    0.361620    3.964670
  C       0.609420   -1.210270    4.446300
  H       1.353280   -1.995820    4.389850
units angstrom
no_reorient
symmetry c1
}

set {
scf_type DF
mp2_type DF
e_convergence 7
reference rhf
}

energy('mp2/aug-cc-pv[tq]z', bsse_type='cp')
--------------------------------------------------------------------------

    Molecular point group: c1
  Charge       = 0
  Multiplicity = 1
  Basis Set: AUG-CC-PVTZ
    Blend: AUG-CC-PVTZ
  Basis Set: (AUG-CC-PVTZ AUX)
    Blend: AUG-CC-PVTZ-JKFIT
  @DF-RHF Final Energy:  -246.77864646914662
    Total Energy =                       -246.7786464691466222
  Basis Set: (AUG-CC-PVTZ AUX)
    Blend: AUG-CC-PVTZ-RI
	 Reference Energy          =    -246.7786464691466222 [Eh]
	 Singles Energy            =      -0.0000000000000000 [Eh]
	 Same-Spin Energy          =      -0.2687953285804475 [Eh]
	 Opposite-Spin Energy      =      -0.8388342001375981 [Eh]
	 Correlation Energy        =      -1.1076295287180455 [Eh]
	 Total Energy              =    -247.8862759978646579 [Eh]
	 SCS Total Energy          =    -247.8748459521718814 [Eh]
    Molecular point group: c1
  Basis Set: AUG-CC-PVQZ
    Blend: AUG-CC-PVQZ
  Basis Set: (AUG-CC-PVQZ AUX)
    Blend: AUG-CC-PVQZ-JKFIT
  @DF-RHF Final Energy:  -246.79278691051712
    Total Energy =                       -246.7927869105171226
  Basis Set: (AUG-CC-PVQZ AUX)
  @DF-RHF Final Energy:  -246.77874465190297
    Total Energy =                       -246.7787446519029686
  @DF-RHF Final Energy:  -246.79281153883613
    Total Energy =                       -246.7928115388361334
  @DF-RHF Final Energy:  -246.77874201542505
    Total Energy =                       -246.7787420154250526
  @DF-RHF Final Energy:  -246.79280885696437
    Total Energy =                       -246.7928088569643705
  @DF-RHF Final Energy:  -246.77864388584439
    Total Energy =                       -246.7786438858444171
  @DF-RHF Final Energy:  -246.79278423502521
    Total Energy =                       -246.7927842350251808
  Multiplicity = 1
  @DF-RHF Final Energy:  -493.55743167711853
    Total Energy =                       -493.5574316771185295
	 Singles Energy            =      -0.0000000000000000 [Eh]
	 Same-Spin Energy          =      -0.5398739632105831 [Eh]
	 Opposite-Spin Energy      =      -1.6815175189937217 [Eh]
	 Correlation Energy        =      -2.2213914822043046 [Eh]
	 Total Energy              =    -495.7788231593228261 [Eh]
	 SCS Total Energy          =    -495.7552106876478319 [Eh]
    Molecular point group: c1

    Geometry (in Angstrom), charge = 0, multiplicity = 1:

       Center              X                  Y                   Z               Mass
    ------------   -----------------  -----------------  -----------------  -----------------
         N            1.636099395306     0.294556623474    -2.500892957050    14.003074004430
         C            1.032979395306    -0.863153376526    -2.199882957050    12.000000000000
         H            1.677259395306    -1.732173376526    -2.142062957050     1.007825032230
         C           -0.334540604694    -0.988813376526    -1.963452957050    12.000000000000
         H           -0.754800604694    -1.951733376526    -1.710852957050     1.007825032230
         C           -1.132190604694     0.146566623474    -2.049012957050    12.000000000000
         H           -2.197070604694     0.089546623474    -1.870972957050     1.007825032230
         C           -0.523510604694     1.357416623474    -2.364522957050    12.000000000000
         H           -1.098190604694     2.269506623474    -2.444872957050     1.007825032230
         C            0.852169395306     1.379716623474    -2.576652957050    12.000000000000
         H            1.352049395306     2.308796623474    -2.822942957050     1.007825032230
         N           -0.573000604694    -1.563163376526     2.497857042950    14.003074004430
         C           -1.505470604694    -0.602533376526     2.571707042950    12.000000000000
         H           -2.508260604694    -0.933483376526     2.813897042950     1.007825032230
         C           -1.243470604694     0.748536623474     2.362327042950    12.000000000000
         H           -2.042030604694     1.473036623474     2.440597042950     1.007825032230
         C            0.055959395306     1.137776623474     2.052057042950    12.000000000000
         H            0.297939395306     2.176776623474     1.876187042950     1.007825032230
         C            1.035519395306     0.154876623474     1.968697042950    12.000000000000
         H            2.057819395306     0.401626623474     1.720257042950     1.007825032230
         C            0.673039395306    -1.170263376526     2.201887042950    12.000000000000
         H            1.416899395306    -1.955813376526     2.145437042950     1.007825032230

  Charge       = 0
  Multiplicity = 1
  Basis Set: AUG-CC-PVQZ
    Blend: AUG-CC-PVQZ
  Basis Set: (AUG-CC-PVQZ AUX)
    Blend: AUG-CC-PVQZ-JKFIT

    Orbital Energies [Eh]
    ---------------------

    Doubly Occupied:

       1A    -15.564608     2A    -15.564580     3A    -11.273701
       4A    -11.273678     5A    -11.273060     6A    -11.273028
       7A    -11.257886     8A    -11.257854     9A    -11.240602
      10A    -11.240571    11A    -11.239222    12A    -11.239185
      13A     -1.255606    14A     -1.255423    15A     -1.088653
      16A     -1.088242    17A     -1.032434    18A     -1.032121
      19A     -0.858274    20A     -0.858166    21A     -0.854784
      22A     -0.854752    23A     -0.721209    24A     -0.720855
      25A     -0.659653    26A     -0.659534    27A     -0.653246
      28A     -0.653150    29A     -0.597313    30A     -0.597083
      31A     -0.576290    32A     -0.576258    33A     -0.544157
      34A     -0.537108    35A     -0.519010    36A     -0.518980
      37A     -0.419738    38A     -0.419539    39A     -0.384991
      40A     -0.381121    41A     -0.349552    42A     -0.344023

  @DF-RHF Final Energy:  -493.58556612461962

   => Energetics <=

    Nuclear Repulsion Energy =            599.8059284441276304
    One-Electron Energy =               -1857.3644839860762659
    Two-Electron Energy =                 763.9729894173290177
    Total Energy =                       -493.5855661246196178

  Dipole Moment: [D]
     X:    -1.7083      Y:     2.0393      Z:     0.0059     Total:     2.6602

  Basis Set: (AUG-CC-PVQZ AUX)
    Blend: AUG-CC-PVQZ-RI
	 Reference Energy          =    -493.5855661246196178 [Eh]
	 Singles Energy            =      -0.0000000000000000 [Eh]
	 Same-Spin Energy          =      -0.5705155602165319 [Eh]
	 Opposite-Spin Energy      =      -1.8876213117508147 [Eh]
	 Correlation Energy        =      -2.4581368719673469 [Eh]
	 Total Energy              =    -496.0437029965869442 [Eh]

	 ================> DF-SCS-MP2 Energies <==================
	-----------------------------------------------------------
	 SCS Same-Spin Scale       =       0.3333333333333333 [-]
	 SCS Opposite-Spin Scale   =       1.2000000000000000 [-]
	 SCS Same-Spin Energy      =      -0.1901718534055106 [Eh]
	 SCS Opposite-Spin Energy  =      -2.2651455741009774 [Eh]
	 SCS Correlation Energy    =      -2.4553174275064880 [Eh]
	 SCS Total Energy          =    -496.0408835521261040 [Eh]
	-----------------------------------------------------------

*** Psi4 exiting successfully. Buy a developer a beer!
