                               Psi4 1.4a2.dev224

  ==> Input File <==

--------------------------------------------------------------------------
#Generated by lconvert.py for cbs job

memory 40 GB

molecule  {
0 1
  N        1.3769010     0.8397470     0.7346250
  H        1.0518120     1.3862240     1.5233560
  C        1.3089830     1.4575300    -0.5206550
  O        0.9205610     2.6110780    -0.6259770
  N        2.0114230    -1.2132080    -0.0980720
  H        1.7272860     0.9908430    -2.6119960
  C        2.0257370    -0.6971710    -1.3643970
  H        2.2975170    -1.3910600    -2.1456450
  C        1.7145120     0.5919380    -1.6124870
  H        2.1294540    -2.2015210     0.0568290
  C        1.6459450    -0.4852060     1.0187180
  O        1.5611160    -0.9718160     2.1298090
--
0 1
  N       -1.5140410    -0.8634240     0.7346250
  H       -1.1889520    -1.4099000     1.5233560
  C       -1.4461230    -1.4812060    -0.5206550
  O       -1.0577010    -2.6347540    -0.6259770
  N       -2.1485630     1.1895320    -0.0980720
  H       -1.8644260    -1.0145190    -2.6119960
  C       -2.1628770     0.6734950    -1.3643970
  H       -2.4346570     1.3673840    -2.1456450
  C       -1.8516520    -0.6156140    -1.6124870
  H       -2.2665940     2.1778440     0.0568290
  C       -1.7830850     0.4615300     1.0187180
  O       -1.6982560     0.9481400     2.1298090
units angstrom
no_reorient
symmetry c1
}

set {
scf_type DF
mp2_type DF
e_convergence 7
reference rhf
}

energy('mp2/aug-cc-pv[tq]z', bsse_type='cp')
--------------------------------------------------------------------------

    Molecular point group: c1
  Charge       = 0
  Multiplicity = 1
  Basis Set: AUG-CC-PVTZ
    Blend: AUG-CC-PVTZ
  Basis Set: (AUG-CC-PVTZ AUX)
    Blend: AUG-CC-PVTZ-JKFIT
  @DF-RHF Final Energy:  -412.62374922710245
    Total Energy =                       -412.6237492271024507
  Basis Set: (AUG-CC-PVTZ AUX)
    Blend: AUG-CC-PVTZ-RI
	 Reference Energy          =    -412.6237492271024507 [Eh]
	 Singles Energy            =      -0.0000000000000000 [Eh]
	 Same-Spin Energy          =      -0.4142089713512634 [Eh]
	 Opposite-Spin Energy      =      -1.2265627699523121 [Eh]
	 Correlation Energy        =      -1.6407717413035754 [Eh]
	 Total Energy              =    -414.2645209684060319 [Eh]
	 SCS Total Energy          =    -414.2336942081623192 [Eh]
    Molecular point group: c1
  Basis Set: AUG-CC-PVQZ
    Blend: AUG-CC-PVQZ
  Basis Set: (AUG-CC-PVQZ AUX)
    Blend: AUG-CC-PVQZ-JKFIT
  @DF-RHF Final Energy:  -412.64926955916633
    Total Energy =                       -412.6492695591663278
  Basis Set: (AUG-CC-PVQZ AUX)
  @DF-RHF Final Energy:  -412.62408225703814
    Total Energy =                       -412.6240822570381397
  @DF-RHF Final Energy:  -412.64935811239013
    Total Energy =                       -412.6493581123901322
  @DF-RHF Final Energy:  -412.62408222359682
    Total Energy =                       -412.6240822235968153
  @DF-RHF Final Energy:  -412.64935807820507
    Total Energy =                       -412.6493580782050685
  @DF-RHF Final Energy:  -412.62374919609067
    Total Energy =                       -412.6237491960906709
  @DF-RHF Final Energy:  -412.64926952237022
    Total Energy =                       -412.6492695223702185
  Multiplicity = 1
  @DF-RHF Final Energy:  -825.25054297587099
    Total Energy =                       -825.2505429758709852
	 Singles Energy            =      -0.0000000000000000 [Eh]
	 Same-Spin Energy          =      -0.8364800535115882 [Eh]
	 Opposite-Spin Energy      =      -2.4654651266017504 [Eh]
	 Correlation Energy        =      -3.3019451801133384 [Eh]
	 Total Energy              =    -828.5524881559842925 [Eh]
	 SCS Total Energy          =    -828.4879278122969026 [Eh]
    Molecular point group: c1

    Geometry (in Angstrom), charge = 0, multiplicity = 1:

       Center              X                  Y                   Z               Mass
    ------------   -----------------  -----------------  -----------------  -----------------
         N            1.445471000000     0.851585066997     0.734453688925    14.003074004430
         H            1.120382000000     1.398062066997     1.523184688925     1.007825032230
         C            1.377553000000     1.469368066997    -0.520826311075    12.000000000000
         O            0.989131000000     2.622916066997    -0.626148311075    15.994914619570
         N            2.079993000000    -1.201369933003    -0.098243311075    14.003074004430
         H            1.795856000000     1.002681066997    -2.612167311075     1.007825032230
         C            2.094307000000    -0.685332933003    -1.364568311075    12.000000000000
         H            2.366087000000    -1.379221933003    -2.145816311075     1.007825032230
         C            1.783082000000     0.603776066997    -1.612658311075    12.000000000000
         H            2.198024000000    -2.189682933003     0.056657688925     1.007825032230
         C            1.714515000000    -0.473367933003     1.018546688925    12.000000000000
         O            1.629686000000    -0.959977933003     2.129637688925    15.994914619570
         N           -1.445471000000    -0.851585933003     0.734453688925    14.003074004430
         H           -1.120382000000    -1.398061933003     1.523184688925     1.007825032230
         C           -1.377553000000    -1.469367933003    -0.520826311075    12.000000000000
         O           -0.989131000000    -2.622915933003    -0.626148311075    15.994914619570
         N           -2.079993000000     1.201370066997    -0.098243311075    14.003074004430
         H           -1.795856000000    -1.002680933003    -2.612167311075     1.007825032230
         C           -2.094307000000     0.685333066997    -1.364568311075    12.000000000000
         H           -2.366087000000     1.379222066997    -2.145816311075     1.007825032230
         C           -1.783082000000    -0.603775933003    -1.612658311075    12.000000000000
         H           -2.198024000000     2.189682066997     0.056657688925     1.007825032230
         C           -1.714515000000     0.473368066997     1.018546688925    12.000000000000
         O           -1.629686000000     0.959978066997     2.129637688925    15.994914619570

  Charge       = 0
  Multiplicity = 1
  Basis Set: AUG-CC-PVQZ
    Blend: AUG-CC-PVQZ
  Basis Set: (AUG-CC-PVQZ AUX)
    Blend: AUG-CC-PVQZ-JKFIT

    Orbital Energies [Eh]
    ---------------------

    Doubly Occupied:

       1A    -20.545375     2A    -20.545374     3A    -20.544460
       4A    -20.544460     5A    -15.641011     6A    -15.641011
       7A    -15.627410     8A    -15.627408     9A    -11.418460
      10A    -11.418460    11A    -11.384856    12A    -11.384856
      13A    -11.340796    14A    -11.340796    15A    -11.255119
      16A    -11.255118    17A     -1.438844    18A     -1.435715
      19A     -1.402058    20A     -1.401418    21A     -1.313969
      22A     -1.313943    23A     -1.248304    24A     -1.246939
      25A     -1.090534    26A     -1.088601    27A     -0.935000
      28A     -0.934642    29A     -0.903156    30A     -0.902631
      31A     -0.807439    32A     -0.806956    33A     -0.767285
      34A     -0.766635    35A     -0.715011    36A     -0.714939
      37A     -0.687696    38A     -0.681028    39A     -0.680243
      40A     -0.657763    41A     -0.654403    42A     -0.652337
      43A     -0.617486    44A     -0.617462    45A     -0.604471
      46A     -0.603966    47A     -0.584757    48A     -0.568638
      49A     -0.532805    50A     -0.518722    51A     -0.486144
      52A     -0.484863    53A     -0.455102    54A     -0.454037
      55A     -0.442232    56A     -0.440800    57A     -0.380513
      58A     -0.361627

  @DF-RHF Final Energy:  -825.30109950414317

   => Energetics <=

    Nuclear Repulsion Energy =           1148.5755090279594697
    One-Electron Energy =               -3409.9210236537464880
    Two-Electron Energy =                1436.0444151216438513
    Total Energy =                       -825.3010995041431670

  Dipole Moment: [D]
     X:    -0.0000      Y:     0.0000      Z:    -5.6922     Total:     5.6922

  Basis Set: (AUG-CC-PVQZ AUX)
    Blend: AUG-CC-PVQZ-RI
	 Reference Energy          =    -825.3010995041431670 [Eh]
	 Singles Energy            =      -0.0000000000000000 [Eh]
	 Same-Spin Energy          =      -0.8863292265817353 [Eh]
	 Opposite-Spin Energy      =      -2.7858919251577032 [Eh]
	 Correlation Energy        =      -3.6722211517394383 [Eh]
	 Total Energy              =    -828.9733206558826168 [Eh]

	 ================> DF-SCS-MP2 Energies <==================
	-----------------------------------------------------------
	 SCS Same-Spin Scale       =       0.3333333333333333 [-]
	 SCS Opposite-Spin Scale   =       1.2000000000000000 [-]
	 SCS Same-Spin Energy      =      -0.2954430755272451 [Eh]
	 SCS Opposite-Spin Energy  =      -3.3430703101892436 [Eh]
	 SCS Correlation Energy    =      -3.6385133857164886 [Eh]
	 SCS Total Energy          =    -828.9396128898596317 [Eh]
	-----------------------------------------------------------

*** Psi4 exiting successfully. Buy a developer a beer!
