                               Psi4 1.4a2.dev224

  ==> Input File <==

--------------------------------------------------------------------------
#Generated by lconvert.py for cbs job

memory 40 GB

molecule  {
0 1
  N        1.3769010     0.8397470     0.7346250
  H        1.0518120     1.3862240     1.5233560
  C        1.3089830     1.4575300    -0.5206550
  O        0.9205610     2.6110780    -0.6259770
  N        2.0114230    -1.2132080    -0.0980720
  H        1.7272860     0.9908430    -2.6119960
  C        2.0257370    -0.6971710    -1.3643970
  H        2.2975170    -1.3910600    -2.1456450
  C        1.7145120     0.5919380    -1.6124870
  H        2.1294540    -2.2015210     0.0568290
  C        1.6459450    -0.4852060     1.0187180
  O        1.5611160    -0.9718160     2.1298090
--
0 1
  N       -0.5440790    -0.6959650     0.7346250
  H       -0.2189910    -1.2424420     1.5233560
  C       -0.4761610    -1.3137480    -0.5206550
  O       -0.0877400    -2.4672960    -0.6259770
  N       -1.1786010     1.3569900    -0.0980720
  H       -0.8944640    -0.8470610    -2.6119960
  C       -1.1929150     0.8409530    -1.3643970
  H       -1.4646950     1.5348420    -2.1456450
  C       -0.8816910    -0.4481560    -1.6124870
  H       -1.2966330     2.3453030     0.0568290
  C       -0.8131230     0.6289880     1.0187180
  O       -0.7282940     1.1155980     2.1298090
units angstrom
no_reorient
symmetry c1
}

set {
scf_type DF
mp2_type DF
e_convergence 7
reference rhf
}

energy('mp2/aug-cc-pv[tq]z', bsse_type='cp')
--------------------------------------------------------------------------

    Molecular point group: c1
  Charge       = 0
  Multiplicity = 1
  Basis Set: AUG-CC-PVTZ
    Blend: AUG-CC-PVTZ
  Basis Set: (AUG-CC-PVTZ AUX)
    Blend: AUG-CC-PVTZ-JKFIT
  @DF-RHF Final Energy:  -412.62374925575909
    Total Energy =                       -412.6237492557590940
  Basis Set: (AUG-CC-PVTZ AUX)
    Blend: AUG-CC-PVTZ-RI
	 Reference Energy          =    -412.6237492557590940 [Eh]
	 Singles Energy            =      -0.0000000000000000 [Eh]
	 Same-Spin Energy          =      -0.4142089714993116 [Eh]
	 Opposite-Spin Energy      =      -1.2265627611428653 [Eh]
	 Correlation Energy        =      -1.6407717326421769 [Eh]
	 Total Energy              =    -414.2645209884012729 [Eh]
	 SCS Total Energy          =    -414.2336942262969615 [Eh]
    Molecular point group: c1
  Basis Set: AUG-CC-PVQZ
    Blend: AUG-CC-PVQZ
  Basis Set: (AUG-CC-PVQZ AUX)
    Blend: AUG-CC-PVQZ-JKFIT
  @DF-RHF Final Energy:  -412.64926958972734
    Total Energy =                       -412.6492695897273393
  Basis Set: (AUG-CC-PVQZ AUX)
  @DF-RHF Final Energy:  -412.62452342194109
    Total Energy =                       -412.6245234219410918
  @DF-RHF Final Energy:  -412.64944503886909
    Total Energy =                       -412.6494450388690893
  @DF-RHF Final Energy:  -412.62452336204262
    Total Energy =                       -412.6245233620426234
  @DF-RHF Final Energy:  -412.64944497894646
    Total Energy =                       -412.6494449789464625
  @DF-RHF Final Energy:  -412.62374919532277
    Total Energy =                       -412.6237491953227732
  @DF-RHF Final Energy:  -412.64926952073915
    Total Energy =                       -412.6492695207391534
  @DF-RHF Final Energy:  -825.12166993163510
    Total Energy =                       -825.1216699316350969
  @DF-RHF Final Energy:  -825.17166520170861
    Total Energy =                       -825.1716652017084925
*** Psi4 exiting successfully. Buy a developer a beer!
                               Psi4 1.4a2.dev224
  @DF-RHF Final Energy:  -412.62374922228128
    Total Energy =                       -412.6237492222812762
  @DF-RHF Final Energy:  -412.64926955207835
    Total Energy =                       -412.6492695520783514
  @DF-RHF Final Energy:  -412.62435140149091
    Total Energy =                       -412.6243514014909124
  @DF-RHF Final Energy:  -412.64941280700464
    Total Energy =                       -412.6494128070046372
  @DF-RHF Final Energy:  -412.62435137265464
    Total Energy =                       -412.6243513726546439
  @DF-RHF Final Energy:  -412.64941278224831
    Total Energy =                       -412.6494127822483051
  @DF-RHF Final Energy:  -412.62374919311628
    Total Energy =                       -412.6237491931162822
  @DF-RHF Final Energy:  -412.64926952176995
    Total Energy =                       -412.6492695217699520
  @DF-RHF Final Energy:  -825.20409413777725
    Total Energy =                       -825.2040941377772469
  @DF-RHF Final Energy:  -825.25429117370572
    Total Energy =                       -825.2542911737057238
*** Psi4 exiting successfully. Buy a developer a beer!
                               Psi4 1.4a2.dev224
                               Psi4 1.4a2.dev224
                               Psi4 1.4a2.dev224
                               Psi4 1.4a2.dev224
                               Psi4 1.4a2.dev224
                               Psi4 1.4a2.dev224
                               Psi4 1.4a2.dev224
  @DF-RHF Final Energy:  -412.62374881417088
    Total Energy =                       -412.6237488141708809
  @DF-RHF Final Energy:  -412.64926913148520
    Total Energy =                       -412.6492691314851982
  @DF-RHF Final Energy:  -412.62382981255746
    Total Energy =                       -412.6238298125574602
  @DF-RHF Final Energy:  -412.64929538843995
    Total Energy =                       -412.6492953884399526
  @DF-RHF Final Energy:  -412.62382989931274
    Total Energy =                       -412.6238298993127387
  @DF-RHF Final Energy:  -412.64929547590430
    Total Energy =                       -412.6492954759042959
  @DF-RHF Final Energy:  -412.62374890113557
    Total Energy =                       -412.6237489011355706
  @DF-RHF Final Energy:  -412.64926921613335
    Total Energy =                       -412.6492692161333480
  @DF-RHF Final Energy:  -825.25006680419483
    Total Energy =                       -825.2500668041948302
  @DF-RHF Final Energy:  -825.30099714747189
    Total Energy =                       -825.3009971474718895
*** Psi4 exiting successfully. Buy a developer a beer!
                               Psi4 1.4a2.dev224
  @DF-RHF Final Energy:  -412.62374891988867
    Total Energy =                       -412.6237489198886692
  @DF-RHF Final Energy:  -412.64926923885986
    Total Energy =                       -412.6492692388598584
  @DF-RHF Final Energy:  -412.62378242595372
    Total Energy =                       -412.6237824259537206
  @DF-RHF Final Energy:  -412.64928245740663
    Total Energy =                       -412.6492824574066276
  @DF-RHF Final Energy:  -412.62378240727236
    Total Energy =                       -412.6237824072723583
  @DF-RHF Final Energy:  -412.64928243715042
    Total Energy =                       -412.6492824371504184
  @DF-RHF Final Energy:  -412.62374890295359
    Total Energy =                       -412.6237489029535936
  @DF-RHF Final Energy:  -412.64926921622475
    Total Energy =                       -412.6492692162247522
  Multiplicity = 1
  @DF-RHF Final Energy:  -825.24899020693522
    Total Energy =                       -825.2489902069351047
	 Singles Energy            =      -0.0000000000000000 [Eh]
	 Same-Spin Energy          =      -0.8288484725406375 [Eh]
	 Opposite-Spin Energy      =      -2.4538330030164168 [Eh]
	 Correlation Energy        =      -3.2826814755570544 [Eh]
	 Total Energy              =    -828.5316716824922878 [Eh]
	 SCS Total Energy          =    -828.4698726347351112 [Eh]
    Molecular point group: c1

    Geometry (in Angstrom), charge = 0, multiplicity = 1:

       Center              X                  Y                   Z               Mass
    ------------   -----------------  -----------------  -----------------  -----------------
         N            2.635138705550     1.056980000000     0.734449278338    14.003074004430
         H            2.310048705550     1.603450000000     1.523189278338     1.007825032230
         C            2.567218705550     1.674760000000    -0.520820721662    12.000000000000
         O            2.178798705550     2.828310000000    -0.626150721662    15.994914619570
         N            3.269658705550    -0.995980000000    -0.098240721662    14.003074004430
         H            2.985528705550     1.208070000000    -2.612170721662     1.007825032230
         C            3.283978705550    -0.479940000000    -1.364570721662    12.000000000000
         H            3.555758705550    -1.173830000000    -2.145820721662     1.007825032230
         C            2.972748705550     0.809170000000    -1.612660721662    12.000000000000
         H            3.387688705550    -1.984290000000     0.056659278338     1.007825032230
         C            2.904178705550    -0.267980000000     1.018549278338    12.000000000000
         O            2.819358705550    -0.754590000000     2.129639278338    15.994914619570
         N           -2.635141294450    -1.056980000000     0.734449278338    14.003074004430
         H           -2.310051294450    -1.603450000000     1.523189278338     1.007825032230
         C           -2.567221294450    -1.674760000000    -0.520820721662    12.000000000000
         O           -2.178801294450    -2.828310000000    -0.626150721662    15.994914619570
         N           -3.269661294450     0.995980000000    -0.098240721662    14.003074004430
         H           -2.985521294450    -1.208070000000    -2.612170721662     1.007825032230
         C           -3.283971294450     0.479940000000    -1.364570721662    12.000000000000
         H           -3.555761294450     1.173830000000    -2.145820721662     1.007825032230
         C           -2.972751294450    -0.809170000000    -1.612660721662    12.000000000000
         H           -3.387691294450     1.984290000000     0.056659278338     1.007825032230
         C           -2.904181294450     0.267980000000     1.018549278338    12.000000000000
         O           -2.819351294450     0.754590000000     2.129639278338    15.994914619570

  Charge       = 0
  Multiplicity = 1
  Basis Set: AUG-CC-PVQZ
    Blend: AUG-CC-PVQZ
  Basis Set: (AUG-CC-PVQZ AUX)
    Blend: AUG-CC-PVQZ-JKFIT

    Orbital Energies [Eh]
    ---------------------

    Doubly Occupied:

       1A    -20.544377     2A    -20.544377     3A    -20.540397
       4A    -20.540397     5A    -15.642515     6A    -15.642515
       7A    -15.626380     8A    -15.626380     9A    -11.417640
      10A    -11.417640    11A    -11.381290    12A    -11.381290
      13A    -11.340486    14A    -11.340486    15A    -11.254995
      16A    -11.254995    17A     -1.435643    18A     -1.435638
      19A     -1.397307    20A     -1.397307    21A     -1.313747
      22A     -1.313747    23A     -1.246157    24A     -1.246154
      25A     -1.088760    26A     -1.088754    27A     -0.934558
      28A     -0.934557    29A     -0.901423    30A     -0.901422
      31A     -0.807302    32A     -0.807299    33A     -0.765909
      34A     -0.765907    35A     -0.714925    36A     -0.714921
      37A     -0.678053    38A     -0.678045    39A     -0.670327
      40A     -0.669970    41A     -0.652494    42A     -0.652474
      43A     -0.615267    44A     -0.615266    45A     -0.602751
      46A     -0.602744    47A     -0.571874    48A     -0.571676
      49A     -0.526296    50A     -0.526027    51A     -0.484044
      52A     -0.484029    53A     -0.450852    54A     -0.450830
      55A     -0.437861    56A     -0.437856    57A     -0.370169
      58A     -0.369746

  @DF-RHF Final Energy:  -825.29999029391536

   => Energetics <=

    Nuclear Repulsion Energy =            998.7685427045587403
    One-Electron Energy =               -3110.4845318022971696
    Two-Electron Energy =                1286.4159988038227311
    Total Energy =                       -825.2999902939154708

  Dipole Moment: [D]
     X:    -0.0000      Y:    -0.0000      Z:    -5.8012     Total:     5.8012

  Basis Set: (AUG-CC-PVQZ AUX)
    Blend: AUG-CC-PVQZ-RI
	 Reference Energy          =    -825.2999902939153571 [Eh]
	 Singles Energy            =      -0.0000000000000000 [Eh]
	 Same-Spin Energy          =      -0.8789508001286617 [Eh]
	 Opposite-Spin Energy      =      -2.7774098693464193 [Eh]
	 Correlation Energy        =      -3.6563606694750810 [Eh]
	 Total Energy              =    -828.9563509633904914 [Eh]

	 ================> DF-SCS-MP2 Energies <==================
	-----------------------------------------------------------
	 SCS Same-Spin Scale       =       0.3333333333333333 [-]
	 SCS Opposite-Spin Scale   =       1.2000000000000000 [-]
	 SCS Same-Spin Energy      =      -0.2929836000428872 [Eh]
	 SCS Opposite-Spin Energy  =      -3.3328918432157031 [Eh]
	 SCS Correlation Energy    =      -3.6258754432585905 [Eh]
	 SCS Total Energy          =    -828.9258657371739218 [Eh]
	-----------------------------------------------------------

*** Psi4 exiting successfully. Buy a developer a beer!
