                               Psi4 1.4a2.dev224

  ==> Input File <==

--------------------------------------------------------------------------
#Generated by lconvert.py for cbs job

memory 20 GB

molecule  {
0 1
  N       1.376900    0.839750    0.734620
  H       1.051810    1.386220    1.523360
  C       1.308980    1.457530   -0.520650
  O       0.920560    2.611080   -0.625980
  N       2.011420   -1.213210   -0.098070
  H       1.727290    0.990840   -2.612000
  C       2.025740   -0.697170   -1.364400
  H       2.297520   -1.391060   -2.145650
  C       1.714510    0.591940   -1.612490
  H       2.129450   -2.201520    0.056830
  C       1.645940   -0.485210    1.018720
  O       1.561120   -0.971820    2.129810
--
0 1
  N      -3.052400   -1.129020    0.734620
  H      -2.727310   -1.675490    1.523360
  C      -2.984480   -1.746800   -0.520650
  O      -2.596060   -2.900350   -0.625980
  N      -3.686920    0.923940   -0.098070
  H      -3.402790   -1.280110   -2.612000
  C      -3.701240    0.407900   -1.364400
  H      -3.973020    1.101790   -2.145650
  C      -3.390010   -0.881210   -1.612490
  H      -3.804960    1.912250    0.056830
  C      -3.321450    0.195940    1.018720
  O      -3.236620    0.682550    2.129810
units angstrom
no_reorient
symmetry c1
}

set {
scf_type DF
mp2_type DF
e_convergence 7
reference rhf
}

energy('mp2/aug-cc-pv[tq]z', bsse_type='cp')
--------------------------------------------------------------------------

    Molecular point group: c1
  Charge       = 0
  Multiplicity = 1
  Basis Set: AUG-CC-PVTZ
    Blend: AUG-CC-PVTZ
  Basis Set: (AUG-CC-PVTZ AUX)
    Blend: AUG-CC-PVTZ-JKFIT
  @DF-RHF Final Energy:  -412.62374881417088
    Total Energy =                       -412.6237488141708809
  Basis Set: (AUG-CC-PVTZ AUX)
    Blend: AUG-CC-PVTZ-RI
	 Reference Energy          =    -412.6237488141708809 [Eh]
	 Singles Energy            =      -0.0000000000000000 [Eh]
	 Same-Spin Energy          =      -0.4142089902314822 [Eh]
	 Opposite-Spin Energy      =      -1.2265630386306308 [Eh]
	 Correlation Energy        =      -1.6407720288621128 [Eh]
	 Total Energy              =    -414.2645208430329831 [Eh]
	 SCS Total Energy          =    -414.2336941239381076 [Eh]
    Molecular point group: c1
  Basis Set: AUG-CC-PVQZ
    Blend: AUG-CC-PVQZ
  Basis Set: (AUG-CC-PVQZ AUX)
    Blend: AUG-CC-PVQZ-JKFIT
  @DF-RHF Final Energy:  -412.64926913148520
    Total Energy =                       -412.6492691314851982
  Basis Set: (AUG-CC-PVQZ AUX)
  @DF-RHF Final Energy:  -412.62382981255746
    Total Energy =                       -412.6238298125574602
  @DF-RHF Final Energy:  -412.64929538843995
    Total Energy =                       -412.6492953884399526
  @DF-RHF Final Energy:  -412.62382989931274
    Total Energy =                       -412.6238298993127387
  @DF-RHF Final Energy:  -412.64929547590430
    Total Energy =                       -412.6492954759042959
  @DF-RHF Final Energy:  -412.62374890113557
    Total Energy =                       -412.6237489011355706
  @DF-RHF Final Energy:  -412.64926921613335
    Total Energy =                       -412.6492692161333480
  Multiplicity = 1
  @DF-RHF Final Energy:  -825.25006680419483
    Total Energy =                       -825.2500668041948302
	 Singles Energy            =      -0.0000000000000000 [Eh]
	 Same-Spin Energy          =      -0.8294998503524685 [Eh]
	 Opposite-Spin Energy      =      -2.4549618582466328 [Eh]
	 Correlation Energy        =      -3.2844617085991015 [Eh]
	 Total Energy              =    -828.5345285127939405 [Eh]
	 SCS Total Energy          =    -828.4725209842082450 [Eh]
    Molecular point group: c1

    Geometry (in Angstrom), charge = 0, multiplicity = 1:

       Center              X                  Y                   Z               Mass
    ------------   -----------------  -----------------  -----------------  -----------------
         N            2.214650580565     0.984385000000     0.734449278338    14.003074004430
         H            1.889560580565     1.530855000000     1.523189278338     1.007825032230
         C            2.146730580565     1.602165000000    -0.520820721662    12.000000000000
         O            1.758310580565     2.755715000000    -0.626150721662    15.994914619570
         N            2.849170580565    -1.068575000000    -0.098240721662    14.003074004430
         H            2.565040580565     1.135475000000    -2.612170721662     1.007825032230
         C            2.863490580565    -0.552535000000    -1.364570721662    12.000000000000
         H            3.135270580565    -1.246425000000    -2.145820721662     1.007825032230
         C            2.552260580565     0.736575000000    -1.612660721662    12.000000000000
         H            2.967200580565    -2.056885000000     0.056659278338     1.007825032230
         C            2.483690580565    -0.340575000000     1.018549278338    12.000000000000
         O            2.398870580565    -0.827185000000     2.129639278338    15.994914619570
         N           -2.214649419435    -0.984385000000     0.734449278338    14.003074004430
         H           -1.889559419435    -1.530855000000     1.523189278338     1.007825032230
         C           -2.146729419435    -1.602165000000    -0.520820721662    12.000000000000
         O           -1.758309419435    -2.755715000000    -0.626150721662    15.994914619570
         N           -2.849169419435     1.068575000000    -0.098240721662    14.003074004430
         H           -2.565039419435    -1.135475000000    -2.612170721662     1.007825032230
         C           -2.863489419435     0.552535000000    -1.364570721662    12.000000000000
         H           -3.135269419435     1.246425000000    -2.145820721662     1.007825032230
         C           -2.552259419435    -0.736575000000    -1.612660721662    12.000000000000
         H           -2.967209419435     2.056885000000     0.056659278338     1.007825032230
         C           -2.483699419435     0.340575000000     1.018549278338    12.000000000000
         O           -2.398869419435     0.827185000000     2.129639278338    15.994914619570

  Charge       = 0
  Multiplicity = 1
  Basis Set: AUG-CC-PVQZ
    Blend: AUG-CC-PVQZ
  Basis Set: (AUG-CC-PVQZ AUX)
    Blend: AUG-CC-PVQZ-JKFIT

    Orbital Energies [Eh]
    ---------------------

    Doubly Occupied:

       1A    -20.544416     2A    -20.544416     3A    -20.541225
       4A    -20.541225     5A    -15.642349     6A    -15.642348
       7A    -15.626704     8A    -15.626704     9A    -11.417697
      10A    -11.417697    11A    -11.382034    12A    -11.382034
      13A    -11.340749    14A    -11.340749    15A    -11.255106
      16A    -11.255106    17A     -1.435802    18A     -1.435749
      19A     -1.398116    20A     -1.398106    21A     -1.313755
      22A     -1.313755    23A     -1.246435    24A     -1.246410
      25A     -1.088988    26A     -1.088945    27A     -0.934650
      28A     -0.934647    29A     -0.901699    30A     -0.901689
      31A     -0.807339    32A     -0.807324    33A     -0.766142
      34A     -0.766130    35A     -0.714971    36A     -0.714950
      37A     -0.678522    38A     -0.678486    39A     -0.671266
      40A     -0.669415    41A     -0.652677    42A     -0.652583
      43A     -0.615755    44A     -0.615750    45A     -0.603082
      46A     -0.603049    47A     -0.573001    48A     -0.571981
      49A     -0.526711    50A     -0.525502    51A     -0.484211
      52A     -0.484140    53A     -0.451579    54A     -0.451486
      55A     -0.438453    56A     -0.438419    57A     -0.371027
      58A     -0.369367

  @DF-RHF Final Energy:  -825.30099714747189

   => Energetics <=

    Nuclear Repulsion Energy =           1039.3885175269983847
    One-Electron Energy =               -3191.6937447493187392
    Two-Electron Energy =                1327.0042300748484649
    Total Energy =                       -825.3009971474718895

  Dipole Moment: [D]
     X:    -0.0000      Y:     0.0000      Z:    -5.7599     Total:     5.7599

  Basis Set: (AUG-CC-PVQZ AUX)
    Blend: AUG-CC-PVQZ-RI
	 Reference Energy          =    -825.3009971474718895 [Eh]
	 Singles Energy            =      -0.0000000000000000 [Eh]
	 Same-Spin Energy          =      -0.8795518799438324 [Eh]
	 Opposite-Spin Energy      =      -2.7780795852416764 [Eh]
	 Correlation Energy        =      -3.6576314651855091 [Eh]
	 Total Energy              =    -828.9586286126574350 [Eh]

	 ================> DF-SCS-MP2 Energies <==================
	-----------------------------------------------------------
	 SCS Same-Spin Scale       =       0.3333333333333333 [-]
	 SCS Opposite-Spin Scale   =       1.2000000000000000 [-]
	 SCS Same-Spin Energy      =      -0.2931839599812774 [Eh]
	 SCS Opposite-Spin Energy  =      -3.3336955022900114 [Eh]
	 SCS Correlation Energy    =      -3.6268794622712890 [Eh]
	 SCS Total Energy          =    -828.9278766097431799 [Eh]
	-----------------------------------------------------------

*** Psi4 exiting successfully. Buy a developer a beer!
