                               Psi4 1.4a2.dev224

  ==> Input File <==

--------------------------------------------------------------------------
#Generated by lconvert.py for cbs job

memory 40 GB

molecule  {
0 1
  N        1.3769010     0.8397470     0.7346250
  H        1.0518120     1.3862240     1.5233560
  C        1.3089830     1.4575300    -0.5206550
  O        0.9205610     2.6110780    -0.6259770
  N        2.0114230    -1.2132080    -0.0980720
  H        1.7272860     0.9908430    -2.6119960
  C        2.0257370    -0.6971710    -1.3643970
  H        2.2975170    -1.3910600    -2.1456450
  C        1.7145120     0.5919380    -1.6124870
  H        2.1294540    -2.2015210     0.0568290
  C        1.6459450    -0.4852060     1.0187180
  O        1.5611160    -0.9718160     2.1298090
--
0 1
  N       -1.6507720    -0.8870300     0.7346250
  H       -1.3256830    -1.4335060     1.5233560
  C       -1.5828530    -1.5048120    -0.5206550
  O       -1.1944320    -2.6583600    -0.6259770
  N       -2.2852930     1.1659260    -0.0980720
  H       -2.0011560    -1.0381250    -2.6119960
  C       -2.2996070     0.6498890    -1.3643970
  H       -2.5713870     1.3437780    -2.1456450
  C       -1.9883830    -0.6392200    -1.6124870
  H       -2.4033250     2.1542390     0.0568290
  C       -1.9198150     0.4379240     1.0187180
  O       -1.8349860     0.9245340     2.1298090
units angstrom
no_reorient
symmetry c1
}

set {
scf_type DF
mp2_type DF
e_convergence 7
reference rhf
}

energy('mp2/aug-cc-pv[tq]z', bsse_type='cp')
--------------------------------------------------------------------------

    Molecular point group: c1
  Charge       = 0
  Multiplicity = 1
  Basis Set: AUG-CC-PVTZ
    Blend: AUG-CC-PVTZ
  Basis Set: (AUG-CC-PVTZ AUX)
    Blend: AUG-CC-PVTZ-JKFIT
  @DF-RHF Final Energy:  -412.62374924597771
    Total Energy =                       -412.6237492459777059
  Basis Set: (AUG-CC-PVTZ AUX)
    Blend: AUG-CC-PVTZ-RI
	 Reference Energy          =    -412.6237492459777059 [Eh]
	 Singles Energy            =      -0.0000000000000000 [Eh]
	 Same-Spin Energy          =      -0.4142089681197574 [Eh]
	 Opposite-Spin Energy      =      -1.2265627620890589 [Eh]
	 Correlation Energy        =      -1.6407717302088163 [Eh]
	 Total Energy              =    -414.2645209761865317 [Eh]
	 SCS Total Energy          =    -414.2336942165244977 [Eh]
    Molecular point group: c1
  Basis Set: AUG-CC-PVQZ
    Blend: AUG-CC-PVQZ
  Basis Set: (AUG-CC-PVQZ AUX)
    Blend: AUG-CC-PVQZ-JKFIT
  @DF-RHF Final Energy:  -412.64926957509687
    Total Energy =                       -412.6492695750968664
  Basis Set: (AUG-CC-PVQZ AUX)
  @DF-RHF Final Energy:  -412.62404496209138
    Total Energy =                       -412.6240449620913751
  @DF-RHF Final Energy:  -412.64934991388191
    Total Energy =                       -412.6493499138819061
  @DF-RHF Final Energy:  -412.62404490848627
    Total Energy =                       -412.6240449084862689
  @DF-RHF Final Energy:  -412.64934986047257
    Total Energy =                       -412.6493498604725687
  @DF-RHF Final Energy:  -412.62374919329716
    Total Energy =                       -412.6237491932971579
  @DF-RHF Final Energy:  -412.64926952305063
    Total Energy =                       -412.6492695230506342
  Multiplicity = 1
  @DF-RHF Final Energy:  -825.25174290913287
    Total Energy =                       -825.2517429091328722
	 Singles Energy            =      -0.0000000000000000 [Eh]
	 Same-Spin Energy          =      -0.8350317556228474 [Eh]
	 Opposite-Spin Energy      =      -2.4634098516047800 [Eh]
	 Correlation Energy        =      -3.2984416072276272 [Eh]
	 Total Energy              =    -828.5501845163604457 [Eh]
	 SCS Total Energy          =    -828.4861786495995375 [Eh]
    Molecular point group: c1

    Geometry (in Angstrom), charge = 0, multiplicity = 1:

       Center              X                  Y                   Z               Mass
    ------------   -----------------  -----------------  -----------------  -----------------
         N            1.513836196442     0.863388062499     0.734453688925    14.003074004430
         H            1.188747196442     1.409865062499     1.523184688925     1.007825032230
         C            1.445918196442     1.481171062499    -0.520826311075    12.000000000000
         O            1.057496196442     2.634719062499    -0.626148311075    15.994914619570
         N            2.148358196442    -1.189566937501    -0.098243311075    14.003074004430
         H            1.864221196442     1.014484062499    -2.612167311075     1.007825032230
         C            2.162672196442    -0.673529937501    -1.364568311075    12.000000000000
         H            2.434452196442    -1.367418937501    -2.145816311075     1.007825032230
         C            1.851447196442     0.615579062499    -1.612658311075    12.000000000000
         H            2.266389196442    -2.177879937501     0.056657688925     1.007825032230
         C            1.782880196442    -0.461564937501     1.018546688925    12.000000000000
         O            1.698051196442    -0.948174937501     2.129637688925    15.994914619570
         N           -1.513836803558    -0.863388937501     0.734453688925    14.003074004430
         H           -1.188747803558    -1.409864937501     1.523184688925     1.007825032230
         C           -1.445917803558    -1.481170937501    -0.520826311075    12.000000000000
         O           -1.057496803558    -2.634718937501    -0.626148311075    15.994914619570
         N           -2.148357803558     1.189567062499    -0.098243311075    14.003074004430
         H           -1.864220803558    -1.014483937501    -2.612167311075     1.007825032230
         C           -2.162671803558     0.673530062499    -1.364568311075    12.000000000000
         H           -2.434451803558     1.367419062499    -2.145816311075     1.007825032230
         C           -1.851447803558    -0.615578937501    -1.612658311075    12.000000000000
         H           -2.266389803558     2.177880062499     0.056657688925     1.007825032230
         C           -1.782879803558     0.461565062499     1.018546688925    12.000000000000
         O           -1.698050803558     0.948175062499     2.129637688925    15.994914619570

  Charge       = 0
  Multiplicity = 1
  Basis Set: AUG-CC-PVQZ
    Blend: AUG-CC-PVQZ
  Basis Set: (AUG-CC-PVQZ AUX)
    Blend: AUG-CC-PVQZ-JKFIT

    Orbital Energies [Eh]
    ---------------------

    Doubly Occupied:

       1A    -20.545247     2A    -20.545246     3A    -20.544069
       4A    -20.544069     5A    -15.641308     6A    -15.641308
       7A    -15.627502     8A    -15.627501     9A    -11.418352
      10A    -11.418352    11A    -11.384513    12A    -11.384513
      13A    -11.340929    14A    -11.340929    15A    -11.255147
      16A    -11.255146    17A     -1.438087    18A     -1.435891
      19A     -1.401426    20A     -1.400981    21A     -1.313931
      22A     -1.313914    23A     -1.247938    24A     -1.246971
      25A     -1.090187    26A     -1.088804    27A     -0.934918
      28A     -0.934699    29A     -0.902925    30A     -0.902548
      31A     -0.807400    32A     -0.807050    33A     -0.767092
      34A     -0.766638    35A     -0.714999    36A     -0.714911
      37A     -0.684169    38A     -0.680556    39A     -0.680045
      40A     -0.660037    41A     -0.654102    42A     -0.652778
      43A     -0.617288    44A     -0.617265    45A     -0.604264
      46A     -0.603857    47A     -0.582374    48A     -0.569355
      49A     -0.531844    50A     -0.520052    51A     -0.485776
      52A     -0.484799    53A     -0.454585    54A     -0.453710
      55A     -0.441585    56A     -0.440580    57A     -0.378609
      58A     -0.363284

  @DF-RHF Final Energy:  -825.30235266450336

   => Energetics <=

    Nuclear Repulsion Energy =           1136.3527298963151679
    One-Electron Energy =               -3385.4974213863970363
    Two-Electron Energy =                1423.8423388255782811
    Total Energy =                       -825.3023526645033598

  Dipole Moment: [D]
     X:     0.0000      Y:     0.0000      Z:    -5.6940     Total:     5.6940

  Basis Set: (AUG-CC-PVQZ AUX)
    Blend: AUG-CC-PVQZ-RI
	 Reference Energy          =    -825.3023526645033598 [Eh]
	 Singles Energy            =      -0.0000000000000000 [Eh]
	 Same-Spin Energy          =      -0.8849074217621509 [Eh]
	 Opposite-Spin Energy      =      -2.7842298562177055 [Eh]
	 Correlation Energy        =      -3.6691372779798561 [Eh]
	 Total Energy              =    -828.9714899424832311 [Eh]

	 ================> DF-SCS-MP2 Energies <==================
	-----------------------------------------------------------
	 SCS Same-Spin Scale       =       0.3333333333333333 [-]
	 SCS Opposite-Spin Scale   =       1.2000000000000000 [-]
	 SCS Same-Spin Energy      =      -0.2949691405873836 [Eh]
	 SCS Opposite-Spin Energy  =      -3.3410758274612467 [Eh]
	 SCS Correlation Energy    =      -3.6360449680486302 [Eh]
	 SCS Total Energy          =    -828.9383976325519825 [Eh]
	-----------------------------------------------------------

*** Psi4 exiting successfully. Buy a developer a beer!
