                               Psi4 1.4a2.dev224

  ==> Input File <==

--------------------------------------------------------------------------
#Generated by lconvert.py for cbs job

memory 20 GB

molecule  {
0 1
  N       1.376900    0.839750    0.734620
  H       1.051810    1.386220    1.523360
  C       1.308980    1.457530   -0.520650
  O       0.920560    2.611080   -0.625980
  N       2.011420   -1.213210   -0.098070
  H       1.727290    0.990840   -2.612000
  C       2.025740   -0.697170   -1.364400
  H       2.297520   -1.391060   -2.145650
  C       1.714510    0.591940   -1.612490
  H       2.129450   -2.201520    0.056830
  C       1.645940   -0.485210    1.018720
  O       1.561120   -0.971820    2.129810
--
0 1
  N      -2.211420   -0.983820    0.734620
  H      -1.886340   -1.530300    1.523360
  C      -2.143510   -1.601610   -0.520650
  O      -1.755080   -2.755150   -0.625980
  N      -2.845940    1.069130   -0.098070
  H      -2.561810   -1.134920   -2.612000
  C      -2.860260    0.553100   -1.364400
  H      -3.132040    1.246980   -2.145650
  C      -2.549030   -0.736010   -1.612490
  H      -2.963980    2.057440    0.056830
  C      -2.480470    0.341130    1.018720
  O      -2.395640    0.827740    2.129810
units angstrom
no_reorient
symmetry c1
}

set {
scf_type DF
mp2_type DF
e_convergence 7
reference rhf
}

energy('mp2/aug-cc-pv[tq]z', bsse_type='cp')
--------------------------------------------------------------------------

    Molecular point group: c1
  Charge       = 0
  Multiplicity = 1
  Basis Set: AUG-CC-PVTZ
    Blend: AUG-CC-PVTZ
  Basis Set: (AUG-CC-PVTZ AUX)
    Blend: AUG-CC-PVTZ-JKFIT
  @DF-RHF Final Energy:  -412.62374954692018
    Total Energy =                       -412.6237495469201804
  Basis Set: (AUG-CC-PVTZ AUX)
    Blend: AUG-CC-PVTZ-RI
	 Reference Energy          =    -412.6237495469201804 [Eh]
	 Singles Energy            =      -0.0000000000000000 [Eh]
	 Same-Spin Energy          =      -0.4142088755626993 [Eh]
	 Opposite-Spin Energy      =      -1.2265625925282724 [Eh]
	 Correlation Energy        =      -1.6407714680909717 [Eh]
	 Total Energy              =    -414.2645210150111552 [Eh]
	 SCS Total Energy          =    -414.2336942831416877 [Eh]
    Molecular point group: c1
  Basis Set: AUG-CC-PVQZ
    Blend: AUG-CC-PVQZ
  Basis Set: (AUG-CC-PVQZ AUX)
    Blend: AUG-CC-PVQZ-JKFIT
  @DF-RHF Final Energy:  -412.64926990435401
    Total Energy =                       -412.6492699043540142
  Basis Set: (AUG-CC-PVQZ AUX)
  @DF-RHF Final Energy:  -412.62392859650794
    Total Energy =                       -412.6239285965079375
  @DF-RHF Final Energy:  -412.64932214960908
    Total Energy =                       -412.6493221496090769
  @DF-RHF Final Energy:  -412.62392794945049
    Total Energy =                       -412.6239279494504899
  @DF-RHF Final Energy:  -412.64932146854267
    Total Energy =                       -412.6493214685426665
  @DF-RHF Final Energy:  -412.62374889773952
    Total Energy =                       -412.6237488977395174
  @DF-RHF Final Energy:  -412.64926921901588
    Total Energy =                       -412.6492692190158778
  Multiplicity = 1
  @DF-RHF Final Energy:  -825.25189437384154
    Total Energy =                       -825.2518943738416510
	 Singles Energy            =      -0.0000000000000000 [Eh]
	 Same-Spin Energy          =      -0.8314725398596319 [Eh]
	 Opposite-Spin Energy      =      -2.4581963791873220 [Eh]
	 Correlation Energy        =      -3.2896689190469539 [Eh]
	 Total Energy              =    -828.5415632928884406 [Eh]
	 SCS Total Energy          =    -828.4788875421528473 [Eh]
    Molecular point group: c1

    Geometry (in Angstrom), charge = 0, multiplicity = 1:

       Center              X                  Y                   Z               Mass
    ------------   -----------------  -----------------  -----------------  -----------------
         N            1.794161161130     0.911787589962     0.734449278338    14.003074004430
         H            1.469071161130     1.458257589962     1.523189278338     1.007825032230
         C            1.726241161130     1.529567589962    -0.520820721662    12.000000000000
         O            1.337821161130     2.683117589962    -0.626150721662    15.994914619570
         N            2.428681161130    -1.141172410038    -0.098240721662    14.003074004430
         H            2.144551161130     1.062877589962    -2.612170721662     1.007825032230
         C            2.443001161130    -0.625132410038    -1.364570721662    12.000000000000
         H            2.714781161130    -1.319022410038    -2.145820721662     1.007825032230
         C            2.131771161130     0.663977589962    -1.612660721662    12.000000000000
         H            2.546711161130    -2.129482410038     0.056659278338     1.007825032230
         C            2.063201161130    -0.413172410038     1.018549278338    12.000000000000
         O            1.978381161130    -0.899782410038     2.129639278338    15.994914619570
         N           -1.794158838870    -0.911782410038     0.734449278338    14.003074004430
         H           -1.469078838870    -1.458262410038     1.523189278338     1.007825032230
         C           -1.726248838870    -1.529572410038    -0.520820721662    12.000000000000
         O           -1.337818838870    -2.683112410038    -0.626150721662    15.994914619570
         N           -2.428678838870     1.141167589962    -0.098240721662    14.003074004430
         H           -2.144548838870    -1.062882410038    -2.612170721662     1.007825032230
         C           -2.442998838870     0.625137589962    -1.364570721662    12.000000000000
         H           -2.714778838870     1.319017589962    -2.145820721662     1.007825032230
         C           -2.131768838870    -0.663972410038    -1.612660721662    12.000000000000
         H           -2.546718838870     2.129477589962     0.056659278338     1.007825032230
         C           -2.063208838870     0.413167589962     1.018549278338    12.000000000000
         O           -1.978378838870     0.899777589962     2.129639278338    15.994914619570

  Charge       = 0
  Multiplicity = 1
  Basis Set: AUG-CC-PVQZ
    Blend: AUG-CC-PVQZ
  Basis Set: (AUG-CC-PVQZ AUX)
    Blend: AUG-CC-PVQZ-JKFIT

    Orbital Energies [Eh]
    ---------------------

    Doubly Occupied:

       1A    -20.544766     2A    -20.544765     3A    -20.542657
       4A    -20.542655     5A    -15.641987     6A    -15.641987
       7A    -15.627276     8A    -15.627275     9A    -11.417991
      10A    -11.417990    11A    -11.383296    12A    -11.383295
      13A    -11.341027    14A    -11.341026    15A    -11.255198
      16A    -11.255197    17A     -1.436504    18A     -1.436000
      19A     -1.399619    20A     -1.399522    21A     -1.313837
      22A     -1.313835    23A     -1.247048    24A     -1.246818
      25A     -1.089440    26A     -1.089092    27A     -0.934778
      28A     -0.934759    29A     -0.902263    30A     -0.902170
      31A     -0.807376    32A     -0.807279    33A     -0.766579
      34A     -0.766473    35A     -0.715019    36A     -0.714947
      37A     -0.679481    38A     -0.679286    39A     -0.675392
      40A     -0.666426    41A     -0.653258    42A     -0.652840
      43A     -0.616550    44A     -0.616548    45A     -0.603652
      46A     -0.603494    47A     -0.576355    48A     -0.571424
      49A     -0.528620    50A     -0.523583    51A     -0.484812
      52A     -0.484476    53A     -0.452973    54A     -0.452600
      55A     -0.439772    56A     -0.439518    57A     -0.373771
      58A     -0.367381

  @DF-RHF Final Energy:  -825.30267642381773

   => Energetics <=

    Nuclear Repulsion Energy =           1092.0252881988178615
    One-Electron Energy =               -3296.9079763175805056
    Two-Electron Energy =                1379.5800116949446874
    Total Energy =                       -825.3026764238177293

  Dipole Moment: [D]
     X:    -0.0001      Y:    -0.0001      Z:    -5.7152     Total:     5.7152

  Basis Set: (AUG-CC-PVQZ AUX)
    Blend: AUG-CC-PVQZ-RI
	 Reference Energy          =    -825.3026764238177293 [Eh]
	 Singles Energy            =      -0.0000000000000000 [Eh]
	 Same-Spin Energy          =      -0.8814343983849524 [Eh]
	 Opposite-Spin Energy      =      -2.7802009465594884 [Eh]
	 Correlation Energy        =      -3.6616353449444405 [Eh]
	 Total Energy              =    -828.9643117687621725 [Eh]

	 ================> DF-SCS-MP2 Energies <==================
	-----------------------------------------------------------
	 SCS Same-Spin Scale       =       0.3333333333333333 [-]
	 SCS Opposite-Spin Scale   =       1.2000000000000000 [-]
	 SCS Same-Spin Energy      =      -0.2938114661283174 [Eh]
	 SCS Opposite-Spin Energy  =      -3.3362411358713859 [Eh]
	 SCS Correlation Energy    =      -3.6300526019997035 [Eh]
	 SCS Total Energy          =    -828.9327290258174799 [Eh]
	-----------------------------------------------------------

*** Psi4 exiting successfully. Buy a developer a beer!
