                               Psi4 1.4a2.dev224

  ==> Input File <==

--------------------------------------------------------------------------
#Generated by lconvert.py for cbs job

memory 40 GB

molecule  {
0 1
  N        1.3769010     0.8397470     0.7346250
  H        1.0518120     1.3862240     1.5233560
  C        1.3089830     1.4575300    -0.5206550
  O        0.9205610     2.6110780    -0.6259770
  N        2.0114230    -1.2132080    -0.0980720
  H        1.7272860     0.9908430    -2.6119960
  C        2.0257370    -0.6971710    -1.3643970
  H        2.2975170    -1.3910600    -2.1456450
  C        1.7145120     0.5919380    -1.6124870
  H        2.1294540    -2.2015210     0.0568290
  C        1.6459450    -0.4852060     1.0187180
  O        1.5611160    -0.9718160     2.1298090
--
0 1
  N       -1.2395950    -0.8160420     0.7346250
  H       -0.9145070    -1.3625190     1.5233560
  C       -1.1716770    -1.4338250    -0.5206550
  O       -0.7832560    -2.5873730    -0.6259770
  N       -1.8741170     1.2369130    -0.0980720
  H       -1.5899800    -0.9671380    -2.6119960
  C       -1.8884310     0.7208760    -1.3643970
  H       -2.1602110     1.4147650    -2.1456450
  C       -1.5772070    -0.5682330    -1.6124870
  H       -1.9921480     2.2252260     0.0568290
  C       -1.5086390     0.5089110     1.0187180
  O       -1.4238100     0.9955210     2.1298090
units angstrom
no_reorient
symmetry c1
}

set {
scf_type DF
mp2_type DF
e_convergence 7
reference rhf
}

energy('mp2/aug-cc-pv[tq]z', bsse_type='cp')
--------------------------------------------------------------------------

    Molecular point group: c1
  Charge       = 0
  Multiplicity = 1
  Basis Set: AUG-CC-PVTZ
    Blend: AUG-CC-PVTZ
  Basis Set: (AUG-CC-PVTZ AUX)
    Blend: AUG-CC-PVTZ-JKFIT
  @DF-RHF Final Energy:  -412.62374925407880
    Total Energy =                       -412.6237492540788026
  Basis Set: (AUG-CC-PVTZ AUX)
    Blend: AUG-CC-PVTZ-RI
	 Reference Energy          =    -412.6237492540788026 [Eh]
	 Singles Energy            =      -0.0000000000000000 [Eh]
	 Same-Spin Energy          =      -0.4142089705880585 [Eh]
	 Opposite-Spin Energy      =      -1.2265627593157187 [Eh]
	 Correlation Energy        =      -1.6407717299037772 [Eh]
	 Total Energy              =    -414.2645209839826066 [Eh]
	 SCS Total Energy          =    -414.2336942221203344 [Eh]
    Molecular point group: c1
  Basis Set: AUG-CC-PVQZ
    Blend: AUG-CC-PVQZ
  Basis Set: (AUG-CC-PVQZ AUX)
    Blend: AUG-CC-PVQZ-JKFIT
  @DF-RHF Final Energy:  -412.64926958539121
    Total Energy =                       -412.6492695853912096
  Basis Set: (AUG-CC-PVQZ AUX)
  @DF-RHF Final Energy:  -412.62417048591084
    Total Energy =                       -412.6241704859108381
  @DF-RHF Final Energy:  -412.64937730903523
    Total Energy =                       -412.6493773090352306
  @DF-RHF Final Energy:  -412.62417042384476
    Total Energy =                       -412.6241704238447596
  @DF-RHF Final Energy:  -412.64937724856850
    Total Energy =                       -412.6493772485684985
  @DF-RHF Final Energy:  -412.62374919428038
    Total Energy =                       -412.6237491942803786
  @DF-RHF Final Energy:  -412.64926952418375
    Total Energy =                       -412.6492695241837509
  Multiplicity = 1
  @DF-RHF Final Energy:  -825.24386821441874
    Total Energy =                       -825.2438682144188533
	 Singles Energy            =      -0.0000000000000000 [Eh]
	 Same-Spin Energy          =      -0.8405338824128639 [Eh]
	 Opposite-Spin Energy      =      -2.4711710005035399 [Eh]
	 Correlation Energy        =      -3.3117048829164037 [Eh]
	 Total Energy              =    -828.5555730973351274 [Eh]
	 SCS Total Energy          =    -828.4894513758272296 [Eh]
    Molecular point group: c1

    Geometry (in Angstrom), charge = 0, multiplicity = 1:

       Center              X                  Y                   Z               Mass
    ------------   -----------------  -----------------  -----------------  -----------------
         N            1.308248129445     0.827894500000     0.734453688925    14.003074004430
         H            0.983159129445     1.374371500000     1.523184688925     1.007825032230
         C            1.240330129445     1.445677500000    -0.520826311075    12.000000000000
         O            0.851908129445     2.599225500000    -0.626148311075    15.994914619570
         N            1.942770129445    -1.225060500000    -0.098243311075    14.003074004430
         H            1.658633129445     0.978990500000    -2.612167311075     1.007825032230
         C            1.957084129445    -0.709023500000    -1.364568311075    12.000000000000
         H            2.228864129445    -1.402912500000    -2.145816311075     1.007825032230
         C            1.645859129445     0.580085500000    -1.612658311075    12.000000000000
         H            2.060801129445    -2.213373500000     0.056657688925     1.007825032230
         C            1.577292129445    -0.497058500000     1.018546688925    12.000000000000
         O            1.492463129445    -0.983668500000     2.129637688925    15.994914619570
         N           -1.308247870555    -0.827894500000     0.734453688925    14.003074004430
         H           -0.983159870555    -1.374371500000     1.523184688925     1.007825032230
         C           -1.240329870555    -1.445677500000    -0.520826311075    12.000000000000
         O           -0.851908870555    -2.599225500000    -0.626148311075    15.994914619570
         N           -1.942769870555     1.225060500000    -0.098243311075    14.003074004430
         H           -1.658632870555    -0.978990500000    -2.612167311075     1.007825032230
         C           -1.957083870555     0.709023500000    -1.364568311075    12.000000000000
         H           -2.228863870555     1.402912500000    -2.145816311075     1.007825032230
         C           -1.645859870555    -0.580085500000    -1.612658311075    12.000000000000
         H           -2.060800870555     2.213373500000     0.056657688925     1.007825032230
         C           -1.577291870555     0.497058500000     1.018546688925    12.000000000000
         O           -1.492462870555     0.983668500000     2.129637688925    15.994914619570

  Charge       = 0
  Multiplicity = 1
  Basis Set: AUG-CC-PVQZ
    Blend: AUG-CC-PVQZ
  Basis Set: (AUG-CC-PVQZ AUX)
    Blend: AUG-CC-PVQZ-JKFIT

    Orbital Energies [Eh]
    ---------------------

    Doubly Occupied:

       1A    -20.545561     2A    -20.545561     3A    -20.545256
       4A    -20.545256     5A    -15.640135     6A    -15.640135
       7A    -15.626770     8A    -15.626766     9A    -11.418740
      10A    -11.418739    11A    -11.385610    12A    -11.385610
      13A    -11.340283    14A    -11.340282    15A    -11.255093
      16A    -11.255091    17A     -1.441310    18A     -1.434991
      19A     -1.403748    20A     -1.402432    21A     -1.314122
      22A     -1.314066    23A     -1.249436    24A     -1.246735
      25A     -1.091699    26A     -1.087921    27A     -0.935388
      28A     -0.934471    29A     -0.903802    30A     -0.902799
      31A     -0.807697    32A     -0.806762    33A     -0.767871
      34A     -0.766537    35A     -0.715288    36A     -0.715217
      37A     -0.697235    38A     -0.682295    39A     -0.680627
      40A     -0.655196    41A     -0.655070    42A     -0.647703
      43A     -0.617907    44A     -0.617865    45A     -0.605042
      46A     -0.604281    47A     -0.591041    48A     -0.567748
      49A     -0.533955    50A     -0.515441    51A     -0.487151
      52A     -0.484893    53A     -0.456337    54A     -0.454783
      55A     -0.443867    56A     -0.440865    57A     -0.385669
      58A     -0.357145

  @DF-RHF Final Energy:  -825.29430413768853

   => Energetics <=

    Nuclear Repulsion Energy =           1175.0608001247587708
    One-Electron Energy =               -3462.8315778038322605
    Two-Electron Energy =                1462.4764735413848484
    Total Energy =                       -825.2943041376886413

  Dipole Moment: [D]
     X:     0.0000      Y:    -0.0000      Z:    -5.6974     Total:     5.6974

  Basis Set: (AUG-CC-PVQZ AUX)
    Blend: AUG-CC-PVQZ-RI
	 Reference Energy          =    -825.2943041376885276 [Eh]
	 Singles Energy            =      -0.0000000000000000 [Eh]
	 Same-Spin Energy          =      -0.8903229782084374 [Eh]
	 Opposite-Spin Energy      =      -2.7905757598274459 [Eh]
	 Correlation Energy        =      -3.6808987380358831 [Eh]
	 Total Energy              =    -828.9752028757244489 [Eh]

	 ================> DF-SCS-MP2 Energies <==================
	-----------------------------------------------------------
	 SCS Same-Spin Scale       =       0.3333333333333333 [-]
	 SCS Opposite-Spin Scale   =       1.2000000000000000 [-]
	 SCS Same-Spin Energy      =      -0.2967743260694791 [Eh]
	 SCS Opposite-Spin Energy  =      -3.3486909117929349 [Eh]
	 SCS Correlation Energy    =      -3.6454652378624139 [Eh]
	 SCS Total Energy          =    -828.9397693755508953 [Eh]
	-----------------------------------------------------------

*** Psi4 exiting successfully. Buy a developer a beer!
