                               Psi4 1.4a2.dev224

  ==> Input File <==

--------------------------------------------------------------------------
#Generated by lconvert.py for cbs job

memory 40 GB

molecule  {
0 1
  N        1.3769010     0.8397470     0.7346250
  H        1.0518120     1.3862240     1.5233560
  C        1.3089830     1.4575300    -0.5206550
  O        0.9205610     2.6110780    -0.6259770
  N        2.0114230    -1.2132080    -0.0980720
  H        1.7272860     0.9908430    -2.6119960
  C        2.0257370    -0.6971710    -1.3643970
  H        2.2975170    -1.3910600    -2.1456450
  C        1.7145120     0.5919380    -1.6124870
  H        2.1294540    -2.2015210     0.0568290
  C        1.6459450    -0.4852060     1.0187180
  O        1.5611160    -0.9718160     2.1298090
--
0 1
  N       -0.5440790    -0.6959650     0.7346250
  H       -0.2189910    -1.2424420     1.5233560
  C       -0.4761610    -1.3137480    -0.5206550
  O       -0.0877400    -2.4672960    -0.6259770
  N       -1.1786010     1.3569900    -0.0980720
  H       -0.8944640    -0.8470610    -2.6119960
  C       -1.1929150     0.8409530    -1.3643970
  H       -1.4646950     1.5348420    -2.1456450
  C       -0.8816910    -0.4481560    -1.6124870
  H       -1.2966330     2.3453030     0.0568290
  C       -0.8131230     0.6289880     1.0187180
  O       -0.7282940     1.1155980     2.1298090
units angstrom
no_reorient
symmetry c1
}

set {
scf_type DF
mp2_type DF
e_convergence 7
reference rhf
}

energy('mp2/aug-cc-pv[tq]z', bsse_type='cp')
--------------------------------------------------------------------------

    Molecular point group: c1
  Charge       = 0
  Multiplicity = 1
  Basis Set: AUG-CC-PVTZ
    Blend: AUG-CC-PVTZ
  Basis Set: (AUG-CC-PVTZ AUX)
    Blend: AUG-CC-PVTZ-JKFIT
  @DF-RHF Final Energy:  -412.62374925575909
    Total Energy =                       -412.6237492557590940
  Basis Set: (AUG-CC-PVTZ AUX)
    Blend: AUG-CC-PVTZ-RI
	 Reference Energy          =    -412.6237492557590940 [Eh]
	 Singles Energy            =      -0.0000000000000000 [Eh]
	 Same-Spin Energy          =      -0.4142089714993116 [Eh]
	 Opposite-Spin Energy      =      -1.2265627611428653 [Eh]
	 Correlation Energy        =      -1.6407717326421769 [Eh]
	 Total Energy              =    -414.2645209884012729 [Eh]
	 SCS Total Energy          =    -414.2336942262969615 [Eh]
    Molecular point group: c1
  Basis Set: AUG-CC-PVQZ
    Blend: AUG-CC-PVQZ
  Basis Set: (AUG-CC-PVQZ AUX)
    Blend: AUG-CC-PVQZ-JKFIT
  @DF-RHF Final Energy:  -412.64926958972734
    Total Energy =                       -412.6492695897273393
  Basis Set: (AUG-CC-PVQZ AUX)
  @DF-RHF Final Energy:  -412.62452342194109
    Total Energy =                       -412.6245234219410918
  @DF-RHF Final Energy:  -412.64944503886909
    Total Energy =                       -412.6494450388690893
  @DF-RHF Final Energy:  -412.62452336204262
    Total Energy =                       -412.6245233620426234
  @DF-RHF Final Energy:  -412.64944497894646
    Total Energy =                       -412.6494449789464625
  @DF-RHF Final Energy:  -412.62374919532277
    Total Energy =                       -412.6237491953227732
  @DF-RHF Final Energy:  -412.64926952073915
    Total Energy =                       -412.6492695207391534
  Multiplicity = 1
  @DF-RHF Final Energy:  -825.12166993163510
    Total Energy =                       -825.1216699316350969
	 Singles Energy            =      -0.0000000000000000 [Eh]
	 Same-Spin Energy          =      -0.8639475589356505 [Eh]
	 Opposite-Spin Energy      =      -2.5037576141626978 [Eh]
	 Correlation Energy        =      -3.3677051730983480 [Eh]
	 Total Energy              =    -828.4893751047334263 [Eh]
	 SCS Total Energy          =    -828.4141615882755332 [Eh]
    Molecular point group: c1

    Geometry (in Angstrom), charge = 0, multiplicity = 1:

       Center              X                  Y                   Z               Mass
    ------------   -----------------  -----------------  -----------------  -----------------
         N            0.960490133943     0.767856000000     0.734453688925    14.003074004430
         H            0.635401133943     1.314333000000     1.523184688925     1.007825032230
         C            0.892572133943     1.385639000000    -0.520826311075    12.000000000000
         O            0.504150133943     2.539187000000    -0.626148311075    15.994914619570
         N            1.595012133943    -1.285099000000    -0.098243311075    14.003074004430
         H            1.310875133943     0.918952000000    -2.612167311075     1.007825032230
         C            1.609326133943    -0.769062000000    -1.364568311075    12.000000000000
         H            1.881106133943    -1.462951000000    -2.145816311075     1.007825032230
         C            1.298101133943     0.520047000000    -1.612658311075    12.000000000000
         H            1.713043133943    -2.273412000000     0.056657688925     1.007825032230
         C            1.229534133943    -0.557097000000     1.018546688925    12.000000000000
         O            1.144705133943    -1.043707000000     2.129637688925    15.994914619570
         N           -0.960489866057    -0.767856000000     0.734453688925    14.003074004430
         H           -0.635401866057    -1.314333000000     1.523184688925     1.007825032230
         C           -0.892571866057    -1.385639000000    -0.520826311075    12.000000000000
         O           -0.504150866057    -2.539187000000    -0.626148311075    15.994914619570
         N           -1.595011866057     1.285099000000    -0.098243311075    14.003074004430
         H           -1.310874866057    -0.918952000000    -2.612167311075     1.007825032230
         C           -1.609325866057     0.769062000000    -1.364568311075    12.000000000000
         H           -1.881105866057     1.462951000000    -2.145816311075     1.007825032230
         C           -1.298101866057    -0.520047000000    -1.612658311075    12.000000000000
         H           -1.713043866057     2.273412000000     0.056657688925     1.007825032230
         C           -1.229533866057     0.557097000000     1.018546688925    12.000000000000
         O           -1.144704866057     1.043707000000     2.129637688925    15.994914619570

  Charge       = 0
  Multiplicity = 1
  Basis Set: AUG-CC-PVQZ
    Blend: AUG-CC-PVQZ
  Basis Set: (AUG-CC-PVQZ AUX)
    Blend: AUG-CC-PVQZ-JKFIT

    Orbital Energies [Eh]
    ---------------------

    Doubly Occupied:

       1A    -20.547001     2A    -20.547001     3A    -20.543161
       4A    -20.543160     5A    -15.634566     6A    -15.634566
       7A    -15.618038     8A    -15.618020     9A    -11.422861
      10A    -11.422860    11A    -11.389515    12A    -11.389514
      13A    -11.336014    14A    -11.336011    15A    -11.257372
      16A    -11.257368    17A     -1.465079    18A     -1.430238
      19A     -1.415202    20A     -1.408486    21A     -1.316896
      22A     -1.316665    23A     -1.259781    24A     -1.245938
      25A     -1.103871    26A     -1.083477    27A     -0.943311
      28A     -0.935242    29A     -0.909894    30A     -0.905334
      31A     -0.814536    32A     -0.809036    33A     -0.773877
      34A     -0.765750    35A     -0.745893    36A     -0.723058
      37A     -0.714683    38A     -0.692043    39A     -0.681956
      40A     -0.660171    41A     -0.656027    42A     -0.639474
      43A     -0.621705    44A     -0.619720    45A     -0.610182
      46A     -0.609065    47A     -0.588573    48A     -0.583870
      49A     -0.511660    50A     -0.505927    51A     -0.492430
      52A     -0.482743    53A     -0.461813    54A     -0.457992
      55A     -0.449906    56A     -0.428699    57A     -0.410791
      58A     -0.335042

  @DF-RHF Final Energy:  -825.17166520170861

   => Energetics <=

    Nuclear Repulsion Energy =           1256.3172505357745194
    One-Electron Energy =               -3624.8116770472838652
    Two-Electron Energy =                1543.3227613098006259
    Total Energy =                       -825.1716652017084925

  Dipole Moment: [D]
     X:     0.0000      Y:    -0.0000      Z:    -5.8595     Total:     5.8595

  Basis Set: (AUG-CC-PVQZ AUX)
    Blend: AUG-CC-PVQZ-RI
	 Reference Energy          =    -825.1716652017086062 [Eh]
	 Singles Energy            =      -0.0000000000000000 [Eh]
	 Same-Spin Energy          =      -0.9136843943570310 [Eh]
	 Opposite-Spin Energy      =      -2.8181708030857435 [Eh]
	 Correlation Energy        =      -3.7318551974427745 [Eh]
	 Total Energy              =    -828.9035203991513754 [Eh]

	 ================> DF-SCS-MP2 Energies <==================
	-----------------------------------------------------------
	 SCS Same-Spin Scale       =       0.3333333333333333 [-]
	 SCS Opposite-Spin Scale   =       1.2000000000000000 [-]
	 SCS Same-Spin Energy      =      -0.3045614647856770 [Eh]
	 SCS Opposite-Spin Energy  =      -3.3818049637028920 [Eh]
	 SCS Correlation Energy    =      -3.6863664284885691 [Eh]
	 SCS Total Energy          =    -828.8580316301971607 [Eh]
	-----------------------------------------------------------

*** Psi4 exiting successfully. Buy a developer a beer!
