                               Psi4 1.4a2.dev224

  ==> Input File <==

--------------------------------------------------------------------------
#Generated by lconvert.py for cbs job

memory 40 GB

molecule  {
0 1
  N        1.3769010     0.8397470     0.7346250
  H        1.0518120     1.3862240     1.5233560
  C        1.3089830     1.4575300    -0.5206550
  O        0.9205610     2.6110780    -0.6259770
  N        2.0114230    -1.2132080    -0.0980720
  H        1.7272860     0.9908430    -2.6119960
  C        2.0257370    -0.6971710    -1.3643970
  H        2.2975170    -1.3910600    -2.1456450
  C        1.7145120     0.5919380    -1.6124870
  H        2.1294540    -2.2015210     0.0568290
  C        1.6459450    -0.4852060     1.0187180
  O        1.5611160    -0.9718160     2.1298090
--
0 1
  N       -1.1017640    -0.7922470     0.7346250
  H       -0.7766750    -1.3387230     1.5233560
  C       -1.0338450    -1.4100290    -0.5206550
  O       -0.6454240    -2.5635770    -0.6259770
  N       -1.7362860     1.2607090    -0.0980720
  H       -1.4521480    -0.9433420    -2.6119960
  C       -1.7506000     0.7446720    -1.3643970
  H       -2.0223800     1.4385610    -2.1456450
  C       -1.4393750    -0.5444370    -1.6124870
  H       -1.8543170     2.2490220     0.0568290
  C       -1.3708080     0.5327070     1.0187180
  O       -1.2859790     1.0193170     2.1298090
units angstrom
no_reorient
symmetry c1
}

set {
scf_type DF
mp2_type DF
e_convergence 7
reference rhf
}

energy('mp2/aug-cc-pv[tq]z', bsse_type='cp')
--------------------------------------------------------------------------

    Molecular point group: c1
  Charge       = 0
  Multiplicity = 1
  Basis Set: AUG-CC-PVTZ
    Blend: AUG-CC-PVTZ
  Basis Set: (AUG-CC-PVTZ AUX)
    Blend: AUG-CC-PVTZ-JKFIT
  @DF-RHF Final Energy:  -412.62374922805424
    Total Energy =                       -412.6237492280542369
  Basis Set: (AUG-CC-PVTZ AUX)
    Blend: AUG-CC-PVTZ-RI
	 Reference Energy          =    -412.6237492280542369 [Eh]
	 Singles Energy            =      -0.0000000000000000 [Eh]
	 Same-Spin Energy          =      -0.4142089691542581 [Eh]
	 Opposite-Spin Energy      =      -1.2265627697844872 [Eh]
	 Correlation Energy        =      -1.6407717389387453 [Eh]
	 Total Energy              =    -414.2645209669929613 [Eh]
	 SCS Total Energy          =    -414.2336942081803954 [Eh]
    Molecular point group: c1
  Basis Set: AUG-CC-PVQZ
    Blend: AUG-CC-PVQZ
  Basis Set: (AUG-CC-PVQZ AUX)
    Blend: AUG-CC-PVQZ-JKFIT
  @DF-RHF Final Energy:  -412.64926955909624
    Total Energy =                       -412.6492695590962398
  Basis Set: (AUG-CC-PVQZ AUX)
  @DF-RHF Final Energy:  -412.62422311166824
    Total Energy =                       -412.6242231116682433
  @DF-RHF Final Energy:  -412.64938789306797
    Total Energy =                       -412.6493878930679671
  @DF-RHF Final Energy:  -412.62422307637956
    Total Energy =                       -412.6242230763795646
  @DF-RHF Final Energy:  -412.64938785496344
    Total Energy =                       -412.6493878549634360
  @DF-RHF Final Energy:  -412.62374919113410
    Total Energy =                       -412.6237491911340953
  @DF-RHF Final Energy:  -412.64926952106600
    Total Energy =                       -412.6492695210660031
  Multiplicity = 1
  @DF-RHF Final Energy:  -825.23647119099815
    Total Energy =                       -825.2364711909981452
	 Singles Energy            =      -0.0000000000000000 [Eh]
	 Same-Spin Energy          =      -0.8433494086705267 [Eh]
	 Opposite-Spin Energy      =      -2.4751333578627808 [Eh]
	 Correlation Energy        =      -3.3184827665333074 [Eh]
	 Total Energy              =    -828.5549539575314384 [Eh]
	 SCS Total Energy          =    -828.4877476899903286 [Eh]
    Molecular point group: c1

    Geometry (in Angstrom), charge = 0, multiplicity = 1:

       Center              X                  Y                   Z               Mass
    ------------   -----------------  -----------------  -----------------  -----------------
         N            1.239332441943     0.815996562499     0.734453688925    14.003074004430
         H            0.914243441943     1.362473562499     1.523184688925     1.007825032230
         C            1.171414441943     1.433779562499    -0.520826311075    12.000000000000
         O            0.782992441943     2.587327562499    -0.626148311075    15.994914619570
         N            1.873854441943    -1.236958437501    -0.098243311075    14.003074004430
         H            1.589717441943     0.967092562499    -2.612167311075     1.007825032230
         C            1.888168441943    -0.720921437501    -1.364568311075    12.000000000000
         H            2.159948441943    -1.414810437501    -2.145816311075     1.007825032230
         C            1.576943441943     0.568187562499    -1.612658311075    12.000000000000
         H            1.991885441943    -2.225271437501     0.056657688925     1.007825032230
         C            1.508376441943    -0.508956437501     1.018546688925    12.000000000000
         O            1.423547441943    -0.995566437501     2.129637688925    15.994914619570
         N           -1.239332558057    -0.815997437501     0.734453688925    14.003074004430
         H           -0.914243558057    -1.362473437501     1.523184688925     1.007825032230
         C           -1.171413558057    -1.433779437501    -0.520826311075    12.000000000000
         O           -0.782992558057    -2.587327437501    -0.626148311075    15.994914619570
         N           -1.873854558057     1.236958562499    -0.098243311075    14.003074004430
         H           -1.589716558057    -0.967092437501    -2.612167311075     1.007825032230
         C           -1.888168558057     0.720921562499    -1.364568311075    12.000000000000
         H           -2.159948558057     1.414810562499    -2.145816311075     1.007825032230
         C           -1.576943558057    -0.568187437501    -1.612658311075    12.000000000000
         H           -1.991885558057     2.225271562499     0.056657688925     1.007825032230
         C           -1.508376558057     0.508956562499     1.018546688925    12.000000000000
         O           -1.423547558057     0.995566562499     2.129637688925    15.994914619570

  Charge       = 0
  Multiplicity = 1
  Basis Set: AUG-CC-PVQZ
    Blend: AUG-CC-PVQZ
  Basis Set: (AUG-CC-PVQZ AUX)
    Blend: AUG-CC-PVQZ-JKFIT

    Orbital Energies [Eh]
    ---------------------

    Doubly Occupied:

       1A    -20.545640     2A    -20.545640     3A    -20.545564
       4A    -20.545564     5A    -15.639500     6A    -15.639500
       7A    -15.626078     8A    -15.626073     9A    -11.418960
      10A    -11.418960    11A    -11.386044    12A    -11.386044
      13A    -11.339852    14A    -11.339851    15A    -11.255141
      16A    -11.255139    17A     -1.443319    18A     -1.434363
      19A     -1.404926    20A     -1.403051    21A     -1.314280
      22A     -1.314206    23A     -1.250340    24A     -1.246555
      25A     -1.092682    26A     -1.087397    27A     -0.935817
      28A     -0.934374    29A     -0.904293    30A     -0.902917
      31A     -0.808027    32A     -0.806715    33A     -0.768349
      34A     -0.766433    35A     -0.715949    36A     -0.715605
      37A     -0.703178    38A     -0.683221    39A     -0.680810
      40A     -0.655733    41A     -0.654877    42A     -0.643309
      43A     -0.618189    44A     -0.617980    45A     -0.605473
      46A     -0.604527    47A     -0.594924    48A     -0.568269
      49A     -0.533323    50A     -0.513551    51A     -0.487849
      52A     -0.484806    53A     -0.457084    54A     -0.455217
      55A     -0.444875    56A     -0.440460    57A     -0.389110
      58A     -0.354176

  @DF-RHF Final Energy:  -825.28683604996377

   => Energetics <=

    Nuclear Repulsion Energy =           1189.4387570270914694
    One-Electron Energy =               -3491.5429592000127741
    Two-Electron Energy =                1476.8173661229575373
    Total Energy =                       -825.2868360499637674

  Dipole Moment: [D]
     X:     0.0000      Y:     0.0000      Z:    -5.7069     Total:     5.7069

  Basis Set: (AUG-CC-PVQZ AUX)
    Blend: AUG-CC-PVQZ-RI
	 Reference Energy          =    -825.2868360499637674 [Eh]
	 Singles Energy            =      -0.0000000000000000 [Eh]
	 Same-Spin Energy          =      -0.8931058145758273 [Eh]
	 Opposite-Spin Energy      =      -2.7938421975196337 [Eh]
	 Correlation Energy        =      -3.6869480120954607 [Eh]
	 Total Energy              =    -828.9737840620592806 [Eh]

	 ================> DF-SCS-MP2 Energies <==================
	-----------------------------------------------------------
	 SCS Same-Spin Scale       =       0.3333333333333333 [-]
	 SCS Opposite-Spin Scale   =       1.2000000000000000 [-]
	 SCS Same-Spin Energy      =      -0.2977019381919424 [Eh]
	 SCS Opposite-Spin Energy  =      -3.3526106370235604 [Eh]
	 SCS Correlation Energy    =      -3.6503125752155028 [Eh]
	 SCS Total Energy          =    -828.9371486251792476 [Eh]
	-----------------------------------------------------------

*** Psi4 exiting successfully. Buy a developer a beer!
