                               Psi4 1.4a2.dev224

  ==> Input File <==

--------------------------------------------------------------------------
#Generated by lconvert.py for cbs job

memory 40 GB

molecule  {
0 1
  N        1.3769010     0.8397470     0.7346250
  H        1.0518120     1.3862240     1.5233560
  C        1.3089830     1.4575300    -0.5206550
  O        0.9205610     2.6110780    -0.6259770
  N        2.0114230    -1.2132080    -0.0980720
  H        1.7272860     0.9908430    -2.6119960
  C        2.0257370    -0.6971710    -1.3643970
  H        2.2975170    -1.3910600    -2.1456450
  C        1.7145120     0.5919380    -1.6124870
  H        2.1294540    -2.2015210     0.0568290
  C        1.6459450    -0.4852060     1.0187180
  O        1.5611160    -0.9718160     2.1298090
--
0 1
  N       -0.8244050    -0.7443620     0.7346250
  H       -0.4993160    -1.2908380     1.5233560
  C       -0.7564870    -1.3621440    -0.5206550
  O       -0.3680650    -2.5156920    -0.6259770
  N       -1.4589270     1.3085940    -0.0980720
  H       -1.1747900    -0.8954570    -2.6119960
  C       -1.4732410     0.7925570    -1.3643970
  H       -1.7450210     1.4864450    -2.1456450
  C       -1.1620160    -0.4965520    -1.6124870
  H       -1.5769580     2.2969060     0.0568290
  C       -1.0934490     0.5805910     1.0187180
  O       -1.0086200     1.0672020     2.1298090
units angstrom
no_reorient
symmetry c1
}

set {
scf_type DF
mp2_type DF
e_convergence 7
reference rhf
}

energy('mp2/aug-cc-pv[tq]z', bsse_type='cp')
--------------------------------------------------------------------------

    Molecular point group: c1
  Charge       = 0
  Multiplicity = 1
  Basis Set: AUG-CC-PVTZ
    Blend: AUG-CC-PVTZ
  Basis Set: (AUG-CC-PVTZ AUX)
    Blend: AUG-CC-PVTZ-JKFIT
  @DF-RHF Final Energy:  -412.62374922228128
    Total Energy =                       -412.6237492222812762
  Basis Set: (AUG-CC-PVTZ AUX)
    Blend: AUG-CC-PVTZ-RI
	 Reference Energy          =    -412.6237492222812762 [Eh]
	 Singles Energy            =      -0.0000000000000000 [Eh]
	 Same-Spin Energy          =      -0.4142089766642511 [Eh]
	 Opposite-Spin Energy      =      -1.2265627740611715 [Eh]
	 Correlation Energy        =      -1.6407717507254227 [Eh]
	 Total Energy              =    -414.2645209730067108 [Eh]
	 SCS Total Energy          =    -414.2336942100427564 [Eh]
    Molecular point group: c1
  Basis Set: AUG-CC-PVQZ
    Blend: AUG-CC-PVQZ
  Basis Set: (AUG-CC-PVQZ AUX)
    Blend: AUG-CC-PVQZ-JKFIT
  @DF-RHF Final Energy:  -412.64926955207835
    Total Energy =                       -412.6492695520783514
  Basis Set: (AUG-CC-PVQZ AUX)
  @DF-RHF Final Energy:  -412.62435140149091
    Total Energy =                       -412.6243514014909124
  @DF-RHF Final Energy:  -412.64941280700464
    Total Energy =                       -412.6494128070046372
  @DF-RHF Final Energy:  -412.62435137265464
    Total Energy =                       -412.6243513726546439
  @DF-RHF Final Energy:  -412.64941278224831
    Total Energy =                       -412.6494127822483051
  @DF-RHF Final Energy:  -412.62374919311628
    Total Energy =                       -412.6237491931162822
  @DF-RHF Final Energy:  -412.64926952176995
    Total Energy =                       -412.6492695217699520
  Multiplicity = 1
  @DF-RHF Final Energy:  -825.20409413777725
    Total Energy =                       -825.2040941377772469
	 Singles Energy            =      -0.0000000000000000 [Eh]
	 Same-Spin Energy          =      -0.8513130930988173 [Eh]
	 Opposite-Spin Energy      =      -2.4863164979115195 [Eh]
	 Correlation Energy        =      -3.3376295910103368 [Eh]
	 Total Energy              =    -828.5417237287875878 [Eh]
	 SCS Total Energy          =    -828.4714449663040341 [Eh]
    Molecular point group: c1

    Geometry (in Angstrom), charge = 0, multiplicity = 1:

       Center              X                  Y                   Z               Mass
    ------------   -----------------  -----------------  -----------------  -----------------
         N            1.100653000000     0.792054125053     0.734453688925    14.003074004430
         H            0.775564000000     1.338531125053     1.523184688925     1.007825032230
         C            1.032735000000     1.409837125053    -0.520826311075    12.000000000000
         O            0.644313000000     2.563385125053    -0.626148311075    15.994914619570
         N            1.735175000000    -1.260900874947    -0.098243311075    14.003074004430
         H            1.451038000000     0.943150125053    -2.612167311075     1.007825032230
         C            1.749489000000    -0.744863874947    -1.364568311075    12.000000000000
         H            2.021269000000    -1.438752874947    -2.145816311075     1.007825032230
         C            1.438264000000     0.544245125053    -1.612658311075    12.000000000000
         H            1.853206000000    -2.249213874947     0.056657688925     1.007825032230
         C            1.369697000000    -0.532898874947     1.018546688925    12.000000000000
         O            1.284868000000    -1.019508874947     2.129637688925    15.994914619570
         N           -1.100653000000    -0.792054874947     0.734453688925    14.003074004430
         H           -0.775564000000    -1.338530874947     1.523184688925     1.007825032230
         C           -1.032735000000    -1.409836874947    -0.520826311075    12.000000000000
         O           -0.644313000000    -2.563384874947    -0.626148311075    15.994914619570
         N           -1.735175000000     1.260901125053    -0.098243311075    14.003074004430
         H           -1.451038000000    -0.943149874947    -2.612167311075     1.007825032230
         C           -1.749489000000     0.744864125053    -1.364568311075    12.000000000000
         H           -2.021269000000     1.438752125053    -2.145816311075     1.007825032230
         C           -1.438264000000    -0.544244874947    -1.612658311075    12.000000000000
         H           -1.853206000000     2.249213125053     0.056657688925     1.007825032230
         C           -1.369697000000     0.532898125053     1.018546688925    12.000000000000
         O           -1.284868000000     1.019509125053     2.129637688925    15.994914619570

  Charge       = 0
  Multiplicity = 1
  Basis Set: AUG-CC-PVQZ
    Blend: AUG-CC-PVQZ
  Basis Set: (AUG-CC-PVQZ AUX)
    Blend: AUG-CC-PVQZ-JKFIT

    Orbital Energies [Eh]
    ---------------------

    Doubly Occupied:

       1A    -20.546323     2A    -20.546323     3A    -20.545101
       4A    -20.545100     5A    -15.637647     6A    -15.637647
       7A    -15.623408     8A    -15.623398     9A    -11.419912
      10A    -11.419910    11A    -11.387210    12A    -11.387209
      13A    -11.338466    14A    -11.338464    15A    -11.255614
      16A    -11.255611    17A     -1.450288    18A     -1.432421
      19A     -1.408528    20A     -1.404796    21A     -1.314976
      22A     -1.314896    23A     -1.253453    24A     -1.246103
      25A     -1.096217    26A     -1.085855    27A     -0.937807
      28A     -0.934327    29A     -0.906004    30A     -0.903473
      31A     -0.809687    32A     -0.807044    33A     -0.770078
      34A     -0.766119    35A     -0.724686    36A     -0.717586
      37A     -0.711908    38A     -0.686206    39A     -0.681193
      40A     -0.657305    41A     -0.655125    42A     -0.634954
      43A     -0.619119    44A     -0.617584    45A     -0.606980
      46A     -0.605188    47A     -0.601703    48A     -0.573332
      49A     -0.526866    50A     -0.509686    51A     -0.489841
      52A     -0.484189    53A     -0.458981    54A     -0.456305
      55A     -0.447247    56A     -0.437498    57A     -0.398248
      58A     -0.346337

  @DF-RHF Final Energy:  -825.25429117370572

   => Energetics <=

    Nuclear Repulsion Energy =           1220.8255710731430099
    One-Electron Energy =               -3554.1647412715360588
    Two-Electron Energy =                1508.0848790246870976
    Total Energy =                       -825.2542911737057238

  Dipole Moment: [D]
     X:     0.0000      Y:    -0.0000      Z:    -5.7510     Total:     5.7510

  Basis Set: (AUG-CC-PVQZ AUX)
    Blend: AUG-CC-PVQZ-RI
	 Reference Energy          =    -825.2542911737057238 [Eh]
	 Singles Energy            =      -0.0000000000000000 [Eh]
	 Same-Spin Energy          =      -0.9010204526517926 [Eh]
	 Opposite-Spin Energy      =      -2.8031610993759113 [Eh]
	 Correlation Energy        =      -3.7041815520277037 [Eh]
	 Total Energy              =    -828.9584727257333725 [Eh]

	 ================> DF-SCS-MP2 Energies <==================
	-----------------------------------------------------------
	 SCS Same-Spin Scale       =       0.3333333333333333 [-]
	 SCS Opposite-Spin Scale   =       1.2000000000000000 [-]
	 SCS Same-Spin Energy      =      -0.3003401508839308 [Eh]
	 SCS Opposite-Spin Energy  =      -3.3637933192510934 [Eh]
	 SCS Correlation Energy    =      -3.6641334701350243 [Eh]
	 SCS Total Energy          =    -828.9184246438406944 [Eh]
	-----------------------------------------------------------

*** Psi4 exiting successfully. Buy a developer a beer!
