                               Psi4 1.4a2.dev224

  ==> Input File <==

--------------------------------------------------------------------------
#Generated by lconvert.py for cbs job

memory 40 GB

molecule  {
0 1
  N        1.3769010     0.8397470     0.7346250
  H        1.0518120     1.3862240     1.5233560
  C        1.3089830     1.4575300    -0.5206550
  O        0.9205610     2.6110780    -0.6259770
  N        2.0114230    -1.2132080    -0.0980720
  H        1.7272860     0.9908430    -2.6119960
  C        2.0257370    -0.6971710    -1.3643970
  H        2.2975170    -1.3910600    -2.1456450
  C        1.7145120     0.5919380    -1.6124870
  H        2.1294540    -2.2015210     0.0568290
  C        1.6459450    -0.4852060     1.0187180
  O        1.5611160    -0.9718160     2.1298090
--
0 1
  N       -1.3769010    -0.8397470     0.7346250
  H       -1.0518120    -1.3862240     1.5233560
  C       -1.3089830    -1.4575300    -0.5206550
  O       -0.9205610    -2.6110780    -0.6259770
  N       -2.0114230     1.2132080    -0.0980720
  H       -1.7272860    -0.9908430    -2.6119960
  C       -2.0257370     0.6971710    -1.3643970
  H       -2.2975170     1.3910600    -2.1456450
  C       -1.7145120    -0.5919380    -1.6124870
  H       -2.1294540     2.2015210     0.0568290
  C       -1.6459450     0.4852060     1.0187180
  O       -1.5611160     0.9718160     2.1298090
units angstrom
no_reorient
symmetry c1
}

set {
scf_type DF
mp2_type DF
e_convergence 7
reference rhf
}

energy('mp2/aug-cc-pv[tq]z', bsse_type='cp')
--------------------------------------------------------------------------

    Molecular point group: c1
  Charge       = 0
  Multiplicity = 1
  Basis Set: AUG-CC-PVTZ
    Blend: AUG-CC-PVTZ
  Basis Set: (AUG-CC-PVTZ AUX)
    Blend: AUG-CC-PVTZ-JKFIT
  @DF-RHF Final Energy:  -412.62374919233781
    Total Energy =                       -412.6237491923378116
  Basis Set: (AUG-CC-PVTZ AUX)
    Blend: AUG-CC-PVTZ-RI
	 Reference Energy          =    -412.6237491923378116 [Eh]
	 Singles Energy            =      -0.0000000000000000 [Eh]
	 Same-Spin Energy          =      -0.4142089867701826 [Eh]
	 Opposite-Spin Energy      =      -1.2265627911113164 [Eh]
	 Correlation Energy        =      -1.6407717778814990 [Eh]
	 Total Energy              =    -414.2645209702193370 [Eh]
	 SCS Total Energy          =    -414.2336942039281098 [Eh]
    Molecular point group: c1
  Basis Set: AUG-CC-PVQZ
    Blend: AUG-CC-PVQZ
  Basis Set: (AUG-CC-PVQZ AUX)
    Blend: AUG-CC-PVQZ-JKFIT
  @DF-RHF Final Energy:  -412.64926952421968
    Total Energy =                       -412.6492695242196760
  Basis Set: (AUG-CC-PVQZ AUX)
  @DF-RHF Final Energy:  -412.62412386982709
    Total Energy =                       -412.6241238698270877
  @DF-RHF Final Energy:  -412.64936726679178
    Total Energy =                       -412.6493672667917849
  @DF-RHF Final Energy:  -412.62412387135930
    Total Energy =                       -412.6241238713593020
  @DF-RHF Final Energy:  -412.64936727192764
    Total Energy =                       -412.6493672719276447
  @DF-RHF Final Energy:  -412.62374919558624
    Total Energy =                       -412.6237491955862424
  @DF-RHF Final Energy:  -412.64926952558710
    Total Energy =                       -412.6492695255871013
  Multiplicity = 1
  @DF-RHF Final Energy:  -825.24816519065075
    Total Energy =                       -825.2481651906507523
	 Singles Energy            =      -0.0000000000000000 [Eh]
	 Same-Spin Energy          =      -0.8382845952844156 [Eh]
	 Opposite-Spin Energy      =      -2.4680082325182831 [Eh]
	 Correlation Energy        =      -3.3062928278026984 [Eh]
	 Total Energy              =    -828.5544580184534880 [Eh]
	 SCS Total Energy          =    -828.4892032681008232 [Eh]
    Molecular point group: c1

    Geometry (in Angstrom), charge = 0, multiplicity = 1:

       Center              X                  Y                   Z               Mass
    ------------   -----------------  -----------------  -----------------  -----------------
         N            1.376901000000     0.839747000000     0.734453688925    14.003074004430
         H            1.051812000000     1.386224000000     1.523184688925     1.007825032230
         C            1.308983000000     1.457530000000    -0.520826311075    12.000000000000
         O            0.920561000000     2.611078000000    -0.626148311075    15.994914619570
         N            2.011423000000    -1.213208000000    -0.098243311075    14.003074004430
         H            1.727286000000     0.990843000000    -2.612167311075     1.007825032230
         C            2.025737000000    -0.697171000000    -1.364568311075    12.000000000000
         H            2.297517000000    -1.391060000000    -2.145816311075     1.007825032230
         C            1.714512000000     0.591938000000    -1.612658311075    12.000000000000
         H            2.129454000000    -2.201521000000     0.056657688925     1.007825032230
         C            1.645945000000    -0.485206000000     1.018546688925    12.000000000000
         O            1.561116000000    -0.971816000000     2.129637688925    15.994914619570
         N           -1.376901000000    -0.839747000000     0.734453688925    14.003074004430
         H           -1.051812000000    -1.386224000000     1.523184688925     1.007825032230
         C           -1.308983000000    -1.457530000000    -0.520826311075    12.000000000000
         O           -0.920561000000    -2.611078000000    -0.626148311075    15.994914619570
         N           -2.011423000000     1.213208000000    -0.098243311075    14.003074004430
         H           -1.727286000000    -0.990843000000    -2.612167311075     1.007825032230
         C           -2.025737000000     0.697171000000    -1.364568311075    12.000000000000
         H           -2.297517000000     1.391060000000    -2.145816311075     1.007825032230
         C           -1.714512000000    -0.591938000000    -1.612658311075    12.000000000000
         H           -2.129454000000     2.201521000000     0.056657688925     1.007825032230
         C           -1.645945000000     0.485206000000     1.018546688925    12.000000000000
         O           -1.561116000000     0.971816000000     2.129637688925    15.994914619570

  Charge       = 0
  Multiplicity = 1
  Basis Set: AUG-CC-PVQZ
    Blend: AUG-CC-PVQZ
  Basis Set: (AUG-CC-PVQZ AUX)
    Blend: AUG-CC-PVQZ-JKFIT

    Orbital Energies [Eh]
    ---------------------

    Doubly Occupied:

       1A    -20.545487     2A    -20.545486     3A    -20.544859
       4A    -20.544859     5A    -15.640628     6A    -15.640628
       7A    -15.627186     8A    -15.627183     9A    -11.418585
      10A    -11.418584    11A    -11.385220    12A    -11.385220
      13A    -11.340588    14A    -11.340588    15A    -11.255095
      16A    -11.255094    17A     -1.439879    18A     -1.435427
      19A     -1.402817    20A     -1.401897    21A     -1.314027
      22A     -1.313988    23A     -1.248785    24A     -1.246863
      25A     -1.091017    26A     -1.088314    27A     -0.935141
      28A     -0.934564    29A     -0.903439    30A     -0.902711
      31A     -0.807524    32A     -0.806854    33A     -0.767534
      34A     -0.766603    35A     -0.715076    36A     -0.715024
      37A     -0.692035    38A     -0.681589    39A     -0.680438
      40A     -0.655888    41A     -0.654762    42A     -0.650877
      43A     -0.617684    44A     -0.617672    45A     -0.604722
      46A     -0.604101    47A     -0.587636    48A     -0.568012
      49A     -0.533615    50A     -0.517179    51A     -0.486594
      52A     -0.484901    53A     -0.455682    54A     -0.454393
      55A     -0.442989    56A     -0.440926    57A     -0.382839
      58A     -0.359601

  @DF-RHF Final Energy:  -825.29866420284475

   => Energetics <=

    Nuclear Repulsion Energy =           1161.4696259873658164
    One-Electron Energy =               -3435.6827259186325136
    Two-Electron Energy =                1448.9144357284219495
    Total Energy =                       -825.2986642028447477

  Dipole Moment: [D]
     X:     0.0000      Y:    -0.0000      Z:    -5.6930     Total:     5.6930

  Basis Set: (AUG-CC-PVQZ AUX)
    Blend: AUG-CC-PVQZ-RI
	 Reference Energy          =    -825.2986642028447477 [Eh]
	 Singles Energy            =      -0.0000000000000000 [Eh]
	 Same-Spin Energy          =      -0.8881049983504772 [Eh]
	 Opposite-Spin Energy      =      -2.7879731596141939 [Eh]
	 Correlation Energy        =      -3.6760781579646711 [Eh]
	 Total Energy              =    -828.9747423608093868 [Eh]

	 ================> DF-SCS-MP2 Energies <==================
	-----------------------------------------------------------
	 SCS Same-Spin Scale       =       0.3333333333333333 [-]
	 SCS Opposite-Spin Scale   =       1.2000000000000000 [-]
	 SCS Same-Spin Energy      =      -0.2960349994501590 [Eh]
	 SCS Opposite-Spin Energy  =      -3.3455677915370328 [Eh]
	 SCS Correlation Energy    =      -3.6416027909871920 [Eh]
	 SCS Total Energy          =    -828.9402669938319832 [Eh]
	-----------------------------------------------------------

*** Psi4 exiting successfully. Buy a developer a beer!
