                               Psi4 1.4a2.dev224

  ==> Input File <==

--------------------------------------------------------------------------
#Generated by lconvert.py for cbs job

memory 40 GB

molecule  {
0 1
  C        0.8187470     0.8641720     0.1882860
  H        1.4661140     1.7166680     0.3447210
  C        1.3689970    -0.3905240    -0.0666980
  H        2.4430360    -0.5118620    -0.1105740
  C        0.5343790    -1.4884930    -0.2718880
  H        0.9608480    -2.4615640    -0.4755070
  C       -0.8491160    -1.3305070    -0.2198960
  H       -1.4970690    -2.1818600    -0.3795530
  C       -1.3994850    -0.0760300     0.0404340
  H       -2.4726870     0.0449080     0.0933820
  C       -0.5652920     1.0214030     0.2422790
  H       -0.9925570     1.9936610     0.4462580
--
0 1
  N       -2.3728530     0.1496200     3.4273660
  C       -1.7579670     1.3072880     3.7074300
  H       -2.4055710     2.1604600     3.8699420
  C       -0.3757520     1.4481360     3.7976010
  H        0.0560970     2.4117860     4.0288170
  C        0.4251990     0.3311570     3.5833870
  H        1.5027690     0.4015410     3.6382220
  C       -0.1953530    -0.8774990     3.2897280
  H        0.3804220    -1.7731200     3.1056530
  C       -1.5858670    -0.9155360     3.2242780
  H       -2.0947200    -1.8439900     2.9954360
units angstrom
no_reorient
symmetry c1
}

set {
scf_type DF
mp2_type DF
e_convergence 7
reference rhf
}

energy('mp2/aug-cc-pv[tq]z', bsse_type='cp')
--------------------------------------------------------------------------

    Molecular point group: c1
  Charge       = 0
  Multiplicity = 1
  Basis Set: AUG-CC-PVTZ
    Blend: AUG-CC-PVTZ
  Basis Set: (AUG-CC-PVTZ AUX)
    Blend: AUG-CC-PVTZ-JKFIT
  @DF-RHF Final Energy:  -246.77869153361641
    Total Energy =                       -246.7786915336164384
  Basis Set: (AUG-CC-PVTZ AUX)
    Blend: AUG-CC-PVTZ-RI
	 Reference Energy          =    -246.7786915336164100 [Eh]
	 Singles Energy            =      -0.0000000000000000 [Eh]
	 Same-Spin Energy          =      -0.2687925917189217 [Eh]
	 Opposite-Spin Energy      =      -0.8388123662252147 [Eh]
	 Correlation Energy        =      -1.1076049579441363 [Eh]
	 Total Energy              =    -247.8862964915605573 [Eh]
	 SCS Total Energy          =    -247.8748639036596444 [Eh]
    Molecular point group: c1
  Basis Set: AUG-CC-PVQZ
    Blend: AUG-CC-PVQZ
  Basis Set: (AUG-CC-PVQZ AUX)
    Blend: AUG-CC-PVQZ-JKFIT
  @DF-RHF Final Energy:  -246.79283366738090
    Total Energy =                       -246.7928336673809326
  Basis Set: (AUG-CC-PVQZ AUX)
  @DF-RHF Final Energy:  -246.77887949055193
    Total Energy =                       -246.7788794905519580
  @DF-RHF Final Energy:  -246.79288378282297
    Total Energy =                       -246.7928837828229689
  @DF-RHF Final Energy:  -230.78143350178905
    Total Energy =                       -230.7814335017890812
  @DF-RHF Final Energy:  -230.79446058434797
    Total Energy =                       -230.7944605843479735
  @DF-RHF Final Energy:  -230.78123421430564
    Total Energy =                       -230.7812342143056412
  @DF-RHF Final Energy:  -230.79440845291734
    Total Energy =                       -230.7944084529173097
  Multiplicity = 1
  @DF-RHF Final Energy:  -477.55276199661114
    Total Energy =                       -477.5527619966111388
	 Singles Energy            =      -0.0000000000000000 [Eh]
	 Same-Spin Energy          =      -0.5323224941040786 [Eh]
	 Opposite-Spin Energy      =      -1.6697625411097761 [Eh]
	 Correlation Energy        =      -2.2020850352138548 [Eh]
	 Total Energy              =    -479.7548470318249656 [Eh]
	 SCS Total Energy          =    -479.7339178773108870 [Eh]
    Molecular point group: c1

    Geometry (in Angstrom), charge = 0, multiplicity = 1:

       Center              X                  Y                   Z               Mass
    ------------   -----------------  -----------------  -----------------  -----------------
         C            1.320878667155     0.859243381134    -1.567832308403    12.000000000000
         H            1.968245667155     1.711739381134    -1.411397308403     1.007825032230
         C            1.871128667155    -0.395452618866    -1.822816308403    12.000000000000
         H            2.945167667155    -0.516790618866    -1.866692308403     1.007825032230
         C            1.036510667155    -1.493421618866    -2.028006308403    12.000000000000
         H            1.462979667155    -2.466492618866    -2.231625308403     1.007825032230
         C           -0.346984332845    -1.335435618866    -1.976014308403    12.000000000000
         H           -0.994937332845    -2.186788618866    -2.135671308403     1.007825032230
         C           -0.897353332845    -0.080958618866    -1.715684308403    12.000000000000
         H           -1.970555332845     0.039979381134    -1.662736308403     1.007825032230
         C           -0.063160332845     1.016474381134    -1.513839308403    12.000000000000
         H           -0.490425332845     1.988732381134    -1.309860308403     1.007825032230
         N           -1.870721332845     0.144691381134     1.671247691597    14.003074004430
         C           -1.255835332845     1.302359381134     1.951311691597    12.000000000000
         H           -1.903439332845     2.155531381134     2.113823691597     1.007825032230
         C            0.126379667155     1.443207381134     2.041482691597    12.000000000000
         H            0.558228667155     2.406857381134     2.272698691597     1.007825032230
         C            0.927330667155     0.326228381134     1.827268691597    12.000000000000
         H            2.004900667155     0.396612381134     1.882103691597     1.007825032230
         C            0.306778667155    -0.882427618866     1.533609691597    12.000000000000
         H            0.882553667155    -1.778048618866     1.349534691597     1.007825032230
         C           -1.083735332845    -0.920464618866     1.468159691597    12.000000000000
         H           -1.592588332845    -1.848918618866     1.239317691597     1.007825032230

  Charge       = 0
  Multiplicity = 1
  Basis Set: AUG-CC-PVQZ
    Blend: AUG-CC-PVQZ
  Basis Set: (AUG-CC-PVQZ AUX)
    Blend: AUG-CC-PVQZ-JKFIT

    Orbital Energies [Eh]
    ---------------------

    Doubly Occupied:

       1A    -15.558457     2A    -11.268268     3A    -11.267687
       4A    -11.252263     5A    -11.234475     6A    -11.233671
       7A    -11.232905     8A    -11.232867     9A    -11.232146
      10A    -11.231567    11A    -11.230802    12A    -11.229758
      13A     -1.250157    14A     -1.148384    15A     -1.083004
      16A     -1.027130    17A     -1.012850    18A     -1.012696
      19A     -0.853067    20A     -0.849576    21A     -0.822459
      22A     -0.822237    23A     -0.716254    24A     -0.707939
      25A     -0.654201    26A     -0.648265    27A     -0.642642
      28A     -0.617298    29A     -0.592274    30A     -0.586672
      31A     -0.586344    32A     -0.571077    33A     -0.542539
      34A     -0.513930    35A     -0.495202    36A     -0.493237
      37A     -0.493172    38A     -0.414456    39A     -0.380200
      40A     -0.346960    41A     -0.334367    42A     -0.326920

  @DF-RHF Final Energy:  -477.57979825887543

   => Energetics <=

    Nuclear Repulsion Energy =            635.3246614427375789
    One-Electron Energy =               -1906.3081712433677239
    Two-Electron Energy =                 793.4037115417546602
    Total Energy =                       -477.5797982588754849

  Dipole Moment: [D]
     X:     2.2119      Y:     0.1228      Z:    -0.0158     Total:     2.2153

  Basis Set: (AUG-CC-PVQZ AUX)
    Blend: AUG-CC-PVQZ-RI
	 Reference Energy          =    -477.5797982588754280 [Eh]
	 Singles Energy            =      -0.0000000000000000 [Eh]
	 Same-Spin Energy          =      -0.5620437211062423 [Eh]
	 Opposite-Spin Energy      =      -1.8707218109448762 [Eh]
	 Correlation Energy        =      -2.4327655320511186 [Eh]
	 Total Energy              =    -480.0125637909265492 [Eh]

	 ================> DF-SCS-MP2 Energies <==================
	-----------------------------------------------------------
	 SCS Same-Spin Scale       =       0.3333333333333333 [-]
	 SCS Opposite-Spin Scale   =       1.2000000000000000 [-]
	 SCS Same-Spin Energy      =      -0.1873479070354141 [Eh]
	 SCS Opposite-Spin Energy  =      -2.2448661731338513 [Eh]
	 SCS Correlation Energy    =      -2.4322140801692655 [Eh]
	 SCS Total Energy          =    -480.0120123390447020 [Eh]
	-----------------------------------------------------------

*** Psi4 exiting successfully. Buy a developer a beer!
