                               Psi4 1.4a2.dev224

  ==> Input File <==

--------------------------------------------------------------------------
#Generated by lconvert.py for cbs job

memory 20 GB

molecule  {
0 1
  C       0.818750    0.864170    0.188290
  H       1.466110    1.716670    0.344720
  C       1.369000   -0.390520   -0.066700
  H       2.443040   -0.511860   -0.110570
  C       0.534380   -1.488490   -0.271890
  H       0.960850   -2.461560   -0.475510
  C      -0.849120   -1.330510   -0.219900
  H      -1.497070   -2.181860   -0.379550
  C      -1.399490   -0.076030    0.040430
  H      -2.472690    0.044910    0.093380
  C      -0.565290    1.021400    0.242280
  H      -0.992560    1.993660    0.446260
--
0 1
  N      -2.944490    0.429430    5.506720
  C      -2.329600    1.587100    5.786780
  H      -2.977210    2.440270    5.949300
  C      -0.947390    1.727950    5.876950
  H      -0.515540    2.691600    6.108170
  C      -0.146440    0.610970    5.662740
  H       0.931130    0.681350    5.717580
  C      -0.766990   -0.597690    5.369080
  H      -0.191210   -1.493310    5.185010
  C      -2.157500   -0.635730    5.303630
  H      -2.666350   -1.564180    5.074790
units angstrom
no_reorient
symmetry c1
}

set {
scf_type DF
mp2_type DF
e_convergence 7
reference rhf
}

energy('mp2/aug-cc-pv[tq]z', bsse_type='cp')
--------------------------------------------------------------------------

    Molecular point group: c1
  Charge       = 0
  Multiplicity = 1
  Basis Set: AUG-CC-PVTZ
    Blend: AUG-CC-PVTZ
  Basis Set: (AUG-CC-PVTZ AUX)
    Blend: AUG-CC-PVTZ-JKFIT
  @DF-RHF Final Energy:  -246.77869128757496
    Total Energy =                       -246.7786912875749863
  Basis Set: (AUG-CC-PVTZ AUX)
    Blend: AUG-CC-PVTZ-RI
	 Reference Energy          =    -246.7786912875749579 [Eh]
	 Singles Energy            =      -0.0000000000000000 [Eh]
	 Same-Spin Energy          =      -0.2687926433963701 [Eh]
	 Opposite-Spin Energy      =      -0.8388125352544931 [Eh]
	 Correlation Energy        =      -1.1076051786508632 [Eh]
	 Total Energy              =    -247.8862964662258150 [Eh]
	 SCS Total Energy          =    -247.8748638776791324 [Eh]
    Molecular point group: c1
  Basis Set: AUG-CC-PVQZ
    Blend: AUG-CC-PVQZ
  Basis Set: (AUG-CC-PVQZ AUX)
    Blend: AUG-CC-PVQZ-JKFIT
  @DF-RHF Final Energy:  -246.79283341231343
    Total Energy =                       -246.7928334123134277
  Basis Set: (AUG-CC-PVQZ AUX)
  @DF-RHF Final Energy:  -246.77872145056477
    Total Energy =                       -246.7787214505647739
  @DF-RHF Final Energy:  -246.79284510334639
    Total Energy =                       -246.7928451033463944
  @DF-RHF Final Energy:  -230.78127261481069
    Total Energy =                       -230.7812726148106890
  @DF-RHF Final Energy:  -230.79442112094236
    Total Energy =                       -230.7944211209423315
  @DF-RHF Final Energy:  -230.78123408037641
    Total Energy =                       -230.7812340803764073
  @DF-RHF Final Energy:  -230.79440831613761
    Total Energy =                       -230.7944083161376057
  Multiplicity = 1
  @DF-RHF Final Energy:  -477.55995979370982
    Total Energy =                       -477.5599597937098224
	 Singles Energy            =      -0.0000000000000000 [Eh]
	 Same-Spin Energy          =      -0.5247883872943666 [Eh]
	 Opposite-Spin Energy      =      -1.6583360244157519 [Eh]
	 Correlation Energy        =      -2.1831244117101187 [Eh]
	 Total Energy              =    -479.7430842054199616 [Eh]
	 SCS Total Energy          =    -479.7248924854401935 [Eh]
    Molecular point group: c1

    Geometry (in Angstrom), charge = 0, multiplicity = 1:

       Center              X                  Y                   Z               Mass
    ------------   -----------------  -----------------  -----------------  -----------------
         C            1.608510588473     0.718449697350    -2.614090731849    12.000000000000
         H            2.255870588473     1.570949697350    -2.457660731849     1.007825032230
         C            2.158760588473    -0.536240302650    -2.869080731849    12.000000000000
         H            3.232800588473    -0.657580302650    -2.912950731849     1.007825032230
         C            1.324140588473    -1.634210302650    -3.074270731849    12.000000000000
         H            1.750610588473    -2.607280302650    -3.277890731849     1.007825032230
         C           -0.059359411527    -1.476230302650    -3.022280731849    12.000000000000
         H           -0.707309411527    -2.327580302650    -3.181930731849     1.007825032230
         C           -0.609729411527    -0.221750302650    -2.761950731849    12.000000000000
         H           -1.682929411527    -0.100810302650    -2.709000731849     1.007825032230
         C            0.224470588473     0.875679697350    -2.560100731849    12.000000000000
         H           -0.202799411527     1.847939697350    -2.356120731849     1.007825032230
         N           -2.154729411527     0.283709697350     2.704339268151    14.003074004430
         C           -1.539839411527     1.441379697350     2.984399268151    12.000000000000
         H           -2.187449411527     2.294549697350     3.146919268151     1.007825032230
         C           -0.157629411527     1.582229697350     3.074569268151    12.000000000000
         H            0.274220588473     2.545879697350     3.305789268151     1.007825032230
         C            0.643320588473     0.465249697350     2.860359268151    12.000000000000
         H            1.720890588473     0.535629697350     2.915199268151     1.007825032230
         C            0.022770588473    -0.743410302650     2.566699268151    12.000000000000
         H            0.598550588473    -1.639030302650     2.382629268151     1.007825032230
         C           -1.367739411527    -0.781450302650     2.501249268151    12.000000000000
         H           -1.876589411527    -1.709900302650     2.272409268151     1.007825032230

  Charge       = 0
  Multiplicity = 1
  Basis Set: AUG-CC-PVQZ
    Blend: AUG-CC-PVQZ
  Basis Set: (AUG-CC-PVQZ AUX)
    Blend: AUG-CC-PVQZ-JKFIT

    Orbital Energies [Eh]
    ---------------------

    Doubly Occupied:

       1A    -15.562928     2A    -11.272055     3A    -11.271658
       4A    -11.256789     5A    -11.239008     6A    -11.238294
       7A    -11.234837     8A    -11.234181     9A    -11.233937
      10A    -11.232942    11A    -11.232822    12A    -11.232035
      13A     -1.254063    14A     -1.149475    15A     -1.087389
      16A     -1.031022    17A     -1.013978    18A     -1.013877
      19A     -0.857039    20A     -0.853434    21A     -0.823477
      22A     -0.823370    23A     -0.719799    24A     -0.709138
      25A     -0.658376    26A     -0.651967    27A     -0.643557
      28A     -0.618629    29A     -0.595949    30A     -0.587605
      31A     -0.587496    32A     -0.575076    33A     -0.539102
      34A     -0.517715    35A     -0.501949    36A     -0.494542
      37A     -0.494289    38A     -0.417998    39A     -0.381824
      40A     -0.345510    41A     -0.336411    42A     -0.336229

  @DF-RHF Final Energy:  -477.58723461563466

   => Energetics <=

    Nuclear Repulsion Energy =            561.5398264499923471
    One-Electron Energy =               -1758.5305600428780508
    Two-Electron Energy =                 719.4034989772509334
    Total Energy =                       -477.5872346156346566

  Dipole Moment: [D]
     X:     2.2747      Y:     0.1398      Z:     0.0727     Total:     2.2802

  Basis Set: (AUG-CC-PVQZ AUX)
    Blend: AUG-CC-PVQZ-RI
	 Reference Energy          =    -477.5872346156346566 [Eh]
	 Singles Energy            =      -0.0000000000000000 [Eh]
	 Same-Spin Energy          =      -0.5546872229839310 [Eh]
	 Opposite-Spin Energy      =      -1.8613513052053392 [Eh]
	 Correlation Energy        =      -2.4160385281892705 [Eh]
	 Total Energy              =    -480.0032731438239466 [Eh]

	 ================> DF-SCS-MP2 Energies <==================
	-----------------------------------------------------------
	 SCS Same-Spin Scale       =       0.3333333333333333 [-]
	 SCS Opposite-Spin Scale   =       1.2000000000000000 [-]
	 SCS Same-Spin Energy      =      -0.1848957409946437 [Eh]
	 SCS Opposite-Spin Energy  =      -2.2336215662464070 [Eh]
	 SCS Correlation Energy    =      -2.4185173072410509 [Eh]
	 SCS Total Energy          =    -480.0057519228757315 [Eh]
	-----------------------------------------------------------

*** Psi4 exiting successfully. Buy a developer a beer!
