                               Psi4 1.4a2.dev224

  ==> Input File <==

--------------------------------------------------------------------------
#Generated by lconvert.py for cbs job

memory 40 GB

molecule  {
0 1
  C        0.8187470     0.8641720     0.1882860
  H        1.4661140     1.7166680     0.3447210
  C        1.3689970    -0.3905240    -0.0666980
  H        2.4430360    -0.5118620    -0.1105740
  C        0.5343790    -1.4884930    -0.2718880
  H        0.9608480    -2.4615640    -0.4755070
  C       -0.8491160    -1.3305070    -0.2198960
  H       -1.4970690    -2.1818600    -0.3795530
  C       -1.3994850    -0.0760300     0.0404340
  H       -2.4726870     0.0449080     0.0933820
  C       -0.5652920     1.0214030     0.2422790
  H       -0.9925570     1.9936610     0.4462580
--
0 1
  N       -2.4677080     0.1960500     3.7724050
  C       -1.8528220     1.3537180     4.0524690
  H       -2.5004260     2.2068900     4.2149810
  C       -0.4706070     1.4945660     4.1426400
  H       -0.0387580     2.4582160     4.3738560
  C        0.3303440     0.3775870     3.9284260
  H        1.4079140     0.4479710     3.9832610
  C       -0.2902070    -0.8310680     3.6347670
  H        0.2855670    -1.7266900     3.4506920
  C       -1.6807220    -0.8691060     3.5693170
  H       -2.1895750    -1.7975600     3.3404750
units angstrom
no_reorient
symmetry c1
}

set {
scf_type DF
mp2_type DF
e_convergence 7
reference rhf
}

energy('mp2/aug-cc-pv[tq]z', bsse_type='cp')
--------------------------------------------------------------------------

    Molecular point group: c1
  Charge       = 0
  Multiplicity = 1
  Basis Set: AUG-CC-PVTZ
    Blend: AUG-CC-PVTZ
  Basis Set: (AUG-CC-PVTZ AUX)
    Blend: AUG-CC-PVTZ-JKFIT
  @DF-RHF Final Energy:  -246.77869153420045
    Total Energy =                       -246.7786915342004477
  Basis Set: (AUG-CC-PVTZ AUX)
    Blend: AUG-CC-PVTZ-RI
	 Reference Energy          =    -246.7786915342004477 [Eh]
	 Singles Energy            =      -0.0000000000000000 [Eh]
	 Same-Spin Energy          =      -0.2687925930281384 [Eh]
	 Opposite-Spin Energy      =      -0.8388123655739432 [Eh]
	 Correlation Energy        =      -1.1076049586020815 [Eh]
	 Total Energy              =    -247.8862964928025292 [Eh]
	 SCS Total Energy          =    -247.8748639038985573 [Eh]
    Molecular point group: c1
  Basis Set: AUG-CC-PVQZ
    Blend: AUG-CC-PVQZ
  Basis Set: (AUG-CC-PVQZ AUX)
    Blend: AUG-CC-PVQZ-JKFIT
  @DF-RHF Final Energy:  -246.79283366867520
    Total Energy =                       -246.7928336686752004
  Basis Set: (AUG-CC-PVQZ AUX)
  @DF-RHF Final Energy:  -246.77883669566498
    Total Energy =                       -246.7788366956649497
  @DF-RHF Final Energy:  -246.79287191869679
    Total Energy =                       -246.7928719186967896
  @DF-RHF Final Energy:  -230.78138891887357
    Total Energy =                       -230.7813889188735743
  @DF-RHF Final Energy:  -230.79444878596919
    Total Energy =                       -230.7944487859692231
  @DF-RHF Final Energy:  -230.78123421974999
    Total Energy =                       -230.7812342197499902
  @DF-RHF Final Energy:  -230.79440845409738
    Total Energy =                       -230.7944084540973790
  Multiplicity = 1
  @DF-RHF Final Energy:  -477.55742787931979
    Total Energy =                       -477.5574278793197891
	 Singles Energy            =      -0.0000000000000000 [Eh]
	 Same-Spin Energy          =      -0.5292271514787132 [Eh]
	 Opposite-Spin Energy      =      -1.6651985889143832 [Eh]
	 Correlation Energy        =      -2.1944257403930965 [Eh]
	 Total Energy              =    -479.7518536197129038 [Eh]
	 SCS Total Energy          =    -479.7320752365099565 [Eh]
    Molecular point group: c1

    Geometry (in Angstrom), charge = 0, multiplicity = 1:

       Center              X                  Y                   Z               Mass
    ------------   -----------------  -----------------  -----------------  -----------------
         C            1.368606570911     0.835881224535    -1.741444817409    12.000000000000
         H            2.015973570911     1.688377224535    -1.585009817409     1.007825032230
         C            1.918856570911    -0.418814775465    -1.996428817409    12.000000000000
         H            2.992895570911    -0.540152775465    -2.040304817409     1.007825032230
         C            1.084238570911    -1.516783775465    -2.201618817409    12.000000000000
         H            1.510707570911    -2.489854775465    -2.405237817409     1.007825032230
         C           -0.299256429089    -1.358797775465    -2.149626817409    12.000000000000
         H           -0.947209429089    -2.210150775465    -2.309283817409     1.007825032230
         C           -0.849625429089    -0.104320775465    -1.889296817409    12.000000000000
         H           -1.922827429089     0.016617224535    -1.836348817409     1.007825032230
         C           -0.015432429089     0.993112224535    -1.687451817409    12.000000000000
         H           -0.442697429089     1.965370224535    -1.483472817409     1.007825032230
         N           -1.917848429089     0.167759224535     1.842674182591    14.003074004430
         C           -1.302962429089     1.325427224535     2.122738182591    12.000000000000
         H           -1.950566429089     2.178599224535     2.285250182591     1.007825032230
         C            0.079252570911     1.466275224535     2.212909182591    12.000000000000
         H            0.511101570911     2.429925224535     2.444125182591     1.007825032230
         C            0.880203570911     0.349296224535     1.998695182591    12.000000000000
         H            1.957773570911     0.419680224535     2.053530182591     1.007825032230
         C            0.259652570911    -0.859358775465     1.705036182591    12.000000000000
         H            0.835426570911    -1.754980775465     1.520961182591     1.007825032230
         C           -1.130862429089    -0.897396775465     1.639586182591    12.000000000000
         H           -1.639715429089    -1.825850775465     1.410744182591     1.007825032230

  Charge       = 0
  Multiplicity = 1
  Basis Set: AUG-CC-PVQZ
    Blend: AUG-CC-PVQZ
  Basis Set: (AUG-CC-PVQZ AUX)
    Blend: AUG-CC-PVQZ-JKFIT

    Orbital Energies [Eh]
    ---------------------

    Doubly Occupied:

       1A    -15.559922     2A    -11.269357     3A    -11.268575
       4A    -11.253371     5A    -11.235909     6A    -11.234359
       7A    -11.234153     8A    -11.233350     9A    -11.232700
      10A    -11.232105    11A    -11.231464    12A    -11.230428
      13A     -1.251125    14A     -1.148561    15A     -1.084035
      16A     -1.027959    17A     -1.013113    18A     -1.012935
      19A     -0.853959    20A     -0.850488    21A     -0.822645
      22A     -0.822474    23A     -0.716941    24A     -0.708257
      25A     -0.655258    26A     -0.649076    27A     -0.642788
      28A     -0.617654    29A     -0.593064    30A     -0.586830
      31A     -0.586571    32A     -0.572044    33A     -0.538967
      34A     -0.514820    35A     -0.498949    36A     -0.493540
      37A     -0.493504    38A     -0.415408    39A     -0.379434
      40A     -0.345136    41A     -0.335091    42A     -0.331776

  @DF-RHF Final Energy:  -477.58452472330930

   => Energetics <=

    Nuclear Repulsion Energy =            618.9093439201822093
    One-Electron Energy =               -1873.4315377372668081
    Two-Electron Energy =                 776.9376690937752983
    Total Energy =                       -477.5845247233093005

  Dipole Moment: [D]
     X:     2.2287      Y:     0.1281      Z:     0.0036     Total:     2.2324

  Basis Set: (AUG-CC-PVQZ AUX)
    Blend: AUG-CC-PVQZ-RI
	 Reference Energy          =    -477.5845247233093005 [Eh]
	 Singles Energy            =      -0.0000000000000000 [Eh]
	 Same-Spin Energy          =      -0.5589917891618150 [Eh]
	 Opposite-Spin Energy      =      -1.8667941868789835 [Eh]
	 Correlation Energy        =      -2.4257859760407987 [Eh]
	 Total Energy              =    -480.0103106993501001 [Eh]

	 ================> DF-SCS-MP2 Energies <==================
	-----------------------------------------------------------
	 SCS Same-Spin Scale       =       0.3333333333333333 [-]
	 SCS Opposite-Spin Scale   =       1.2000000000000000 [-]
	 SCS Same-Spin Energy      =      -0.1863305963872717 [Eh]
	 SCS Opposite-Spin Energy  =      -2.2401530242547802 [Eh]
	 SCS Correlation Energy    =      -2.4264836206420517 [Eh]
	 SCS Total Energy          =    -480.0110083439513460 [Eh]
	-----------------------------------------------------------

*** Psi4 exiting successfully. Buy a developer a beer!
