                               Psi4 1.4a2.dev224

  ==> Input File <==

--------------------------------------------------------------------------
#Generated by lconvert.py for cbs job

memory 40 GB

molecule  {
0 1
  C        0.8187470     0.8641720     0.1882860
  H        1.4661140     1.7166680     0.3447210
  C        1.3689970    -0.3905240    -0.0666980
  H        2.4430360    -0.5118620    -0.1105740
  C        0.5343790    -1.4884930    -0.2718880
  H        0.9608480    -2.4615640    -0.4755070
  C       -0.8491160    -1.3305070    -0.2198960
  H       -1.4970690    -2.1818600    -0.3795530
  C       -1.3994850    -0.0760300     0.0404340
  H       -2.4726870     0.0449080     0.0933820
  C       -0.5652920     1.0214030     0.2422790
  H       -0.9925570     1.9936610     0.4462580
--
0 1
  N       -2.4205150     0.1729500     3.6007400
  C       -1.8056290     1.3306180     3.8808040
  H       -2.4532330     2.1837900     4.0433160
  C       -0.4234140     1.4714660     3.9709750
  H        0.0084340     2.4351160     4.2021910
  C        0.3775370     0.3544870     3.7567610
  H        1.4551060     0.4248710     3.8115960
  C       -0.2430150    -0.8541680     3.4631020
  H        0.3327600    -1.7497900     3.2790270
  C       -1.6335290    -0.8922060     3.3976520
  H       -2.1423820    -1.8206600     3.1688100
units angstrom
no_reorient
symmetry c1
}

set {
scf_type DF
mp2_type DF
e_convergence 7
reference rhf
}

energy('mp2/aug-cc-pv[tq]z', bsse_type='cp')
--------------------------------------------------------------------------

    Molecular point group: c1
  Charge       = 0
  Multiplicity = 1
  Basis Set: AUG-CC-PVTZ
    Blend: AUG-CC-PVTZ
  Basis Set: (AUG-CC-PVTZ AUX)
    Blend: AUG-CC-PVTZ-JKFIT
  @DF-RHF Final Energy:  -246.77869155789065
    Total Energy =                       -246.7786915578906246
  Basis Set: (AUG-CC-PVTZ AUX)
    Blend: AUG-CC-PVTZ-RI
	 Reference Energy          =    -246.7786915578906530 [Eh]
	 Singles Energy            =      -0.0000000000000000 [Eh]
	 Same-Spin Energy          =      -0.2687925919436372 [Eh]
	 Opposite-Spin Energy      =      -0.8388123552067872 [Eh]
	 Correlation Energy        =      -1.1076049471504246 [Eh]
	 Total Energy              =    -247.8862965050410878 [Eh]
	 SCS Total Energy          =    -247.8748639147866868 [Eh]
    Molecular point group: c1
  Basis Set: AUG-CC-PVQZ
    Blend: AUG-CC-PVQZ
  Basis Set: (AUG-CC-PVQZ AUX)
    Blend: AUG-CC-PVQZ-JKFIT
  @DF-RHF Final Energy:  -246.79283368865379
    Total Energy =                       -246.7928336886537863
  Basis Set: (AUG-CC-PVQZ AUX)
  @DF-RHF Final Energy:  -246.77885672905268
    Total Energy =                       -246.7788567290526771
  @DF-RHF Final Energy:  -246.79287724624365
    Total Energy =                       -246.7928772462436200
  @DF-RHF Final Energy:  -230.78140922191736
    Total Energy =                       -230.7814092219173858
  @DF-RHF Final Energy:  -230.79445425048795
    Total Energy =                       -230.7944542504879450
  @DF-RHF Final Energy:  -230.78123421596436
    Total Energy =                       -230.7812342159643890
  @DF-RHF Final Energy:  -230.79440845152925
    Total Energy =                       -230.7944084515292502
  Multiplicity = 1
  @DF-RHF Final Energy:  -477.55568820087865
    Total Energy =                       -477.5556882008786488
	 Singles Energy            =      -0.0000000000000000 [Eh]
	 Same-Spin Energy          =      -0.5305686178618547 [Eh]
	 Opposite-Spin Energy      =      -1.6671748032303446 [Eh]
	 Correlation Energy        =      -2.1977434210921993 [Eh]
	 Total Energy              =    -479.7534316219708330 [Eh]
	 SCS Total Energy          =    -479.7331541707089855 [Eh]
    Molecular point group: c1

    Geometry (in Angstrom), charge = 0, multiplicity = 1:

       Center              X                  Y                   Z               Mass
    ------------   -----------------  -----------------  -----------------  -----------------
         C            1.344860662904     0.847504400344    -1.655068519777    12.000000000000
         H            1.992227662904     1.700000400344    -1.498633519777     1.007825032230
         C            1.895110662904    -0.407191599656    -1.910052519777    12.000000000000
         H            2.969149662904    -0.528529599656    -1.953928519777     1.007825032230
         C            1.060492662904    -1.505160599656    -2.115242519777    12.000000000000
         H            1.486961662904    -2.478231599656    -2.318861519777     1.007825032230
         C           -0.323002337096    -1.347174599656    -2.063250519777    12.000000000000
         H           -0.970955337096    -2.198527599656    -2.222907519777     1.007825032230
         C           -0.873371337096    -0.092697599656    -1.802920519777    12.000000000000
         H           -1.946573337096     0.028240400344    -1.749972519777     1.007825032230
         C           -0.039178337096     1.004735400344    -1.601075519777    12.000000000000
         H           -0.466443337096     1.976993400344    -1.397096519777     1.007825032230
         N           -1.894401337096     0.156282400344     1.757385480223    14.003074004430
         C           -1.279515337096     1.313950400344     2.037449480223    12.000000000000
         H           -1.927119337096     2.167122400344     2.199961480223     1.007825032230
         C            0.102699662904     1.454798400344     2.127620480223    12.000000000000
         H            0.534547662904     2.418448400344     2.358836480223     1.007825032230
         C            0.903650662904     0.337819400344     1.913406480223    12.000000000000
         H            1.981219662904     0.408203400344     1.968241480223     1.007825032230
         C            0.283098662904    -0.870835599656     1.619747480223    12.000000000000
         H            0.858873662904    -1.766457599656     1.435672480223     1.007825032230
         C           -1.107415337096    -0.908873599656     1.554297480223    12.000000000000
         H           -1.616268337096    -1.837327599656     1.325455480223     1.007825032230

  Charge       = 0
  Multiplicity = 1
  Basis Set: AUG-CC-PVQZ
    Blend: AUG-CC-PVQZ
  Basis Set: (AUG-CC-PVQZ AUX)
    Blend: AUG-CC-PVQZ-JKFIT

    Orbital Energies [Eh]
    ---------------------

    Doubly Occupied:

       1A    -15.559282     2A    -11.268869     3A    -11.268132
       4A    -11.252832     5A    -11.235271     6A    -11.233958
       7A    -11.233657     8A    -11.233158     9A    -11.232454
      10A    -11.231878    11A    -11.231160    12A    -11.230113
      13A     -1.250660    14A     -1.148456    15A     -1.083529
      16A     -1.027532    17A     -1.012991    18A     -1.012807
      19A     -0.853516    20A     -0.850043    21A     -0.822544
      22A     -0.822351    23A     -0.716575    24A     -0.708114
      25A     -0.654754    26A     -0.648670    27A     -0.642707
      28A     -0.617485    29A     -0.592663    30A     -0.586744
      31A     -0.586449    32A     -0.571579    33A     -0.540310
      34A     -0.514387    35A     -0.497435    36A     -0.493414
      37A     -0.493346    38A     -0.414969    39A     -0.379595
      40A     -0.345912    41A     -0.334815    42A     -0.329732

  @DF-RHF Final Energy:  -477.58275692055452

   => Energetics <=

    Nuclear Repulsion Energy =            626.7966665308208576
    One-Electron Energy =               -1889.2291424895579439
    Two-Electron Energy =                 784.8497190381825703
    Total Energy =                       -477.5827569205545160

  Dipole Moment: [D]
     X:     2.2209      Y:     0.1258      Z:    -0.0061     Total:     2.2245

  Basis Set: (AUG-CC-PVQZ AUX)
    Blend: AUG-CC-PVQZ-RI
	 Reference Energy          =    -477.5827569205545160 [Eh]
	 Singles Energy            =      -0.0000000000000000 [Eh]
	 Same-Spin Energy          =      -0.5603139430733887 [Eh]
	 Opposite-Spin Energy      =      -1.8684890557489473 [Eh]
	 Correlation Energy        =      -2.4288029988223361 [Eh]
	 Total Energy              =    -480.0115599193768503 [Eh]

	 ================> DF-SCS-MP2 Energies <==================
	-----------------------------------------------------------
	 SCS Same-Spin Scale       =       0.3333333333333333 [-]
	 SCS Opposite-Spin Scale   =       1.2000000000000000 [-]
	 SCS Same-Spin Energy      =      -0.1867713143577962 [Eh]
	 SCS Opposite-Spin Energy  =      -2.2421868668987366 [Eh]
	 SCS Correlation Energy    =      -2.4289581812565326 [Eh]
	 SCS Total Energy          =    -480.0117151018110349 [Eh]
	-----------------------------------------------------------

*** Psi4 exiting successfully. Buy a developer a beer!
