                               Psi4 1.4a2.dev224

  ==> Input File <==

--------------------------------------------------------------------------
#Generated by lconvert.py for cbs job

memory 20 GB

molecule  {
0 1
  C       0.818750    0.864170    0.188290
  H       1.466110    1.716670    0.344720
  C       1.369000   -0.390520   -0.066700
  H       2.443040   -0.511860   -0.110570
  C       0.534380   -1.488490   -0.271890
  H       0.960850   -2.461560   -0.475510
  C      -0.849120   -1.330510   -0.219900
  H      -1.497070   -2.181860   -0.379550
  C      -1.399490   -0.076030    0.040430
  H      -2.472690    0.044910    0.093380
  C      -0.565290    1.021400    0.242280
  H      -0.992560    1.993660    0.446260
--
0 1
  N      -3.230560    0.569460    6.547310
  C      -2.615670    1.727130    6.827370
  H      -3.263270    2.580300    6.989890
  C      -1.233450    1.867970    6.917540
  H      -0.801610    2.831620    7.148760
  C      -0.432500    0.750990    6.703330
  H       0.645070    0.821380    6.758160
  C      -1.053060   -0.457660    6.409670
  H      -0.477280   -1.353280    6.225600
  C      -2.443570   -0.495700    6.344220
  H      -2.952420   -1.424150    6.115380
units angstrom
no_reorient
symmetry c1
}

set {
scf_type DF
mp2_type DF
e_convergence 7
reference rhf
}

energy('mp2/aug-cc-pv[tq]z', bsse_type='cp')
--------------------------------------------------------------------------

    Molecular point group: c1
  Charge       = 0
  Multiplicity = 1
  Basis Set: AUG-CC-PVTZ
    Blend: AUG-CC-PVTZ
  Basis Set: (AUG-CC-PVTZ AUX)
    Blend: AUG-CC-PVTZ-JKFIT
  @DF-RHF Final Energy:  -246.77869123739998
    Total Energy =                       -246.7786912373999826
  Basis Set: (AUG-CC-PVTZ AUX)
    Blend: AUG-CC-PVTZ-RI
	 Reference Energy          =    -246.7786912373999826 [Eh]
	 Singles Energy            =      -0.0000000000000000 [Eh]
	 Same-Spin Energy          =      -0.2687926581919650 [Eh]
	 Opposite-Spin Energy      =      -0.8388125706855365 [Eh]
	 Correlation Energy        =      -1.1076052288775016 [Eh]
	 Total Energy              =    -247.8862964662774857 [Eh]
	 SCS Total Energy          =    -247.8748638749532915 [Eh]
    Molecular point group: c1
  Basis Set: AUG-CC-PVQZ
    Blend: AUG-CC-PVQZ
  Basis Set: (AUG-CC-PVQZ AUX)
    Blend: AUG-CC-PVQZ-JKFIT
  @DF-RHF Final Energy:  -246.79283336350548
    Total Energy =                       -246.7928333635055083
  Basis Set: (AUG-CC-PVQZ AUX)
  @DF-RHF Final Energy:  -246.77870472427233
    Total Energy =                       -246.7787047242723020
  @DF-RHF Final Energy:  -246.79283892560795
    Total Energy =                       -246.7928389256079527
  @DF-RHF Final Energy:  -230.78125365756193
    Total Energy =                       -230.7812536575619333
  @DF-RHF Final Energy:  -230.79441454274561
    Total Energy =                       -230.7944145427456419
  @DF-RHF Final Energy:  -230.78123408347773
    Total Energy =                       -230.7812340834777274
  @DF-RHF Final Energy:  -230.79440831458129
    Total Energy =                       -230.7944083145812897
  Multiplicity = 1
  @DF-RHF Final Energy:  -477.55997494566788
    Total Energy =                       -477.5599749456678182
	 Singles Energy            =      -0.0000000000000000 [Eh]
	 Same-Spin Energy          =      -0.5243935832119415 [Eh]
	 Opposite-Spin Energy      =      -1.6576305252743659 [Eh]
	 Correlation Energy        =      -2.1820241084863072 [Eh]
	 Total Energy              =    -479.7419990541541779 [Eh]
	 SCS Total Energy          =    -479.7239294370677385 [Eh]
    Molecular point group: c1

    Geometry (in Angstrom), charge = 0, multiplicity = 1:

       Center              X                  Y                   Z               Mass
    ------------   -----------------  -----------------  -----------------  -----------------
         C            1.752450140320     0.647992704514    -3.137682031994    12.000000000000
         H            2.399810140320     1.500492704514    -2.981252031994     1.007825032230
         C            2.302700140320    -0.606697295486    -3.392672031994    12.000000000000
         H            3.376740140320    -0.728037295486    -3.436542031994     1.007825032230
         C            1.468080140320    -1.704667295486    -3.597862031994    12.000000000000
         H            1.894550140320    -2.677737295486    -3.801482031994     1.007825032230
         C            0.084580140320    -1.546687295486    -3.545872031994    12.000000000000
         H           -0.563369859680    -2.398037295486    -3.705522031994     1.007825032230
         C           -0.465789859680    -0.292207295486    -3.285542031994    12.000000000000
         H           -1.538989859680    -0.171267295486    -3.232592031994     1.007825032230
         C            0.368410140320     0.805222704514    -3.083692031994    12.000000000000
         H           -0.058859859680     1.777482704514    -2.879712031994     1.007825032230
         N           -2.296859859680     0.353282704514     3.221337968006    14.003074004430
         C           -1.681969859680     1.510952704514     3.501397968006    12.000000000000
         H           -2.329569859680     2.364122704514     3.663917968006     1.007825032230
         C           -0.299749859680     1.651792704514     3.591567968006    12.000000000000
         H            0.132090140320     2.615442704514     3.822787968006     1.007825032230
         C            0.501200140320     0.534812704514     3.377357968006    12.000000000000
         H            1.578770140320     0.605202704514     3.432187968006     1.007825032230
         C           -0.119359859680    -0.673837295486     3.083697968006    12.000000000000
         H            0.456420140320    -1.569457295486     2.899627968006     1.007825032230
         C           -1.509869859680    -0.711877295486     3.018247968006    12.000000000000
         H           -2.018719859680    -1.640327295486     2.789407968006     1.007825032230

  Charge       = 0
  Multiplicity = 1
  Basis Set: AUG-CC-PVQZ
    Blend: AUG-CC-PVQZ
  Basis Set: (AUG-CC-PVQZ AUX)
    Blend: AUG-CC-PVQZ-JKFIT

    Orbital Energies [Eh]
    ---------------------

    Doubly Occupied:

       1A    -15.563737     2A    -11.272850     3A    -11.272582
       4A    -11.257756     5A    -11.239825     6A    -11.239338
       7A    -11.235046     8A    -11.234428     9A    -11.234284
      10A    -11.233180    11A    -11.233127    12A    -11.232419
      13A     -1.254922    14A     -1.149770    15A     -1.088352
      16A     -1.031929    17A     -1.014288    18A     -1.014150
      19A     -0.857956    20A     -0.854314    21A     -0.823760
      22A     -0.823661    23A     -0.720681    24A     -0.709423
      25A     -0.659275    26A     -0.652855    27A     -0.643836
      28A     -0.618919    29A     -0.596826    30A     -0.587921
      31A     -0.587749    32A     -0.575978    33A     -0.539999
      34A     -0.518587    35A     -0.502252    36A     -0.494856
      37A     -0.494544    38A     -0.418774    39A     -0.382784
      40A     -0.346450    41A     -0.336679    42A     -0.336584

  @DF-RHF Final Energy:  -477.58727066491889

   => Energetics <=

    Nuclear Repulsion Energy =            539.6017407497237173
    One-Electron Energy =               -1714.6047096013999180
    Two-Electron Energy =                 697.4156981867572540
    Total Energy =                       -477.5872706649188331

  Dipole Moment: [D]
     X:     2.2892      Y:     0.1434      Z:     0.0909     Total:     2.2955

  Basis Set: (AUG-CC-PVQZ AUX)
    Blend: AUG-CC-PVQZ-RI
	 Reference Energy          =    -477.5872706649188899 [Eh]
	 Singles Energy            =      -0.0000000000000000 [Eh]
	 Same-Spin Energy          =      -0.5543157689373195 [Eh]
	 Opposite-Spin Energy      =      -1.8608478462759130 [Eh]
	 Correlation Energy        =      -2.4151636152132325 [Eh]
	 Total Energy              =    -480.0024342801321495 [Eh]

	 ================> DF-SCS-MP2 Energies <==================
	-----------------------------------------------------------
	 SCS Same-Spin Scale       =       0.3333333333333333 [-]
	 SCS Opposite-Spin Scale   =       1.2000000000000000 [-]
	 SCS Same-Spin Energy      =      -0.1847719229791065 [Eh]
	 SCS Opposite-Spin Energy  =      -2.2330174155310956 [Eh]
	 SCS Correlation Energy    =      -2.4177893385102021 [Eh]
	 SCS Total Energy          =    -480.0050600034290937 [Eh]
	-----------------------------------------------------------

*** Psi4 exiting successfully. Buy a developer a beer!
