                               Psi4 1.4a2.dev224

  ==> Input File <==

--------------------------------------------------------------------------
#Generated by lconvert.py for cbs job

memory 20 GB

molecule  {
0 1
  C       0.818750    0.864170    0.188290
  H       1.466110    1.716670    0.344720
  C       1.369000   -0.390520   -0.066700
  H       2.443040   -0.511860   -0.110570
  C       0.534380   -1.488490   -0.271890
  H       0.960850   -2.461560   -0.475510
  C      -0.849120   -1.330510   -0.219900
  H      -1.497070   -2.181860   -0.379550
  C      -1.399490   -0.076030    0.040430
  H      -2.472690    0.044910    0.093380
  C      -0.565290    1.021400    0.242280
  H      -0.992560    1.993660    0.446260
--
0 1
  N      -2.658420    0.289400    4.466130
  C      -2.043530    1.447070    4.746200
  H      -2.691140    2.300240    4.908710
  C      -0.661320    1.587920    4.836370
  H      -0.229470    2.551570    5.067580
  C       0.139630    0.470940    4.622150
  H       1.217200    0.541320    4.676990
  C      -0.480920   -0.737720    4.328490
  H       0.094850   -1.633340    4.144420
  C      -1.871430   -0.775750    4.263040
  H      -2.380290   -1.704210    4.034200
units angstrom
no_reorient
symmetry c1
}

set {
scf_type DF
mp2_type DF
e_convergence 7
reference rhf
}

energy('mp2/aug-cc-pv[tq]z', bsse_type='cp')
--------------------------------------------------------------------------

    Molecular point group: c1
  Charge       = 0
  Multiplicity = 1
  Basis Set: AUG-CC-PVTZ
    Blend: AUG-CC-PVTZ
  Basis Set: (AUG-CC-PVTZ AUX)
    Blend: AUG-CC-PVTZ-JKFIT
  @DF-RHF Final Energy:  -246.77869148420095
    Total Energy =                       -246.7786914842009764
  Basis Set: (AUG-CC-PVTZ AUX)
    Blend: AUG-CC-PVTZ-RI
	 Reference Energy          =    -246.7786914842009480 [Eh]
	 Singles Energy            =      -0.0000000000000000 [Eh]
	 Same-Spin Energy          =      -0.2687925964945810 [Eh]
	 Opposite-Spin Energy      =      -0.8388123956163229 [Eh]
	 Correlation Energy        =      -1.1076049921109039 [Eh]
	 Total Energy              =    -247.8862964763118555 [Eh]
	 SCS Total Energy          =    -247.8748638911054059 [Eh]
    Molecular point group: c1
  Basis Set: AUG-CC-PVQZ
    Blend: AUG-CC-PVQZ
  Basis Set: (AUG-CC-PVQZ AUX)
    Blend: AUG-CC-PVQZ-JKFIT
  @DF-RHF Final Energy:  -246.79283361402440
    Total Energy =                       -246.7928336140244028
  Basis Set: (AUG-CC-PVQZ AUX)
  @DF-RHF Final Energy:  -246.77877978846965
    Total Energy =                       -246.7787797884696488
  @DF-RHF Final Energy:  -246.79285696985869
    Total Energy =                       -246.7928569698586898
  @DF-RHF Final Energy:  -230.78133153472038
    Total Energy =                       -230.7813315347203798
  @DF-RHF Final Energy:  -230.79443299532923
    Total Energy =                       -230.7944329953292595
  @DF-RHF Final Energy:  -230.78123408599774
    Total Energy =                       -230.7812340859977667
  @DF-RHF Final Energy:  -230.79440831645533
    Total Energy =                       -230.7944083164553604
  Multiplicity = 1
  @DF-RHF Final Energy:  -477.55968651826777
    Total Energy =                       -477.5596865182677675
	 Singles Energy            =      -0.0000000000000000 [Eh]
	 Same-Spin Energy          =      -0.5262246836018259 [Eh]
	 Opposite-Spin Energy      =      -1.6606651597334792 [Eh]
	 Correlation Energy        =      -2.1868898433353050 [Eh]
	 Total Energy              =    -479.7465763616030472 [Eh]
	 SCS Total Energy          =    -479.7278929378152270 [Eh]
    Molecular point group: c1

    Geometry (in Angstrom), charge = 0, multiplicity = 1:

       Center              X                  Y                   Z               Mass
    ------------   -----------------  -----------------  -----------------  -----------------
         C            1.464569508831     0.788907518239    -2.090500895343    12.000000000000
         H            2.111929508831     1.641407518239    -1.934070895343     1.007825032230
         C            2.014819508831    -0.465782481761    -2.345490895343    12.000000000000
         H            3.088859508831    -0.587122481761    -2.389360895343     1.007825032230
         C            1.180199508831    -1.563752481761    -2.550680895343    12.000000000000
         H            1.606669508831    -2.536822481761    -2.754300895343     1.007825032230
         C           -0.203300491169    -1.405772481761    -2.498690895343    12.000000000000
         H           -0.851250491169    -2.257122481761    -2.658340895343     1.007825032230
         C           -0.753670491169    -0.151292481761    -2.238360895343    12.000000000000
         H           -1.826870491169    -0.030352481761    -2.185410895343     1.007825032230
         C            0.080529508831     0.946137518239    -2.036510895343    12.000000000000
         H           -0.346740491169     1.918397518239    -1.832530895343     1.007825032230
         N           -2.012600491169     0.214137518239     2.187339104657    14.003074004430
         C           -1.397710491169     1.371807518239     2.467409104657    12.000000000000
         H           -2.045320491169     2.224977518239     2.629919104657     1.007825032230
         C           -0.015500491169     1.512657518239     2.557579104657    12.000000000000
         H            0.416349508831     2.476307518239     2.788789104657     1.007825032230
         C            0.785449508831     0.395677518239     2.343359104657    12.000000000000
         H            1.863019508831     0.466057518239     2.398199104657     1.007825032230
         C            0.164899508831    -0.812982481761     2.049699104657    12.000000000000
         H            0.740669508831    -1.708602481761     1.865629104657     1.007825032230
         C           -1.225610491169    -0.851012481761     1.984249104657    12.000000000000
         H           -1.734470491169    -1.779472481761     1.755409104657     1.007825032230

  Charge       = 0
  Multiplicity = 1
  Basis Set: AUG-CC-PVQZ
    Blend: AUG-CC-PVQZ
  Basis Set: (AUG-CC-PVQZ AUX)
    Blend: AUG-CC-PVQZ-JKFIT

    Orbital Energies [Eh]
    ---------------------

    Doubly Occupied:

       1A    -15.561568     2A    -11.270755     3A    -11.270122
       4A    -11.255139     5A    -11.237610     6A    -11.236468
       7A    -11.234540     8A    -11.233804     9A    -11.233365
      10A    -11.232586    11A    -11.232259    12A    -11.231327
      13A     -1.252629    14A     -1.149001    15A     -1.085748
      16A     -1.029497    17A     -1.013519    18A     -1.013412
      19A     -0.855506    20A     -0.851977    21A     -0.823040
      22A     -0.822913    23A     -0.718346    24A     -0.708695
      25A     -0.656865    26A     -0.650512    27A     -0.643139
      28A     -0.618162    29A     -0.594500    30A     -0.587170
      31A     -0.587047    32A     -0.573580    33A     -0.537923
      34A     -0.516278    35A     -0.501268    36A     -0.494039
      37A     -0.493903    38A     -0.416739    39A     -0.380292
      40A     -0.344330    41A     -0.335796    42A     -0.335344

  @DF-RHF Final Energy:  -477.58686722056837

   => Energetics <=

    Nuclear Repulsion Energy =            591.7636539915829417
    One-Electron Energy =               -1819.0596047433082276
    Two-Electron Energy =                 749.7090835311569208
    Total Energy =                       -477.5868672205683652

  Dipole Moment: [D]
     X:     2.2522      Y:     0.1343      Z:     0.0387     Total:     2.2565

  Basis Set: (AUG-CC-PVQZ AUX)
    Blend: AUG-CC-PVQZ-RI
	 Reference Energy          =    -477.5868672205683652 [Eh]
	 Singles Energy            =      -0.0000000000000000 [Eh]
	 Same-Spin Energy          =      -0.5560542201754549 [Eh]
	 Opposite-Spin Energy      =      -1.8630816740851022 [Eh]
	 Correlation Energy        =      -2.4191358942605570 [Eh]
	 Total Energy              =    -480.0060031148288999 [Eh]

	 ================> DF-SCS-MP2 Energies <==================
	-----------------------------------------------------------
	 SCS Same-Spin Scale       =       0.3333333333333333 [-]
	 SCS Opposite-Spin Scale   =       1.2000000000000000 [-]
	 SCS Same-Spin Energy      =      -0.1853514067251516 [Eh]
	 SCS Opposite-Spin Energy  =      -2.2356980089021223 [Eh]
	 SCS Correlation Energy    =      -2.4210494156272739 [Eh]
	 SCS Total Energy          =    -480.0079166361956595 [Eh]
	-----------------------------------------------------------

*** Psi4 exiting successfully. Buy a developer a beer!
