                               Psi4 1.4a2.dev224

  ==> Input File <==

--------------------------------------------------------------------------
#Generated by lconvert.py for cbs job

memory 40 GB

molecule  {
0 1
  C        0.8187470     0.8641720     0.1882860
  H        1.4661140     1.7166680     0.3447210
  C        1.3689970    -0.3905240    -0.0666980
  H        2.4430360    -0.5118620    -0.1105740
  C        0.5343790    -1.4884930    -0.2718880
  H        0.9608480    -2.4615640    -0.4755070
  C       -0.8491160    -1.3305070    -0.2198960
  H       -1.4970690    -2.1818600    -0.3795530
  C       -1.3994850    -0.0760300     0.0404340
  H       -2.4726870     0.0449080     0.0933820
  C       -0.5652920     1.0214030     0.2422790
  H       -0.9925570     1.9936610     0.4462580
--
0 1
  N       -2.2759070     0.1021670     3.0747210
  C       -1.6610210     1.2598340     3.3547850
  H       -2.3086250     2.1130060     3.5172970
  C       -0.2788060     1.4006820     3.4449560
  H        0.1530430     2.3643320     3.6761720
  C        0.5221450     0.2837030     3.2307420
  H        1.5997140     0.3540870     3.2855770
  C       -0.0984070    -0.9249520     2.9370830
  H        0.4773680    -1.8205740     2.7530080
  C       -1.4889210    -0.9629900     2.8716330
  H       -1.9977740    -1.8914430     2.6427910
units angstrom
no_reorient
symmetry c1
}

set {
scf_type DF
mp2_type DF
e_convergence 7
reference rhf
}

energy('mp2/aug-cc-pv[tq]z', bsse_type='cp')
--------------------------------------------------------------------------

    Molecular point group: c1
  Charge       = 0
  Multiplicity = 1
  Basis Set: AUG-CC-PVTZ
    Blend: AUG-CC-PVTZ
  Basis Set: (AUG-CC-PVTZ AUX)
    Blend: AUG-CC-PVTZ-JKFIT
  @DF-RHF Final Energy:  -246.77869156745669
    Total Energy =                       -246.7786915674566899
  Basis Set: (AUG-CC-PVTZ AUX)
    Blend: AUG-CC-PVTZ-RI
	 Reference Energy          =    -246.7786915674566899 [Eh]
	 Singles Energy            =      -0.0000000000000000 [Eh]
	 Same-Spin Energy          =      -0.2687925905541017 [Eh]
	 Opposite-Spin Energy      =      -0.8388123495982190 [Eh]
	 Correlation Energy        =      -1.1076049401523207 [Eh]
	 Total Energy              =    -247.8862965076090177 [Eh]
	 SCS Total Energy          =    -247.8748639171592458 [Eh]
    Molecular point group: c1
  Basis Set: AUG-CC-PVQZ
    Blend: AUG-CC-PVQZ
  Basis Set: (AUG-CC-PVQZ AUX)
    Blend: AUG-CC-PVQZ-JKFIT
  @DF-RHF Final Energy:  -246.79283370047796
    Total Energy =                       -246.7928337004779564
  Basis Set: (AUG-CC-PVQZ AUX)
  @DF-RHF Final Energy:  -246.77893732907111
    Total Energy =                       -246.7789373290711410
  @DF-RHF Final Energy:  -246.79290022680078
    Total Energy =                       -246.7929002268007821
  @DF-RHF Final Energy:  -230.78149878987341
    Total Energy =                       -230.7814987898734103
  @DF-RHF Final Energy:  -230.79447564499318
    Total Energy =                       -230.7944756449931560
  @DF-RHF Final Energy:  -230.78123421531217
    Total Energy =                       -230.7812342153121676
  @DF-RHF Final Energy:  -230.79440845396886
    Total Energy =                       -230.7944084539688561
  Multiplicity = 1
  @DF-RHF Final Energy:  -477.53956562530408
    Total Energy =                       -477.5395656253041352
	 Singles Energy            =      -0.0000000000000000 [Eh]
	 Same-Spin Energy          =      -0.5376722176041659 [Eh]
	 Opposite-Spin Energy      =      -1.6777324116131871 [Eh]
	 Correlation Energy        =      -2.2154046292173533 [Eh]
	 Total Energy              =    -479.7549702545214245 [Eh]
	 SCS Total Energy          =    -479.7320685917746346 [Eh]
    Molecular point group: c1

    Geometry (in Angstrom), charge = 0, multiplicity = 1:

       Center              X                  Y                   Z               Mass
    ------------   -----------------  -----------------  -----------------  -----------------
         C            1.272098569587     0.883120533207    -1.390392705231    12.000000000000
         H            1.919465569587     1.735616533207    -1.233957705231     1.007825032230
         C            1.822348569587    -0.371575466793    -1.645376705231    12.000000000000
         H            2.896387569587    -0.492913466793    -1.689252705231     1.007825032230
         C            0.987730569587    -1.469544466793    -1.850566705231    12.000000000000
         H            1.414199569587    -2.442615466793    -2.054185705231     1.007825032230
         C           -0.395764430413    -1.311558466793    -1.798574705231    12.000000000000
         H           -1.043717430413    -2.162911466793    -1.958231705231     1.007825032230
         C           -0.946133430413    -0.057081466793    -1.538244705231    12.000000000000
         H           -2.019335430413     0.063856533207    -1.485296705231     1.007825032230
         C           -0.111940430413     1.040351533207    -1.336399705231    12.000000000000
         H           -0.539205430413     2.012609533207    -1.132420705231     1.007825032230
         N           -1.822555430413     0.121115533207     1.496042294769    14.003074004430
         C           -1.207669430413     1.278782533207     1.776106294769    12.000000000000
         H           -1.855273430413     2.131954533207     1.938618294769     1.007825032230
         C            0.174545569587     1.419630533207     1.866277294769    12.000000000000
         H            0.606394569587     2.383280533207     2.097493294769     1.007825032230
         C            0.975496569587     0.302651533207     1.652063294769    12.000000000000
         H            2.053065569587     0.373035533207     1.706898294769     1.007825032230
         C            0.354944569587    -0.906003466793     1.358404294769    12.000000000000
         H            0.930719569587    -1.801625466793     1.174329294769     1.007825032230
         C           -1.035569430413    -0.944041466793     1.292954294769    12.000000000000
         H           -1.544422430413    -1.872494466793     1.064112294769     1.007825032230

  Charge       = 0
  Multiplicity = 1
  Basis Set: AUG-CC-PVQZ
    Blend: AUG-CC-PVQZ
  Basis Set: (AUG-CC-PVQZ AUX)
    Blend: AUG-CC-PVQZ-JKFIT

    Orbital Energies [Eh]
    ---------------------

    Doubly Occupied:

       1A    -15.555844     2A    -11.266994     3A    -11.266482
       4A    -11.251175     5A    -11.232735     6A    -11.232153
       7A    -11.232108     8A    -11.231185     9A    -11.231081
      10A    -11.230622    11A    -11.229933    12A    -11.229004
      13A     -1.249157    14A     -1.148567    15A     -1.082050
      16A     -1.026856    17A     -1.012697    18A     -1.012357
      19A     -0.852319    20A     -0.848705    21A     -0.822456
      22A     -0.822153    23A     -0.716189    24A     -0.707348
      25A     -0.652995    26A     -0.647683    27A     -0.642605
      28A     -0.616951    29A     -0.591796    30A     -0.586732
      31A     -0.586304    32A     -0.569972    33A     -0.550850
      34A     -0.513027    35A     -0.493308    36A     -0.492870
      37A     -0.487011    38A     -0.413104    39A     -0.384160
      40A     -0.349821    41A     -0.331956    42A     -0.318038

  @DF-RHF Final Energy:  -477.56652008226456

   => Energetics <=

    Nuclear Repulsion Energy =            654.6502377654879865
    One-Electron Energy =               -1944.9948130931836658
    Two-Electron Energy =                 812.7780552454310055
    Total Energy =                       -477.5665200822645602

  Dipole Moment: [D]
     X:     2.1874      Y:     0.1136      Z:    -0.0347     Total:     2.1906

  Basis Set: (AUG-CC-PVQZ AUX)
    Blend: AUG-CC-PVQZ-RI
	 Reference Energy          =    -477.5665200822645602 [Eh]
	 Singles Energy            =      -0.0000000000000000 [Eh]
	 Same-Spin Energy          =      -0.5673255276650644 [Eh]
	 Opposite-Spin Energy      =      -1.8776150145802943 [Eh]
	 Correlation Energy        =      -2.4449405422453587 [Eh]
	 Total Energy              =    -480.0114606245099367 [Eh]

	 ================> DF-SCS-MP2 Energies <==================
	-----------------------------------------------------------
	 SCS Same-Spin Scale       =       0.3333333333333333 [-]
	 SCS Opposite-Spin Scale   =       1.2000000000000000 [-]
	 SCS Same-Spin Energy      =      -0.1891085092216881 [Eh]
	 SCS Opposite-Spin Energy  =      -2.2531380174963531 [Eh]
	 SCS Correlation Energy    =      -2.4422465267180411 [Eh]
	 SCS Total Energy          =    -480.0087666089826257 [Eh]
	-----------------------------------------------------------

*** Psi4 exiting successfully. Buy a developer a beer!
