                               Psi4 1.4a2.dev224

  ==> Input File <==

--------------------------------------------------------------------------
#Generated by lconvert.py for cbs job

memory 40 GB

molecule  {
0 1
  C        0.8187470     0.8641720     0.1882860
  H        1.4661140     1.7166680     0.3447210
  C        1.3689970    -0.3905240    -0.0666980
  H        2.4430360    -0.5118620    -0.1105740
  C        0.5343790    -1.4884930    -0.2718880
  H        0.9608480    -2.4615640    -0.4755070
  C       -0.8491160    -1.3305070    -0.2198960
  H       -1.4970690    -2.1818600    -0.3795530
  C       -1.3994850    -0.0760300     0.0404340
  H       -2.4726870     0.0449080     0.0933820
  C       -0.5652920     1.0214030     0.2422790
  H       -0.9925570     1.9936610     0.4462580
--
0 1
  N       -2.0817000     0.0071050     2.3682840
  C       -1.4668140     1.1647730     2.6483480
  H       -2.1144180     2.0179440     2.8108600
  C       -0.0845990     1.3056200     2.7385190
  H        0.3472500     2.2692710     2.9697350
  C        0.7163520     0.1886410     2.5243050
  H        1.7939220     0.2590250     2.5791390
  C        0.0958000    -1.0200140     2.2306450
  H        0.6715750    -1.9156360     2.0465700
  C       -1.2947140    -1.0580520     2.1651960
  H       -1.8035670    -1.9865050     1.9363530
units angstrom
no_reorient
symmetry c1
}

set {
scf_type DF
mp2_type DF
e_convergence 7
reference rhf
}

energy('mp2/aug-cc-pv[tq]z', bsse_type='cp')
--------------------------------------------------------------------------

    Molecular point group: c1
  Charge       = 0
  Multiplicity = 1
  Basis Set: AUG-CC-PVTZ
    Blend: AUG-CC-PVTZ
  Basis Set: (AUG-CC-PVTZ AUX)
    Blend: AUG-CC-PVTZ-JKFIT
  @DF-RHF Final Energy:  -246.77869151108828
    Total Energy =                       -246.7786915110882546
  Basis Set: (AUG-CC-PVTZ AUX)
    Blend: AUG-CC-PVTZ-RI
	 Reference Energy          =    -246.7786915110882831 [Eh]
	 Singles Energy            =      -0.0000000000000000 [Eh]
	 Same-Spin Energy          =      -0.2687925996437437 [Eh]
	 Opposite-Spin Energy      =      -0.8388123837238773 [Eh]
	 Correlation Energy        =      -1.1076049833676211 [Eh]
	 Total Energy              =    -247.8862964944559053 [Eh]
	 SCS Total Energy          =    -247.8748639047715301 [Eh]
    Molecular point group: c1
  Basis Set: AUG-CC-PVQZ
    Blend: AUG-CC-PVQZ
  Basis Set: (AUG-CC-PVQZ AUX)
    Blend: AUG-CC-PVQZ-JKFIT
  @DF-RHF Final Energy:  -246.79283364303620
    Total Energy =                       -246.7928336430362037
  Basis Set: (AUG-CC-PVQZ AUX)
  @DF-RHF Final Energy:  -246.77917521503338
    Total Energy =                       -246.7791752150333764
  @DF-RHF Final Energy:  -246.79294300360590
    Total Energy =                       -246.7929430036058989
  @DF-RHF Final Energy:  -230.78176465117701
    Total Energy =                       -230.7817646511770135
  @DF-RHF Final Energy:  -230.79451578248188
    Total Energy =                       -230.7945157824818807
  @DF-RHF Final Energy:  -230.78123421464440
    Total Energy =                       -230.7812342146443711
  @DF-RHF Final Energy:  -230.79440845197752
    Total Energy =                       -230.7944084519775174
  Multiplicity = 1
  @DF-RHF Final Energy:  -477.41118959623526
    Total Energy =                       -477.4111895962353174
	 Singles Energy            =      -0.0000000000000000 [Eh]
	 Same-Spin Energy          =      -0.5625437546867236 [Eh]
	 Opposite-Spin Energy      =      -1.7147139740083079 [Eh]
	 Correlation Energy        =      -2.2772577286950315 [Eh]
	 Total Energy              =    -479.6884473249302800 [Eh]
	 SCS Total Energy          =    -479.6563609499407903 [Eh]
    Molecular point group: c1

    Geometry (in Angstrom), charge = 0, multiplicity = 1:

       Center              X                  Y                   Z               Mass
    ------------   -----------------  -----------------  -----------------  -----------------
         C            1.174379857354     0.930952586279    -1.034936269804    12.000000000000
         H            1.821746857354     1.783448586279    -0.878501269804     1.007825032230
         C            1.724629857354    -0.323743413721    -1.289920269804    12.000000000000
         H            2.798668857354    -0.445081413721    -1.333796269804     1.007825032230
         C            0.890011857354    -1.421712413721    -1.495110269804    12.000000000000
         H            1.316480857354    -2.394783413721    -1.698729269804     1.007825032230
         C           -0.493483142646    -1.263726413721    -1.443118269804    12.000000000000
         H           -1.141436142646    -2.115079413721    -1.602775269804     1.007825032230
         C           -1.043852142646    -0.009249413721    -1.182788269804    12.000000000000
         H           -2.117054142646     0.111688586279    -1.129840269804     1.007825032230
         C           -0.209659142646     1.088183586279    -0.980943269804    12.000000000000
         H           -0.636924142646     2.060441586279    -0.776964269804     1.007825032230
         N           -1.726067142646     0.073885586279     1.145061730196    14.003074004430
         C           -1.111181142646     1.231553586279     1.425125730196    12.000000000000
         H           -1.758785142646     2.084724586279     1.587637730196     1.007825032230
         C            0.271033857354     1.372400586279     1.515296730196    12.000000000000
         H            0.702882857354     2.336051586279     1.746512730196     1.007825032230
         C            1.071984857354     0.255421586279     1.301082730196    12.000000000000
         H            2.149554857354     0.325805586279     1.355916730196     1.007825032230
         C            0.451432857354    -0.953233413721     1.007422730196    12.000000000000
         H            1.027207857354    -1.848855413721     0.823347730196     1.007825032230
         C           -0.939081142646    -0.991271413721     0.941973730196    12.000000000000
         H           -1.447934142646    -1.919724413721     0.713130730196     1.007825032230

  Charge       = 0
  Multiplicity = 1
  Basis Set: AUG-CC-PVQZ
    Blend: AUG-CC-PVQZ
  Basis Set: (AUG-CC-PVQZ AUX)
    Blend: AUG-CC-PVQZ-JKFIT

    Orbital Energies [Eh]
    ---------------------

    Doubly Occupied:

       1A    -15.540979     2A    -11.271797     3A    -11.256970
       4A    -11.253089     5A    -11.235617     6A    -11.234373
       7A    -11.230858     8A    -11.230780     9A    -11.228147
      10A    -11.223642    11A    -11.222394    12A    -11.222133
      13A     -1.254221    14A     -1.155302    15A     -1.085407
      16A     -1.042340    17A     -1.016908    18A     -1.004469
      19A     -0.857943    20A     -0.853594    21A     -0.824608
      22A     -0.822702    23A     -0.728092    24A     -0.702476
      25A     -0.656316    26A     -0.652832    27A     -0.640111
      28A     -0.619869    29A     -0.601313    30A     -0.596693
      31A     -0.589256    32A     -0.579935    33A     -0.565774
      34A     -0.513715    35A     -0.495715    36A     -0.494722
      37A     -0.457264    38A     -0.413296    39A     -0.407271
      40A     -0.353897    41A     -0.305303    42A     -0.278004

  @DF-RHF Final Energy:  -477.43783751859473

   => Energetics <=

    Nuclear Repulsion Energy =            703.5020281864174194
    One-Electron Energy =               -2042.4394597810282903
    Two-Electron Energy =                 861.4995940760161375
    Total Energy =                       -477.4378375185947334

  Dipole Moment: [D]
     X:     2.0627      Y:     0.0506      Z:    -0.0728     Total:     2.0646

  Basis Set: (AUG-CC-PVQZ AUX)
    Blend: AUG-CC-PVQZ-RI
	 Reference Energy          =    -477.4378375185947334 [Eh]
	 Singles Energy            =      -0.0000000000000000 [Eh]
	 Same-Spin Energy          =      -0.5921157168027495 [Eh]
	 Opposite-Spin Energy      =      -1.9107639615633660 [Eh]
	 Correlation Energy        =      -2.5028796783661154 [Eh]
	 Total Energy              =    -479.9407171969608612 [Eh]

	 ================> DF-SCS-MP2 Energies <==================
	-----------------------------------------------------------
	 SCS Same-Spin Scale       =       0.3333333333333333 [-]
	 SCS Opposite-Spin Scale   =       1.2000000000000000 [-]
	 SCS Same-Spin Energy      =      -0.1973719056009165 [Eh]
	 SCS Opposite-Spin Energy  =      -2.2929167538760393 [Eh]
	 SCS Correlation Energy    =      -2.4902886594769558 [Eh]
	 SCS Total Energy          =    -479.9281261780716932 [Eh]
	-----------------------------------------------------------

*** Psi4 exiting successfully. Buy a developer a beer!
