                               Psi4 1.4a2.dev224

  ==> Input File <==

--------------------------------------------------------------------------
#Generated by lconvert.py for cbs job

memory 40 GB

molecule  {
0 1
  C        0.8187470     0.8641720     0.1882860
  H        1.4661140     1.7166680     0.3447210
  C        1.3689970    -0.3905240    -0.0666980
  H        2.4430360    -0.5118620    -0.1105740
  C        0.5343790    -1.4884930    -0.2718880
  H        0.9608480    -2.4615640    -0.4755070
  C       -0.8491160    -1.3305070    -0.2198960
  H       -1.4970690    -2.1818600    -0.3795530
  C       -1.3994850    -0.0760300     0.0404340
  H       -2.4726870     0.0449080     0.0933820
  C       -0.5652920     1.0214030     0.2422790
  H       -0.9925570     1.9936610     0.4462580
--
0 1
  N       -2.3247130     0.1260570     3.2522570
  C       -1.7098280     1.2837250     3.5323210
  H       -2.3574320     2.1368960     3.6948330
  C       -0.3276130     1.4245720     3.6224920
  H        0.1042360     2.3882220     3.8537080
  C        0.4733390     0.3075930     3.4082780
  H        1.5509080     0.3779770     3.4631130
  C       -0.1472130    -0.9010620     3.1146190
  H        0.4285610    -1.7966840     2.9305440
  C       -1.5377270    -0.9391000     3.0491690
  H       -2.0465800    -1.8675530     2.8203260
units angstrom
no_reorient
symmetry c1
}

set {
scf_type DF
mp2_type DF
e_convergence 7
reference rhf
}

energy('mp2/aug-cc-pv[tq]z', bsse_type='cp')
--------------------------------------------------------------------------

    Molecular point group: c1
  Charge       = 0
  Multiplicity = 1
  Basis Set: AUG-CC-PVTZ
    Blend: AUG-CC-PVTZ
  Basis Set: (AUG-CC-PVTZ AUX)
    Blend: AUG-CC-PVTZ-JKFIT
  @DF-RHF Final Energy:  -246.77869154876166
    Total Energy =                       -246.7786915487616852
  Basis Set: (AUG-CC-PVTZ AUX)
    Blend: AUG-CC-PVTZ-RI
	 Reference Energy          =    -246.7786915487616568 [Eh]
	 Singles Energy            =      -0.0000000000000000 [Eh]
	 Same-Spin Energy          =      -0.2687925937411996 [Eh]
	 Opposite-Spin Energy      =      -0.8388123609080482 [Eh]
	 Correlation Energy        =      -1.1076049546492479 [Eh]
	 Total Energy              =    -247.8862965034109038 [Eh]
	 SCS Total Energy          =    -247.8748639130983804 [Eh]
    Molecular point group: c1
  Basis Set: AUG-CC-PVQZ
    Blend: AUG-CC-PVQZ
  Basis Set: (AUG-CC-PVQZ AUX)
    Blend: AUG-CC-PVQZ-JKFIT
  @DF-RHF Final Energy:  -246.79283368424672
    Total Energy =                       -246.7928336842467161
  Basis Set: (AUG-CC-PVQZ AUX)
  @DF-RHF Final Energy:  -246.77890558390692
    Total Energy =                       -246.7789055839069192
  @DF-RHF Final Energy:  -246.79289158317707
    Total Energy =                       -246.7928915831770382
  @DF-RHF Final Energy:  -230.78146243669400
    Total Energy =                       -230.7814624366939711
  @DF-RHF Final Energy:  -230.79446805500100
    Total Energy =                       -230.7944680550010048
  @DF-RHF Final Energy:  -230.78123421451608
    Total Energy =                       -230.7812342145160756
  @DF-RHF Final Energy:  -230.79440845420515
    Total Energy =                       -230.7944084542051542
  Multiplicity = 1
  @DF-RHF Final Energy:  -477.54784536080081
    Total Energy =                       -477.5478453608008067
	 Singles Energy            =      -0.0000000000000000 [Eh]
	 Same-Spin Energy          =      -0.5346253515806303 [Eh]
	 Opposite-Spin Energy      =      -1.6731812840063227 [Eh]
	 Correlation Energy        =      -2.2078066355869530 [Eh]
	 Total Energy              =    -479.7556519963877690 [Eh]
	 SCS Total Energy          =    -479.7338713521352815 [Eh]
    Molecular point group: c1

    Geometry (in Angstrom), charge = 0, multiplicity = 1:

       Center              X                  Y                   Z               Mass
    ------------   -----------------  -----------------  -----------------  -----------------
         C            1.296656348477     0.871099778459    -1.479723094507    12.000000000000
         H            1.944023348477     1.723595778459    -1.323288094507     1.007825032230
         C            1.846906348477    -0.383596221541    -1.734707094507    12.000000000000
         H            2.920945348477    -0.504934221541    -1.778583094507     1.007825032230
         C            1.012288348477    -1.481565221541    -1.939897094507    12.000000000000
         H            1.438757348477    -2.454636221541    -2.143516094507     1.007825032230
         C           -0.371206651523    -1.323579221541    -1.887905094507    12.000000000000
         H           -1.019159651523    -2.174932221541    -2.047562094507     1.007825032230
         C           -0.921575651523    -0.069102221541    -1.627575094507    12.000000000000
         H           -1.994777651523     0.051835778459    -1.574627094507     1.007825032230
         C           -0.087382651523     1.028330778459    -1.425730094507    12.000000000000
         H           -0.514647651523     2.000588778459    -1.221751094507     1.007825032230
         N           -1.846803651523     0.132984778459     1.584247905493    14.003074004430
         C           -1.231918651523     1.290652778459     1.864311905493    12.000000000000
         H           -1.879522651523     2.143823778459     2.026823905493     1.007825032230
         C            0.150296348477     1.431499778459     1.954482905493    12.000000000000
         H            0.582145348477     2.395149778459     2.185698905493     1.007825032230
         C            0.951248348477     0.314520778459     1.740268905493    12.000000000000
         H            2.028817348477     0.384904778459     1.795103905493     1.007825032230
         C            0.330696348477    -0.894134221541     1.446609905493    12.000000000000
         H            0.906470348477    -1.789756221541     1.262534905493     1.007825032230
         C           -1.059817651523    -0.932172221541     1.381159905493    12.000000000000
         H           -1.568670651523    -1.860625221541     1.152316905493     1.007825032230

  Charge       = 0
  Multiplicity = 1
  Basis Set: AUG-CC-PVQZ
    Blend: AUG-CC-PVQZ
  Basis Set: (AUG-CC-PVQZ AUX)
    Blend: AUG-CC-PVQZ-JKFIT

    Orbital Energies [Eh]
    ---------------------

    Doubly Occupied:

       1A    -15.557357     2A    -11.267501     3A    -11.267281
       4A    -11.251691     5A    -11.233464     6A    -11.233255
       7A    -11.232575     8A    -11.231997     9A    -11.231740
      10A    -11.231151    11A    -11.230396    12A    -11.229378
      13A     -1.249638    14A     -1.148390    15A     -1.082491
      16A     -1.026839    17A     -1.012665    18A     -1.012636
      19A     -0.852646    20A     -0.849111    21A     -0.822414
      22A     -0.822155    23A     -0.716068    24A     -0.707705
      25A     -0.653607    26A     -0.647902    27A     -0.642607
      28A     -0.617107    29A     -0.591947    30A     -0.586644
      31A     -0.586283    32A     -0.570541    33A     -0.545953
      34A     -0.513465    35A     -0.493439    36A     -0.493005
      37A     -0.491567    38A     -0.413845    39A     -0.381569
      40A     -0.348264    41A     -0.333543    42A     -0.323123

  @DF-RHF Final Energy:  -477.57484463937806

   => Energetics <=

    Nuclear Repulsion Energy =            644.5677008679098208
    One-Electron Energy =               -1924.8151807818242105
    Two-Electron Energy =                 802.6726352745364466
    Total Energy =                       -477.5748446393780569

  Dipole Moment: [D]
     X:     2.2010      Y:     0.1189      Z:    -0.0254     Total:     2.2043

  Basis Set: (AUG-CC-PVQZ AUX)
    Blend: AUG-CC-PVQZ-RI
	 Reference Energy          =    -477.5748446393780569 [Eh]
	 Singles Energy            =      -0.0000000000000000 [Eh]
	 Same-Spin Energy          =      -0.5643163881803390 [Eh]
	 Opposite-Spin Energy      =      -1.8736780380632385 [Eh]
	 Correlation Energy        =      -2.4379944262435775 [Eh]
	 Total Energy              =    -480.0128390656216197 [Eh]

	 ================> DF-SCS-MP2 Energies <==================
	-----------------------------------------------------------
	 SCS Same-Spin Scale       =       0.3333333333333333 [-]
	 SCS Opposite-Spin Scale   =       1.2000000000000000 [-]
	 SCS Same-Spin Energy      =      -0.1881054627267797 [Eh]
	 SCS Opposite-Spin Energy  =      -2.2484136456758863 [Eh]
	 SCS Correlation Energy    =      -2.4365191084026661 [Eh]
	 SCS Total Energy          =    -480.0113637477807060 [Eh]
	-----------------------------------------------------------

*** Psi4 exiting successfully. Buy a developer a beer!
