                               Psi4 1.4a2.dev224

  ==> Input File <==

--------------------------------------------------------------------------
#Generated by lconvert.py for cbs job

memory 40 GB

molecule  {
0 1
  C        0.8187470     0.8641720     0.1882860
  H        1.4661140     1.7166680     0.3447210
  C        1.3689970    -0.3905240    -0.0666980
  H        2.4430360    -0.5118620    -0.1105740
  C        0.5343790    -1.4884930    -0.2718880
  H        0.9608480    -2.4615640    -0.4755070
  C       -0.8491160    -1.3305070    -0.2198960
  H       -1.4970690    -2.1818600    -0.3795530
  C       -1.3994850    -0.0760300     0.0404340
  H       -2.4726870     0.0449080     0.0933820
  C       -0.5652920     1.0214030     0.2422790
  H       -0.9925570     1.9936610     0.4462580
--
0 1
  N       -2.1770560     0.0537810     2.7151470
  C       -1.5621700     1.2114480     2.9952110
  H       -2.2097740     2.0646200     3.1577230
  C       -0.1799550     1.3522960     3.0853820
  H        0.2518930     2.3159460     3.3165980
  C        0.6209960     0.2353170     2.8711680
  H        1.6985650     0.3057010     2.9260030
  C        0.0004440    -0.9733380     2.5775090
  H        0.5762190    -1.8689600     2.3934340
  C       -1.3900700    -1.0113760     2.5120590
  H       -1.8989230    -1.9398300     2.2832160
units angstrom
no_reorient
symmetry c1
}

set {
scf_type DF
mp2_type DF
e_convergence 7
reference rhf
}

energy('mp2/aug-cc-pv[tq]z', bsse_type='cp')
--------------------------------------------------------------------------

    Molecular point group: c1
  Charge       = 0
  Multiplicity = 1
  Basis Set: AUG-CC-PVTZ
    Blend: AUG-CC-PVTZ
  Basis Set: (AUG-CC-PVTZ AUX)
    Blend: AUG-CC-PVTZ-JKFIT
  @DF-RHF Final Energy:  -246.77869155775184
    Total Energy =                       -246.7786915577518130
  Basis Set: (AUG-CC-PVTZ AUX)
    Blend: AUG-CC-PVTZ-RI
	 Reference Energy          =    -246.7786915577518414 [Eh]
	 Singles Energy            =      -0.0000000000000000 [Eh]
	 Same-Spin Energy          =      -0.2687925920860319 [Eh]
	 Opposite-Spin Energy      =      -0.8388123547991407 [Eh]
	 Correlation Energy        =      -1.1076049468851727 [Eh]
	 Total Energy              =    -247.8862965046370164 [Eh]
	 SCS Total Energy          =    -247.8748639142061450 [Eh]
    Molecular point group: c1
  Basis Set: AUG-CC-PVQZ
    Blend: AUG-CC-PVQZ
  Basis Set: (AUG-CC-PVQZ AUX)
    Blend: AUG-CC-PVQZ-JKFIT
  @DF-RHF Final Energy:  -246.79283369347377
    Total Energy =                       -246.7928336934737672
  Basis Set: (AUG-CC-PVQZ AUX)
  @DF-RHF Final Energy:  -246.77903204378916
    Total Energy =                       -246.7790320437891864
  @DF-RHF Final Energy:  -246.79292023670760
    Total Energy =                       -246.7929202367076300
  @DF-RHF Final Energy:  -230.78160863697107
    Total Energy =                       -230.7816086369711002
  @DF-RHF Final Energy:  -230.79449515444773
    Total Energy =                       -230.7944951544477021
  @DF-RHF Final Energy:  -230.78123421611406
    Total Energy =                       -230.7812342161140577
  @DF-RHF Final Energy:  -230.79440845102664
    Total Energy =                       -230.7944084510266407
  Multiplicity = 1
  @DF-RHF Final Energy:  -477.50280157867547
    Total Energy =                       -477.5028015786754167
	 Singles Energy            =      -0.0000000000000000 [Eh]
	 Same-Spin Energy          =      -0.5470299234385856 [Eh]
	 Opposite-Spin Energy      =      -1.6917631878140924 [Eh]
	 Correlation Energy        =      -2.2387931112526780 [Eh]
	 Total Energy              =    -479.7415946899281494 [Eh]
	 SCS Total Energy          =    -479.7152607118652554 [Eh]
    Molecular point group: c1

    Geometry (in Angstrom), charge = 0, multiplicity = 1:

       Center              X                  Y                   Z               Mass
    ------------   -----------------  -----------------  -----------------  -----------------
         C            1.222359937392     0.907466816017    -1.209466646070    12.000000000000
         H            1.869726937392     1.759962816017    -1.053031646070     1.007825032230
         C            1.772609937392    -0.347229183983    -1.464450646070    12.000000000000
         H            2.846648937392    -0.468567183983    -1.508326646070     1.007825032230
         C            0.937991937392    -1.445198183983    -1.669640646070    12.000000000000
         H            1.364460937392    -2.418269183983    -1.873259646070     1.007825032230
         C           -0.445503062608    -1.287212183983    -1.617648646070    12.000000000000
         H           -1.093456062608    -2.138565183983    -1.777305646070     1.007825032230
         C           -0.995872062608    -0.032735183983    -1.357318646070    12.000000000000
         H           -2.069074062608     0.088202816017    -1.304370646070     1.007825032230
         C           -0.161679062608     1.064697816017    -1.155473646070    12.000000000000
         H           -0.588944062608     2.036955816017    -0.951494646070     1.007825032230
         N           -1.773443062608     0.097075816017     1.317394353930    14.003074004430
         C           -1.158557062608     1.254742816017     1.597458353930    12.000000000000
         H           -1.806161062608     2.107914816017     1.759970353930     1.007825032230
         C            0.223657937392     1.395590816017     1.687629353930    12.000000000000
         H            0.655505937392     2.359240816017     1.918845353930     1.007825032230
         C            1.024608937392     0.278611816017     1.473415353930    12.000000000000
         H            2.102177937392     0.348995816017     1.528250353930     1.007825032230
         C            0.404056937392    -0.930043183983     1.179756353930    12.000000000000
         H            0.979831937392    -1.825665183983     0.995681353930     1.007825032230
         C           -0.986457062608    -0.968081183983     1.114306353930    12.000000000000
         H           -1.495310062608    -1.896535183983     0.885463353930     1.007825032230

  Charge       = 0
  Multiplicity = 1
  Basis Set: AUG-CC-PVQZ
    Blend: AUG-CC-PVQZ
  Basis Set: (AUG-CC-PVQZ AUX)
    Blend: AUG-CC-PVQZ-JKFIT

    Orbital Energies [Eh]
    ---------------------

    Doubly Occupied:

       1A    -15.550734     2A    -11.267482     3A    -11.263168
       4A    -11.250853     5A    -11.232453     6A    -11.231082
       7A    -11.229689     8A    -11.229608     9A    -11.228804
      10A    -11.228670    11A    -11.228210    12A    -11.227923
      13A     -1.249074    14A     -1.150180    15A     -1.081950
      16A     -1.029808    17A     -1.013717    18A     -1.010436
      19A     -0.852636    20A     -0.848787    21A     -0.823085
      22A     -0.822641    23A     -0.718777    24A     -0.705797
      25A     -0.652040    26A     -0.648916    27A     -0.642306
      28A     -0.617172    29A     -0.593213    30A     -0.588155
      31A     -0.586681    32A     -0.569019    33A     -0.565120
      34A     -0.512551    35A     -0.493731    36A     -0.493000
      37A     -0.473202    38A     -0.411026    39A     -0.394893
      40A     -0.353576    41A     -0.323955    42A     -0.302515

  @DF-RHF Final Energy:  -477.52963677585353

   => Energetics <=

    Nuclear Repulsion Energy =            677.5835084671696222
    One-Electron Energy =               -1990.8330091788623122
    Two-Electron Energy =                 835.7198639358391574
    Total Energy =                       -477.5296367758535325

  Dipole Moment: [D]
     X:     2.1456      Y:     0.0950      Z:    -0.0521     Total:     2.1483

  Basis Set: (AUG-CC-PVQZ AUX)
    Blend: AUG-CC-PVQZ-RI
	 Reference Energy          =    -477.5296367758535325 [Eh]
	 Singles Energy            =      -0.0000000000000000 [Eh]
	 Same-Spin Energy          =      -0.5766115745679850 [Eh]
	 Opposite-Spin Energy      =      -1.8899919901265299 [Eh]
	 Correlation Energy        =      -2.4666035646945148 [Eh]
	 Total Energy              =    -479.9962403405480700 [Eh]

	 ================> DF-SCS-MP2 Energies <==================
	-----------------------------------------------------------
	 SCS Same-Spin Scale       =       0.3333333333333333 [-]
	 SCS Opposite-Spin Scale   =       1.2000000000000000 [-]
	 SCS Same-Spin Energy      =      -0.1922038581893283 [Eh]
	 SCS Opposite-Spin Energy  =      -2.2679903881518357 [Eh]
	 SCS Correlation Energy    =      -2.4601942463411639 [Eh]
	 SCS Total Energy          =    -479.9898310221947213 [Eh]
	-----------------------------------------------------------

*** Psi4 exiting successfully. Buy a developer a beer!
