                               Psi4 1.4a2.dev224

  ==> Input File <==

--------------------------------------------------------------------------
#Generated by lconvert.py for cbs job

memory 40 GB

molecule  {
0 1
  C        0.8257690     1.2365250    -0.0402500
  H        1.5210130     2.0631250    -0.0824710
  C        1.3001600    -0.0629410     0.1272560
  H        2.3636580    -0.2422610     0.2076740
  C        0.4035230    -1.1285520     0.1982450
  H        0.7737530    -2.1374270     0.3241210
  C       -0.9678090    -0.8951900     0.1031400
  H       -1.6652090    -1.7199830     0.1604270
  C       -1.4435080     0.4044830    -0.0624410
  H       -2.5075110     0.5855010    -0.1241500
  C       -0.5457550     1.4687690    -0.1362470
  H       -0.9142220     2.4774220    -0.2678550
--
0 1
  N       -0.2641080     0.6413070     3.5030380
  H       -0.6374150     1.5430690     3.2401450
  C        1.1280390     0.5683210     3.6350510
  O        1.8189490     1.5627440     3.4902170
  C        1.6069390    -0.7657570     3.9531610
  H        2.6639910    -0.9179730     4.0872820
  C        0.7272290    -1.7801380     4.0793780
  H        1.0331570    -2.7885590     4.3159020
  N       -0.6180160    -1.5951060     3.9092850
  H       -1.2667640    -2.3576650     4.0081550
  C       -1.1924650    -0.3703050     3.6098710
  O       -2.3902530    -0.2194820     3.4677590
units angstrom
no_reorient
symmetry c1
}

set {
scf_type DF
mp2_type DF
e_convergence 7
reference rhf
}

energy('mp2/aug-cc-pv[tq]z', bsse_type='cp')
--------------------------------------------------------------------------

    Molecular point group: c1
  Charge       = 0
  Multiplicity = 1
  Basis Set: AUG-CC-PVTZ
    Blend: AUG-CC-PVTZ
  Basis Set: (AUG-CC-PVTZ AUX)
    Blend: AUG-CC-PVTZ-JKFIT
  @DF-RHF Final Energy:  -412.62454293126814
    Total Energy =                       -412.6245429312681381
  Basis Set: (AUG-CC-PVTZ AUX)
    Blend: AUG-CC-PVTZ-RI
	 Reference Energy          =    -412.6245429312681381 [Eh]
	 Singles Energy            =      -0.0000000000000000 [Eh]
	 Same-Spin Energy          =      -0.4141316773783023 [Eh]
	 Opposite-Spin Energy      =      -1.2264105703774253 [Eh]
	 Correlation Energy        =      -1.6405422477557274 [Eh]
	 Total Energy              =    -414.2650851790238562 [Eh]
	 SCS Total Energy          =    -414.2342795081804638 [Eh]
    Molecular point group: c1
  Basis Set: AUG-CC-PVQZ
    Blend: AUG-CC-PVQZ
  Basis Set: (AUG-CC-PVQZ AUX)
    Blend: AUG-CC-PVQZ-JKFIT
  @DF-RHF Final Energy:  -412.65007749257001
    Total Energy =                       -412.6500774925700057
  Basis Set: (AUG-CC-PVQZ AUX)
  @DF-RHF Final Energy:  -412.62479853685232
    Total Energy =                       -412.6247985368523246
  @DF-RHF Final Energy:  -412.65014674077997
    Total Energy =                       -412.6501467407799737
  @DF-RHF Final Energy:  -230.78140158620781
    Total Energy =                       -230.7814015862077781
  @DF-RHF Final Energy:  -230.79440749303575
    Total Energy =                       -230.7944074930357488
  @DF-RHF Final Energy:  -230.78118685873835
    Total Energy =                       -230.7811868587383515
  @DF-RHF Final Energy:  -230.79435918985760
    Total Energy =                       -230.7943591898576301
  Multiplicity = 1
  @DF-RHF Final Energy:  -643.40473388321129
    Total Energy =                       -643.4047338832112928
	 Singles Energy            =      -0.0000000000000000 [Eh]
	 Same-Spin Energy          =      -0.6755527890696346 [Eh]
	 Opposite-Spin Energy      =      -2.0548440049602918 [Eh]
	 Correlation Energy        =      -2.7303967940299265 [Eh]
	 Total Energy              =    -646.1351306772412499 [Eh]
	 SCS Total Energy          =    -646.0957309521868410 [Eh]
    Molecular point group: c1

    Geometry (in Angstrom), charge = 0, multiplicity = 1:

       Center              X                  Y                   Z               Mass
    ------------   -----------------  -----------------  -----------------  -----------------
         C            0.815298429931     1.295924291867    -2.232482582615    12.000000000000
         H            1.510542429931     2.122524291867    -2.274703582615     1.007825032230
         C            1.289689429931    -0.003541708133    -2.064976582615    12.000000000000
         H            2.353187429931    -0.182861708133    -1.984558582615     1.007825032230
         C            0.393052429931    -1.069152708133    -1.993987582615    12.000000000000
         H            0.763282429931    -2.078027708133    -1.868111582615     1.007825032230
         C           -0.978279570069    -0.835790708133    -2.089092582615    12.000000000000
         H           -1.675679570069    -1.660583708133    -2.031805582615     1.007825032230
         C           -1.453978570069     0.463882291867    -2.254673582615    12.000000000000
         H           -2.517981570069     0.644900291867    -2.316382582615     1.007825032230
         C           -0.556225570069     1.528168291867    -2.328479582615    12.000000000000
         H           -0.924692570069     2.536821291867    -2.460087582615     1.007825032230
         N           -0.274578570069     0.700706291867     1.310805417385    14.003074004430
         H           -0.647885570069     1.602468291867     1.047912417385     1.007825032230
         C            1.117568429931     0.627720291867     1.442818417385    12.000000000000
         O            1.808478429931     1.622143291867     1.297984417385    15.994914619570
         C            1.596468429931    -0.706357708133     1.760928417385    12.000000000000
         H            2.653520429931    -0.858573708133     1.895049417385     1.007825032230
         C            0.716758429931    -1.720738708133     1.887145417385    12.000000000000
         H            1.022686429931    -2.729159708133     2.123669417385     1.007825032230
         N           -0.628486570069    -1.535706708133     1.717052417385    14.003074004430
         H           -1.277234570069    -2.298265708133     1.815922417385     1.007825032230
         C           -1.202935570069    -0.310905708133     1.417638417385    12.000000000000
         O           -2.400723570069    -0.160082708133     1.275526417385    15.994914619570

  Charge       = 0
  Multiplicity = 1
  Basis Set: AUG-CC-PVQZ
    Blend: AUG-CC-PVQZ
  Basis Set: (AUG-CC-PVQZ AUX)
    Blend: AUG-CC-PVQZ-JKFIT

    Orbital Energies [Eh]
    ---------------------

    Doubly Occupied:

       1A    -20.537723     2A    -20.532352     3A    -15.636130
       4A    -15.617210     5A    -11.410985     6A    -11.373211
       7A    -11.333784     8A    -11.248572     9A    -11.236413
      10A    -11.234467    11A    -11.233960    12A    -11.233328
      13A    -11.232779    14A    -11.232033    15A     -1.428882
      16A     -1.390753    17A     -1.306627    18A     -1.238782
      19A     -1.150330    20A     -1.081928    21A     -1.014900
      22A     -1.014357    23A     -0.927056    24A     -0.895200
      25A     -0.824200    26A     -0.823610    27A     -0.801066
      28A     -0.758946    29A     -0.709635    30A     -0.708371
      31A     -0.671748    32A     -0.662692    33A     -0.647058
      34A     -0.643877    35A     -0.618995    36A     -0.609274
      37A     -0.595947    38A     -0.588311    39A     -0.587633
      40A     -0.564817    41A     -0.520702    42A     -0.502228
      43A     -0.494746    44A     -0.494624    45A     -0.477367
      46A     -0.443501    47A     -0.430233    48A     -0.363633
      49A     -0.338281    50A     -0.336150

  @DF-RHF Final Energy:  -643.44308930756506

   => Energetics <=

    Nuclear Repulsion Energy =            859.8269207628513868
    One-Electron Energy =               -2583.0211904076436440
    Two-Electron Energy =                1079.7511803372271970
    Total Energy =                       -643.4430893075650602

  Dipole Moment: [D]
     X:     0.5440      Y:    -4.5330      Z:     0.7585     Total:     4.6281

  Basis Set: (AUG-CC-PVQZ AUX)
    Blend: AUG-CC-PVQZ-RI
	 Reference Energy          =    -643.4430893075650602 [Eh]
	 Singles Energy            =      -0.0000000000000000 [Eh]
	 Same-Spin Energy          =      -0.7149467676304799 [Eh]
	 Opposite-Spin Energy      =      -2.3137399660736611 [Eh]
	 Correlation Energy        =      -3.0286867337041410 [Eh]
	 Total Energy              =    -646.4717760412692087 [Eh]

	 ================> DF-SCS-MP2 Energies <==================
	-----------------------------------------------------------
	 SCS Same-Spin Scale       =       0.3333333333333333 [-]
	 SCS Opposite-Spin Scale   =       1.2000000000000000 [-]
	 SCS Same-Spin Energy      =      -0.2383155892101600 [Eh]
	 SCS Opposite-Spin Energy  =      -2.7764879592883931 [Eh]
	 SCS Correlation Energy    =      -3.0148035484985529 [Eh]
	 SCS Total Energy          =    -646.4578928560636086 [Eh]
	-----------------------------------------------------------

*** Psi4 exiting successfully. Buy a developer a beer!
