                               Psi4 1.4a2.dev224

  ==> Input File <==

--------------------------------------------------------------------------
#Generated by lconvert.py for cbs job

memory 40 GB

molecule  {
0 1
  C        0.8257690     1.2365250    -0.0402500
  H        1.5210130     2.0631250    -0.0824710
  C        1.3001600    -0.0629410     0.1272560
  H        2.3636580    -0.2422610     0.2076740
  C        0.4035230    -1.1285520     0.1982450
  H        0.7737530    -2.1374270     0.3241210
  C       -0.9678090    -0.8951900     0.1031400
  H       -1.6652090    -1.7199830     0.1604270
  C       -1.4435080     0.4044830    -0.0624410
  H       -2.5075110     0.5855010    -0.1241500
  C       -0.5457550     1.4687690    -0.1362470
  H       -0.9142220     2.4774220    -0.2678550
--
0 1
  N       -0.3111140     0.7734350     2.2620870
  H       -0.6844220     1.6751960     1.9991940
  C        1.0810320     0.7004480     2.3941000
  O        1.7719430     1.6948720     2.2492660
  C        1.5599320    -0.6336300     2.7122110
  H        2.6169840    -0.7858460     2.8463320
  C        0.6802230    -1.6480110     2.8384270
  H        0.9861510    -2.6564320     3.0749510
  N       -0.6650230    -1.4629790     2.6683350
  H       -1.3137710    -2.2255380     2.7672040
  C       -1.2394710    -0.2381780     2.3689200
  O       -2.4372590    -0.0873550     2.2268080
units angstrom
no_reorient
symmetry c1
}

set {
scf_type DF
mp2_type DF
e_convergence 7
reference rhf
}

energy('mp2/aug-cc-pv[tq]z', bsse_type='cp')
--------------------------------------------------------------------------

    Molecular point group: c1
  Charge       = 0
  Multiplicity = 1
  Basis Set: AUG-CC-PVTZ
    Blend: AUG-CC-PVTZ
  Basis Set: (AUG-CC-PVTZ AUX)
    Blend: AUG-CC-PVTZ-JKFIT
  @DF-RHF Final Energy:  -412.62454287545324
    Total Energy =                       -412.6245428754532441
  Basis Set: (AUG-CC-PVTZ AUX)
    Blend: AUG-CC-PVTZ-RI
	 Reference Energy          =    -412.6245428754532441 [Eh]
	 Singles Energy            =      -0.0000000000000000 [Eh]
	 Same-Spin Energy          =      -0.4141316824907519 [Eh]
	 Opposite-Spin Energy      =      -1.2264106140809075 [Eh]
	 Correlation Energy        =      -1.6405422965716594 [Eh]
	 Total Energy              =    -414.2650851720248966 [Eh]
	 SCS Total Energy          =    -414.2342795065139285 [Eh]
    Molecular point group: c1
  Basis Set: AUG-CC-PVQZ
    Blend: AUG-CC-PVQZ
  Basis Set: (AUG-CC-PVQZ AUX)
    Blend: AUG-CC-PVQZ-JKFIT
  @DF-RHF Final Energy:  -412.65007743292068
    Total Energy =                       -412.6500774329206820
  Basis Set: (AUG-CC-PVQZ AUX)
  @DF-RHF Final Energy:  -412.62526336323629
    Total Energy =                       -412.6252633632362858
  @DF-RHF Final Energy:  -412.65024569902971
    Total Energy =                       -412.6502456990297105
  @DF-RHF Final Energy:  -230.78176633054554
    Total Energy =                       -230.7817663305455085
  @DF-RHF Final Energy:  -230.79447075346343
    Total Energy =                       -230.7944707534634290
  @DF-RHF Final Energy:  -230.78118686259427
    Total Energy =                       -230.7811868625942680
  @DF-RHF Final Energy:  -230.79435918654059
    Total Energy =                       -230.7943591865405892
  Multiplicity = 1
  @DF-RHF Final Energy:  -643.27447065361685
    Total Energy =                       -643.2744706536168451
	 Singles Energy            =      -0.0000000000000000 [Eh]
	 Same-Spin Energy          =      -0.7064998409262866 [Eh]
	 Opposite-Spin Energy      =      -2.0999723094015508 [Eh]
	 Correlation Energy        =      -2.8064721503278376 [Eh]
	 Total Energy              =    -646.0809428039447084 [Eh]
	 SCS Total Energy          =    -646.0299373718740981 [Eh]
    Molecular point group: c1

    Geometry (in Angstrom), charge = 0, multiplicity = 1:

       Center              X                  Y                   Z               Mass
    ------------   -----------------  -----------------  -----------------  -----------------
         C            0.843003370754     1.218050198860    -1.501082346747    12.000000000000
         H            1.538247370754     2.044650198860    -1.543303346747     1.007825032230
         C            1.317394370754    -0.081415801140    -1.333576346747    12.000000000000
         H            2.380892370754    -0.260735801140    -1.253158346747     1.007825032230
         C            0.420757370754    -1.147026801140    -1.262587346747    12.000000000000
         H            0.790987370754    -2.155901801140    -1.136711346747     1.007825032230
         C           -0.950574629246    -0.913664801140    -1.357692346747    12.000000000000
         H           -1.647974629246    -1.738457801140    -1.300405346747     1.007825032230
         C           -1.426273629246     0.386008198860    -1.523273346747    12.000000000000
         H           -2.490276629246     0.567026198860    -1.584982346747     1.007825032230
         C           -0.528520629246     1.450294198860    -1.597079346747    12.000000000000
         H           -0.896987629246     2.458947198860    -1.728687346747     1.007825032230
         N           -0.293879629246     0.754960198860     0.801254653253    14.003074004430
         H           -0.667187629246     1.656721198860     0.538361653253     1.007825032230
         C            1.098266370754     0.681973198860     0.933267653253    12.000000000000
         O            1.789177370754     1.676397198860     0.788433653253    15.994914619570
         C            1.577166370754    -0.652104801140     1.251378653253    12.000000000000
         H            2.634218370754    -0.804320801140     1.385499653253     1.007825032230
         C            0.697457370754    -1.666485801140     1.377594653253    12.000000000000
         H            1.003385370754    -2.674906801140     1.614118653253     1.007825032230
         N           -0.647788629246    -1.481453801140     1.207502653253    14.003074004430
         H           -1.296536629246    -2.244012801140     1.306371653253     1.007825032230
         C           -1.222236629246    -0.256652801140     0.908087653253    12.000000000000
         O           -2.420024629246    -0.105829801140     0.765975653253    15.994914619570

  Charge       = 0
  Multiplicity = 1
  Basis Set: AUG-CC-PVQZ
    Blend: AUG-CC-PVQZ
  Basis Set: (AUG-CC-PVQZ AUX)
    Blend: AUG-CC-PVQZ-JKFIT

    Orbital Energies [Eh]
    ---------------------

    Doubly Occupied:

       1A    -20.531397     2A    -20.526292     3A    -15.630439
       4A    -15.606062     5A    -11.409300     6A    -11.373085
       7A    -11.324783     8A    -11.246541     9A    -11.242276
      10A    -11.231239    11A    -11.229436    12A    -11.229197
      13A    -11.228178    14A    -11.224277    15A     -1.431270
      16A     -1.393560    17A     -1.306078    18A     -1.240509
      19A     -1.155046    20A     -1.084111    21A     -1.022243
      22A     -1.019941    23A     -0.925998    24A     -0.894220
      25A     -0.830737    26A     -0.828962    27A     -0.800530
      28A     -0.756285    29A     -0.717010    30A     -0.704957
      31A     -0.683794    32A     -0.672261    33A     -0.647071
      34A     -0.645358    35A     -0.622869    36A     -0.609714
      37A     -0.596072    38A     -0.593175    39A     -0.591158
      40A     -0.574027    41A     -0.526961    42A     -0.497743
      43A     -0.496311    44A     -0.482166    45A     -0.464423
      46A     -0.441099    47A     -0.426364    48A     -0.370035
      49A     -0.328705    50A     -0.314755

  @DF-RHF Final Energy:  -643.31228338352889

   => Energetics <=

    Nuclear Repulsion Energy =            958.3406557040732423
    One-Electron Energy =               -2779.8497945263075053
    Two-Electron Energy =                1178.1968554387053700
    Total Energy =                       -643.3122833835288930

  Dipole Moment: [D]
     X:     0.6060      Y:    -4.4851      Z:     0.7860     Total:     4.5936

  Basis Set: (AUG-CC-PVQZ AUX)
    Blend: AUG-CC-PVQZ-RI
	 Reference Energy          =    -643.3122833835288930 [Eh]
	 Singles Energy            =      -0.0000000000000000 [Eh]
	 Same-Spin Energy          =      -0.7456920889292531 [Eh]
	 Opposite-Spin Energy      =      -2.3529303669246522 [Eh]
	 Correlation Energy        =      -3.0986224558539055 [Eh]
	 Total Energy              =    -646.4109058393828491 [Eh]

	 ================> DF-SCS-MP2 Energies <==================
	-----------------------------------------------------------
	 SCS Same-Spin Scale       =       0.3333333333333333 [-]
	 SCS Opposite-Spin Scale   =       1.2000000000000000 [-]
	 SCS Same-Spin Energy      =      -0.2485640296430844 [Eh]
	 SCS Opposite-Spin Energy  =      -2.8235164403095827 [Eh]
	 SCS Correlation Energy    =      -3.0720804699526671 [Eh]
	 SCS Total Energy          =    -646.3843638534815454 [Eh]
	-----------------------------------------------------------

*** Psi4 exiting successfully. Buy a developer a beer!
