                               Psi4 1.4a2.dev224

  ==> Input File <==

--------------------------------------------------------------------------
#Generated by lconvert.py for cbs job

memory 20 GB

molecule  {
0 1
  C       0.825770    1.236530   -0.040250
  H       1.521010    2.063120   -0.082470
  C       1.300160   -0.062940    0.127260
  H       2.363660   -0.242260    0.207670
  C       0.403520   -1.128550    0.198250
  H       0.773750   -2.137430    0.324120
  C      -0.967810   -0.895190    0.103140
  H      -1.665210   -1.719980    0.160430
  C      -1.443510    0.404480   -0.062440
  H      -2.507510    0.585500   -0.124150
  C      -0.545750    1.468770   -0.136250
  H      -0.914220    2.477420   -0.267860
--
0 1
  N      -0.240460    0.574830    4.127340
  H      -0.613770    1.476600    3.864450
  C       1.151690    0.501850    4.259350
  O       1.842600    1.496270    4.114520
  C       1.630590   -0.832230    4.577460
  H       2.687640   -0.984450    4.711580
  C       0.750880   -1.846610    4.703680
  H       1.056800   -2.855030    4.940200
  N      -0.594370   -1.661580    4.533590
  H      -1.243120   -2.424140    4.632460
  C      -1.168820   -0.436780    4.234170
  O      -2.366600   -0.285950    4.092060
units angstrom
no_reorient
symmetry c1
}

set {
scf_type DF
mp2_type DF
e_convergence 7
reference rhf
}

energy('mp2/aug-cc-pv[tq]z', bsse_type='cp')
--------------------------------------------------------------------------

    Molecular point group: c1
  Charge       = 0
  Multiplicity = 1
  Basis Set: AUG-CC-PVTZ
    Blend: AUG-CC-PVTZ
  Basis Set: (AUG-CC-PVTZ AUX)
    Blend: AUG-CC-PVTZ-JKFIT
  @DF-RHF Final Energy:  -412.62454344043158
    Total Energy =                       -412.6245434404315802
  Basis Set: (AUG-CC-PVTZ AUX)
    Blend: AUG-CC-PVTZ-RI
	 Reference Energy          =    -412.6245434404315802 [Eh]
	 Singles Energy            =      -0.0000000000000000 [Eh]
	 Same-Spin Energy          =      -0.4141314878361964 [Eh]
	 Opposite-Spin Energy      =      -1.2264102680638223 [Eh]
	 Correlation Energy        =      -1.6405417559000186 [Eh]
	 Total Energy              =    -414.2650851963315972 [Eh]
	 SCS Total Energy          =    -414.2342795913868940 [Eh]
    Molecular point group: c1
  Basis Set: AUG-CC-PVQZ
    Blend: AUG-CC-PVQZ
  Basis Set: (AUG-CC-PVQZ AUX)
    Blend: AUG-CC-PVQZ-JKFIT
  @DF-RHF Final Energy:  -412.65007804156755
    Total Energy =                       -412.6500780415675536
  Basis Set: (AUG-CC-PVQZ AUX)
  @DF-RHF Final Energy:  -412.62468430931244
    Total Energy =                       -412.6246843093124426
  @DF-RHF Final Energy:  -412.65012111374131
    Total Energy =                       -412.6501211137413065
  @DF-RHF Final Energy:  -230.78131985939405
    Total Energy =                       -230.7813198593940456
  @DF-RHF Final Energy:  -230.79439048505668
    Total Energy =                       -230.7943904850566810
  @DF-RHF Final Energy:  -230.78118687202726
    Total Energy =                       -230.7811868720272628
  @DF-RHF Final Energy:  -230.79435920124763
    Total Energy =                       -230.7943592012476302
  Multiplicity = 1
  @DF-RHF Final Energy:  -643.40643704456988
    Total Energy =                       -643.4064370445698842
	 Singles Energy            =      -0.0000000000000000 [Eh]
	 Same-Spin Energy          =      -0.6721404441664887 [Eh]
	 Opposite-Spin Energy      =      -2.0494366525828083 [Eh]
	 Correlation Energy        =      -2.7215770967492969 [Eh]
	 Total Energy              =    -646.1280141413192268 [Eh]
	 SCS Total Energy          =    -646.0898078423914512 [Eh]
    Molecular point group: c1

    Geometry (in Angstrom), charge = 0, multiplicity = 1:

       Center              X                  Y                   Z               Mass
    ------------   -----------------  -----------------  -----------------  -----------------
         C            0.801360770594     1.335107240370    -2.600438113260    12.000000000000
         H            1.496600770594     2.161697240370    -2.642658113260     1.007825032230
         C            1.275750770594     0.035637240370    -2.432928113260    12.000000000000
         H            2.339250770594    -0.143682759630    -2.352518113260     1.007825032230
         C            0.379110770594    -1.029972759630    -2.361938113260    12.000000000000
         H            0.749340770594    -2.038852759630    -2.236068113260     1.007825032230
         C           -0.992219229406    -0.796612759630    -2.457048113260    12.000000000000
         H           -1.689619229406    -1.621402759630    -2.399758113260     1.007825032230
         C           -1.467919229406     0.503057240370    -2.622628113260    12.000000000000
         H           -2.531919229406     0.684077240370    -2.684338113260     1.007825032230
         C           -0.570159229406     1.567347240370    -2.696438113260    12.000000000000
         H           -0.938629229406     2.575997240370    -2.828048113260     1.007825032230
         N           -0.264869229406     0.673407240370     1.567151886740    14.003074004430
         H           -0.638179229406     1.575177240370     1.304261886740     1.007825032230
         C            1.127280770594     0.600427240370     1.699161886740    12.000000000000
         O            1.818190770594     1.594847240370     1.554331886740    15.994914619570
         C            1.606180770594    -0.733652759630     2.017271886740    12.000000000000
         H            2.663230770594    -0.885872759630     2.151391886740     1.007825032230
         C            0.726470770594    -1.748032759630     2.143491886740    12.000000000000
         H            1.032390770594    -2.756452759630     2.380011886740     1.007825032230
         N           -0.618779229406    -1.563002759630     1.973401886740    14.003074004430
         H           -1.267529229406    -2.325562759630     2.072271886740     1.007825032230
         C           -1.193229229406    -0.338202759630     1.673981886740    12.000000000000
         O           -2.391009229406    -0.187372759630     1.531871886740    15.994914619570

  Charge       = 0
  Multiplicity = 1
  Basis Set: AUG-CC-PVQZ
    Blend: AUG-CC-PVQZ
  Basis Set: (AUG-CC-PVQZ AUX)
    Blend: AUG-CC-PVQZ-JKFIT

    Orbital Energies [Eh]
    ---------------------

    Doubly Occupied:

       1A    -20.539664     2A    -20.534119     3A    -15.637793
       4A    -15.619798     5A    -11.412899     6A    -11.374950
       7A    -11.335513     8A    -11.250126     9A    -11.235503
      10A    -11.234232    11A    -11.233906    12A    -11.233198
      13A    -11.232622    14A    -11.231938    15A     -1.430755
      16A     -1.392357    17A     -1.308418    18A     -1.240953
      19A     -1.149583    20A     -1.083574    21A     -1.014050
      22A     -1.013955    23A     -0.928805    24A     -0.897202
      25A     -0.823678    26A     -0.823171    27A     -0.802781
      28A     -0.760698    29A     -0.710223    30A     -0.709090
      31A     -0.673273    32A     -0.663981    33A     -0.648554
      34A     -0.643533    35A     -0.618573    36A     -0.610723
      37A     -0.597450    38A     -0.587617    39A     -0.587439
      40A     -0.565924    41A     -0.521826    42A     -0.502304
      43A     -0.494479    44A     -0.494208    45A     -0.479141
      46A     -0.445075    47A     -0.432081    48A     -0.364752
      49A     -0.337201    50A     -0.336075

  @DF-RHF Final Energy:  -643.44494239230221

   => Energetics <=

    Nuclear Repulsion Energy =            825.3519409362971828
    One-Electron Energy =               -2513.9942302432655197
    Two-Electron Energy =                1045.1973469146662410
    Total Energy =                       -643.4449423923022096

  Dipole Moment: [D]
     X:     0.5484      Y:    -4.5955      Z:     0.8272     Total:     4.7015

  Basis Set: (AUG-CC-PVQZ AUX)
    Blend: AUG-CC-PVQZ-RI
	 Reference Energy          =    -643.4449423923022096 [Eh]
	 Singles Energy            =      -0.0000000000000000 [Eh]
	 Same-Spin Energy          =      -0.7116292251986910 [Eh]
	 Opposite-Spin Energy      =      -2.3096556475904531 [Eh]
	 Correlation Energy        =      -3.0212848727891441 [Eh]
	 Total Energy              =    -646.4662272650913337 [Eh]

	 ================> DF-SCS-MP2 Energies <==================
	-----------------------------------------------------------
	 SCS Same-Spin Scale       =       0.3333333333333333 [-]
	 SCS Opposite-Spin Scale   =       1.2000000000000000 [-]
	 SCS Same-Spin Energy      =      -0.2372097417328970 [Eh]
	 SCS Opposite-Spin Energy  =      -2.7715867771085434 [Eh]
	 SCS Correlation Energy    =      -3.0087965188414403 [Eh]
	 SCS Total Energy          =    -646.4537389111436596 [Eh]
	-----------------------------------------------------------

*** Psi4 exiting successfully. Buy a developer a beer!
