                               Psi4 1.4a2.dev224

  ==> Input File <==

--------------------------------------------------------------------------
#Generated by lconvert.py for cbs job

memory 40 GB

molecule  {
0 1
  C        0.8257690     1.2365250    -0.0402500
  H        1.5210130     2.0631250    -0.0824710
  C        1.3001600    -0.0629410     0.1272560
  H        2.3636580    -0.2422610     0.2076740
  C        0.4035230    -1.1285520     0.1982450
  H        0.7737530    -2.1374270     0.3241210
  C       -0.9678090    -0.8951900     0.1031400
  H       -1.6652090    -1.7199830     0.1604270
  C       -1.4435080     0.4044830    -0.0624410
  H       -2.5075110     0.5855010    -0.1241500
  C       -0.5457550     1.4687690    -0.1362470
  H       -0.9142220     2.4774220    -0.2678550
--
0 1
  N       -0.2992900     0.7401990     2.5742380
  H       -0.6725980     1.6419610     2.3113450
  C        1.0928560     0.6672120     2.7062510
  O        1.7837670     1.6616360     2.5614170
  C        1.5717560    -0.6668650     3.0243610
  H        2.6288090    -0.8190810     3.1584820
  C        0.6920470    -1.6812460     3.1505780
  H        0.9979750    -2.6896670     3.3871020
  N       -0.6531990    -1.4962150     2.9804860
  H       -1.3019470    -2.2587740     3.0793550
  C       -1.2276470    -0.2714140     2.6810710
  O       -2.4254350    -0.1205900     2.5389590
units angstrom
no_reorient
symmetry c1
}

set {
scf_type DF
mp2_type DF
e_convergence 7
reference rhf
}

energy('mp2/aug-cc-pv[tq]z', bsse_type='cp')
--------------------------------------------------------------------------

    Molecular point group: c1
  Charge       = 0
  Multiplicity = 1
  Basis Set: AUG-CC-PVTZ
    Blend: AUG-CC-PVTZ
  Basis Set: (AUG-CC-PVTZ AUX)
    Blend: AUG-CC-PVTZ-JKFIT
  @DF-RHF Final Energy:  -412.62454282926024
    Total Energy =                       -412.6245428292602355
  Basis Set: (AUG-CC-PVTZ AUX)
    Blend: AUG-CC-PVTZ-RI
	 Reference Energy          =    -412.6245428292602355 [Eh]
	 Singles Energy            =      -0.0000000000000000 [Eh]
	 Same-Spin Energy          =      -0.4141317048515510 [Eh]
	 Opposite-Spin Energy      =      -1.2264106407560207 [Eh]
	 Correlation Energy        =      -1.6405423456075716 [Eh]
	 Total Energy              =    -414.2650851748678065 [Eh]
	 SCS Total Energy          =    -414.2342794997846340 [Eh]
    Molecular point group: c1
  Basis Set: AUG-CC-PVQZ
    Blend: AUG-CC-PVQZ
  Basis Set: (AUG-CC-PVQZ AUX)
    Blend: AUG-CC-PVQZ-JKFIT
  @DF-RHF Final Energy:  -412.65007738816649
    Total Energy =                       -412.6500773881664941
  Basis Set: (AUG-CC-PVQZ AUX)
  @DF-RHF Final Energy:  -412.62509710161726
    Total Energy =                       -412.6250971016172571
  @DF-RHF Final Energy:  -412.65021248678340
    Total Energy =                       -412.6502124867834027
  @DF-RHF Final Energy:  -230.78162626271052
    Total Energy =                       -230.7816262627105175
  @DF-RHF Final Energy:  -230.79445244563914
    Total Energy =                       -230.7944524456391377
  @DF-RHF Final Energy:  -230.78118686200798
    Total Energy =                       -230.7811868620079849
  @DF-RHF Final Energy:  -230.79435918625353
    Total Energy =                       -230.7943591862535300
  Multiplicity = 1
  @DF-RHF Final Energy:  -643.35541289087280
    Total Energy =                       -643.3554128908729126
	 Singles Energy            =      -0.0000000000000000 [Eh]
	 Same-Spin Energy          =      -0.6926255886359507 [Eh]
	 Opposite-Spin Energy      =      -2.0799231718376725 [Eh]
	 Correlation Energy        =      -2.7725487604736232 [Eh]
	 Total Energy              =    -646.1279616513463679 [Eh]
	 SCS Total Energy          =    -646.0821958932899634 [Eh]
    Molecular point group: c1

    Geometry (in Angstrom), charge = 0, multiplicity = 1:

       Center              X                  Y                   Z               Mass
    ------------   -----------------  -----------------  -----------------  -----------------
         C            0.836034453650     1.237638838626    -1.685060017469    12.000000000000
         H            1.531278453650     2.064238838626    -1.727281017469     1.007825032230
         C            1.310425453650    -0.061827161374    -1.517554017469    12.000000000000
         H            2.373923453650    -0.241147161374    -1.437136017469     1.007825032230
         C            0.413788453650    -1.127438161374    -1.446565017469    12.000000000000
         H            0.784018453650    -2.136313161374    -1.320689017469     1.007825032230
         C           -0.957543546350    -0.894076161374    -1.541670017469    12.000000000000
         H           -1.654943546350    -1.718869161374    -1.484383017469     1.007825032230
         C           -1.433242546350     0.405596838626    -1.707251017469    12.000000000000
         H           -2.497245546350     0.586614838626    -1.768960017469     1.007825032230
         C           -0.535489546350     1.469882838626    -1.781057017469    12.000000000000
         H           -0.903956546350     2.478535838626    -1.912665017469     1.007825032230
         N           -0.289024546350     0.741312838626     0.929427982531    14.003074004430
         H           -0.662332546350     1.643074838626     0.666534982531     1.007825032230
         C            1.103121453650     0.668325838626     1.061440982531    12.000000000000
         O            1.794032453650     1.662749838626     0.916606982531    15.994914619570
         C            1.582021453650    -0.665751161374     1.379550982531    12.000000000000
         H            2.639074453650    -0.817967161374     1.513671982531     1.007825032230
         C            0.702312453650    -1.680132161374     1.505767982531    12.000000000000
         H            1.008240453650    -2.688553161374     1.742291982531     1.007825032230
         N           -0.642933546350    -1.495101161374     1.335675982531    14.003074004430
         H           -1.291681546350    -2.257660161374     1.434544982531     1.007825032230
         C           -1.217381546350    -0.270300161374     1.036260982531    12.000000000000
         O           -2.415169546350    -0.119476161374     0.894148982531    15.994914619570

  Charge       = 0
  Multiplicity = 1
  Basis Set: AUG-CC-PVQZ
    Blend: AUG-CC-PVQZ
  Basis Set: (AUG-CC-PVQZ AUX)
    Blend: AUG-CC-PVQZ-JKFIT

    Orbital Energies [Eh]
    ---------------------

    Doubly Occupied:

       1A    -20.533842     2A    -20.528829     3A    -15.632879
       4A    -15.610468     5A    -11.408534     6A    -11.371492
       7A    -11.328827     8A    -11.246328     9A    -11.238891
      10A    -11.232255    11A    -11.231036    12A    -11.230758
      13A    -11.229781    14A    -11.228483    15A     -1.428041
      16A     -1.390532    17A     -1.304800    18A     -1.237152
      19A     -1.152515    20A     -1.080851    21A     -1.017688
      22A     -1.016284    23A     -0.925115    24A     -0.893104
      25A     -0.826317    26A     -0.825102    27A     -0.799400
      28A     -0.756649    29A     -0.712225    30A     -0.705509
      31A     -0.673212    32A     -0.669347    33A     -0.645873
      34A     -0.644339    35A     -0.619713    36A     -0.608239
      37A     -0.594795    38A     -0.590118    39A     -0.588520
      40A     -0.569680    41A     -0.523525    42A     -0.495559
      43A     -0.494638    44A     -0.489869    45A     -0.472887
      46A     -0.441677    47A     -0.428565    48A     -0.366530
      49A     -0.335566    50A     -0.327601

  @DF-RHF Final Energy:  -643.39338342777319

   => Energetics <=

    Nuclear Repulsion Energy =            928.6910881542835341
    One-Electron Energy =               -2720.7610493105908063
    Two-Electron Energy =                1148.6765777285340846
    Total Energy =                       -643.3933834277731876

  Dipole Moment: [D]
     X:     0.5673      Y:    -4.4703      Z:     0.7790     Total:     4.5730

  Basis Set: (AUG-CC-PVQZ AUX)
    Blend: AUG-CC-PVQZ-RI
	 Reference Energy          =    -643.3933834277731876 [Eh]
	 Singles Energy            =      -0.0000000000000000 [Eh]
	 Same-Spin Energy          =      -0.7318371972252964 [Eh]
	 Opposite-Spin Energy      =      -2.3350793075661800 [Eh]
	 Correlation Energy        =      -3.0669165047914762 [Eh]
	 Total Energy              =    -646.4602999325646806 [Eh]

	 ================> DF-SCS-MP2 Energies <==================
	-----------------------------------------------------------
	 SCS Same-Spin Scale       =       0.3333333333333333 [-]
	 SCS Opposite-Spin Scale   =       1.2000000000000000 [-]
	 SCS Same-Spin Energy      =      -0.2439457324084321 [Eh]
	 SCS Opposite-Spin Energy  =      -2.8020951690794158 [Eh]
	 SCS Correlation Energy    =      -3.0460409014878480 [Eh]
	 SCS Total Energy          =    -646.4394243292609872 [Eh]
	-----------------------------------------------------------

*** Psi4 exiting successfully. Buy a developer a beer!
