                               Psi4 1.4a2.dev224

  ==> Input File <==

--------------------------------------------------------------------------
#Generated by lconvert.py for cbs job

memory 40 GB

molecule  {
0 1
  C        0.8257690     1.2365250    -0.0402500
  H        1.5210130     2.0631250    -0.0824710
  C        1.3001600    -0.0629410     0.1272560
  H        2.3636580    -0.2422610     0.2076740
  C        0.4035230    -1.1285520     0.1982450
  H        0.7737530    -2.1374270     0.3241210
  C       -0.9678090    -0.8951900     0.1031400
  H       -1.6652090    -1.7199830     0.1604270
  C       -1.4435080     0.4044830    -0.0624410
  H       -2.5075110     0.5855010    -0.1241500
  C       -0.5457550     1.4687690    -0.1362470
  H       -0.9142220     2.4774220    -0.2678550
--
0 1
  N       -0.2699510     0.6577310     3.3487860
  H       -0.6432580     1.5594920     3.0858930
  C        1.1221960     0.5847440     3.4807990
  O        1.8131060     1.5791680     3.3359650
  C        1.6010960    -0.7493340     3.7989090
  H        2.6581480    -0.9015490     3.9330300
  C        0.7213870    -1.7637150     3.9251260
  H        1.0273140    -2.7721350     4.1616500
  N       -0.6238590    -1.5786830     3.7550340
  H       -1.2726070    -2.3412420     3.8539030
  C       -1.1983080    -0.3538820     3.4556190
  O       -2.3960960    -0.2030590     3.3135070
units angstrom
no_reorient
symmetry c1
}

set {
scf_type DF
mp2_type DF
e_convergence 7
reference rhf
}

energy('mp2/aug-cc-pv[tq]z', bsse_type='cp')
--------------------------------------------------------------------------

    Molecular point group: c1
  Charge       = 0
  Multiplicity = 1
  Basis Set: AUG-CC-PVTZ
    Blend: AUG-CC-PVTZ
  Basis Set: (AUG-CC-PVTZ AUX)
    Blend: AUG-CC-PVTZ-JKFIT
  @DF-RHF Final Energy:  -412.62454290950393
    Total Energy =                       -412.6245429095039299
  Basis Set: (AUG-CC-PVTZ AUX)
    Blend: AUG-CC-PVTZ-RI
	 Reference Energy          =    -412.6245429095039299 [Eh]
	 Singles Energy            =      -0.0000000000000000 [Eh]
	 Same-Spin Energy          =      -0.4141316710293051 [Eh]
	 Opposite-Spin Energy      =      -1.2264105956129046 [Eh]
	 Correlation Energy        =      -1.6405422666422096 [Eh]
	 Total Energy              =    -414.2650851761461581 [Eh]
	 SCS Total Energy          =    -414.2342795145825107 [Eh]
    Molecular point group: c1
  Basis Set: AUG-CC-PVQZ
    Blend: AUG-CC-PVQZ
  Basis Set: (AUG-CC-PVQZ AUX)
    Blend: AUG-CC-PVQZ-JKFIT
  @DF-RHF Final Energy:  -412.65007746380667
    Total Energy =                       -412.6500774638066673
  Basis Set: (AUG-CC-PVQZ AUX)
  @DF-RHF Final Energy:  -412.62483490824002
    Total Energy =                       -412.6248349082400182
  @DF-RHF Final Energy:  -412.65015513335032
    Total Energy =                       -412.6501551333503244
  @DF-RHF Final Energy:  -230.78143113056242
    Total Energy =                       -230.7814311305624528
  @DF-RHF Final Energy:  -230.79441297726632
    Total Energy =                       -230.7944129772663473
  @DF-RHF Final Energy:  -230.78118686266467
    Total Energy =                       -230.7811868626646401
  @DF-RHF Final Energy:  -230.79435919168918
    Total Energy =                       -230.7943591916891819
  Multiplicity = 1
  @DF-RHF Final Energy:  -643.40310086570094
    Total Energy =                       -643.4031008657009352
	 Singles Energy            =      -0.0000000000000000 [Eh]
	 Same-Spin Energy          =      -0.6770043763291331 [Eh]
	 Opposite-Spin Energy      =      -2.0570202454547561 [Eh]
	 Correlation Energy        =      -2.7340246217838891 [Eh]
	 Total Energy              =    -646.1371254874848091 [Eh]
	 SCS Total Energy          =    -646.0971932856897411 [Eh]
    Molecular point group: c1

    Geometry (in Angstrom), charge = 0, multiplicity = 1:

       Center              X                  Y                   Z               Mass
    ------------   -----------------  -----------------  -----------------  -----------------
         C            0.818742154996     1.286244620859    -2.141568533889    12.000000000000
         H            1.513986154996     2.112844620859    -2.183789533889     1.007825032230
         C            1.293133154996    -0.013221379141    -1.974062533889    12.000000000000
         H            2.356631154996    -0.192541379141    -1.893644533889     1.007825032230
         C            0.396496154996    -1.078832379141    -1.903073533889    12.000000000000
         H            0.766726154996    -2.087707379141    -1.777197533889     1.007825032230
         C           -0.974835845004    -0.845470379141    -1.998178533889    12.000000000000
         H           -1.672235845004    -1.670263379141    -1.940891533889     1.007825032230
         C           -1.450534845004     0.454202620859    -2.163759533889    12.000000000000
         H           -2.514537845004     0.635220620859    -2.225468533889     1.007825032230
         C           -0.552781845004     1.518488620859    -2.237565533889    12.000000000000
         H           -0.921248845004     2.527141620859    -2.369173533889     1.007825032230
         N           -0.276977845004     0.707450620859     1.247467466111    14.003074004430
         H           -0.650284845004     1.609211620859     0.984574466111     1.007825032230
         C            1.115169154996     0.634463620859     1.379480466111    12.000000000000
         O            1.806079154996     1.628887620859     1.234646466111    15.994914619570
         C            1.594069154996    -0.699614379141     1.697590466111    12.000000000000
         H            2.651121154996    -0.851829379141     1.831711466111     1.007825032230
         C            0.714360154996    -1.713995379141     1.823807466111    12.000000000000
         H            1.020287154996    -2.722415379141     2.060331466111     1.007825032230
         N           -0.630885845004    -1.528963379141     1.653715466111    14.003074004430
         H           -1.279633845004    -2.291522379141     1.752584466111     1.007825032230
         C           -1.205334845004    -0.304162379141     1.354300466111    12.000000000000
         O           -2.403122845004    -0.153339379141     1.212188466111    15.994914619570

  Charge       = 0
  Multiplicity = 1
  Basis Set: AUG-CC-PVQZ
    Blend: AUG-CC-PVQZ
  Basis Set: (AUG-CC-PVQZ AUX)
    Blend: AUG-CC-PVQZ-JKFIT

    Orbital Energies [Eh]
    ---------------------

    Doubly Occupied:

       1A    -20.537170     2A    -20.531857     3A    -15.635671
       4A    -15.616406     5A    -11.410459     6A    -11.372747
       7A    -11.333239     8A    -11.248141     9A    -11.236670
      10A    -11.234396    11A    -11.233825    12A    -11.233217
      13A    -11.232680    14A    -11.231920    15A     -1.428418
      16A     -1.390382    17A     -1.306156    18A     -1.238209
      19A     -1.150540    20A     -1.081498    21A     -1.015146
      22A     -1.014457    23A     -0.926593    24A     -0.894668
      25A     -0.824334    26A     -0.823708    27A     -0.800619
      28A     -0.758478    29A     -0.709777    30A     -0.707875
      31A     -0.671385    32A     -0.662703    33A     -0.646685
      34A     -0.643944    35A     -0.619058    36A     -0.608915
      37A     -0.595569    38A     -0.588490    39A     -0.587655
      40A     -0.564803    41A     -0.520627    42A     -0.501730
      43A     -0.494852    44A     -0.494605    45A     -0.476872
      46A     -0.443105    47A     -0.429798    48A     -0.363507
      49A     -0.338466    50A     -0.335954

  @DF-RHF Final Energy:  -643.44140490003724

   => Energetics <=

    Nuclear Repulsion Energy =            869.6159954497920808
    One-Electron Energy =               -2602.6188266177505284
    Two-Electron Energy =                1089.5614262679212061
    Total Energy =                       -643.4414049000372415

  Dipole Moment: [D]
     X:     0.5440      Y:    -4.5178      Z:     0.7474     Total:     4.6114

  Basis Set: (AUG-CC-PVQZ AUX)
    Blend: AUG-CC-PVQZ-RI
	 Reference Energy          =    -643.4414049000372415 [Eh]
	 Singles Energy            =      -0.0000000000000000 [Eh]
	 Same-Spin Energy          =      -0.7163717586817530 [Eh]
	 Opposite-Spin Energy      =      -2.3155079543695769 [Eh]
	 Correlation Energy        =      -3.0318797130513300 [Eh]
	 Total Energy              =    -646.4732846130885946 [Eh]

	 ================> DF-SCS-MP2 Energies <==================
	-----------------------------------------------------------
	 SCS Same-Spin Scale       =       0.3333333333333333 [-]
	 SCS Opposite-Spin Scale   =       1.2000000000000000 [-]
	 SCS Same-Spin Energy      =      -0.2387905862272510 [Eh]
	 SCS Opposite-Spin Energy  =      -2.7786095452434920 [Eh]
	 SCS Correlation Energy    =      -3.0174001314707430 [Eh]
	 SCS Total Energy          =    -646.4588050315079499 [Eh]
	-----------------------------------------------------------

*** Psi4 exiting successfully. Buy a developer a beer!
