                               Psi4 1.4a2.dev224

  ==> Input File <==

--------------------------------------------------------------------------
#Generated by lconvert.py for cbs job

memory 40 GB

molecule  {
0 1
  C        0.8257690     1.2365250    -0.0402500
  H        1.5210130     2.0631250    -0.0824710
  C        1.3001600    -0.0629410     0.1272560
  H        2.3636580    -0.2422610     0.2076740
  C        0.4035230    -1.1285520     0.1982450
  H        0.7737530    -2.1374270     0.3241210
  C       -0.9678090    -0.8951900     0.1031400
  H       -1.6652090    -1.7199830     0.1604270
  C       -1.4435080     0.4044830    -0.0624410
  H       -2.5075110     0.5855010    -0.1241500
  C       -0.5457550     1.4687690    -0.1362470
  H       -0.9142220     2.4774220    -0.2678550
--
0 1
  N       -0.2758040     0.6741830     3.1942650
  H       -0.6491120     1.5759450     2.9313720
  C        1.1163430     0.6011960     3.3262790
  O        1.8072530     1.5956200     3.1814450
  C        1.5952430    -0.7328810     3.6443890
  H        2.6522950    -0.8850970     3.7785100
  C        0.7155330    -1.7472630     3.7706050
  H        1.0214610    -2.7556830     4.0071300
  N       -0.6297120    -1.5622310     3.6005130
  H       -1.2784600    -2.3247900     3.6993820
  C       -1.2041610    -0.3374300     3.3010990
  O       -2.4019490    -0.1866060     3.1589860
units angstrom
no_reorient
symmetry c1
}

set {
scf_type DF
mp2_type DF
e_convergence 7
reference rhf
}

energy('mp2/aug-cc-pv[tq]z', bsse_type='cp')
--------------------------------------------------------------------------

    Molecular point group: c1
  Charge       = 0
  Multiplicity = 1
  Basis Set: AUG-CC-PVTZ
    Blend: AUG-CC-PVTZ
  Basis Set: (AUG-CC-PVTZ AUX)
    Blend: AUG-CC-PVTZ-JKFIT
  @DF-RHF Final Energy:  -412.62454280749580
    Total Energy =                       -412.6245428074957999
  Basis Set: (AUG-CC-PVTZ AUX)
    Blend: AUG-CC-PVTZ-RI
	 Reference Energy          =    -412.6245428074957999 [Eh]
	 Singles Energy            =      -0.0000000000000000 [Eh]
	 Same-Spin Energy          =      -0.4141317135227919 [Eh]
	 Opposite-Spin Energy      =      -1.2264106531833576 [Eh]
	 Correlation Energy        =      -1.6405423667061496 [Eh]
	 Total Energy              =    -414.2650851742019427 [Eh]
	 SCS Total Energy          =    -414.2342794958234435 [Eh]
    Molecular point group: c1
  Basis Set: AUG-CC-PVQZ
    Blend: AUG-CC-PVQZ
  Basis Set: (AUG-CC-PVQZ AUX)
    Blend: AUG-CC-PVQZ-JKFIT
  @DF-RHF Final Energy:  -412.65007736117150
    Total Energy =                       -412.6500773611714976
  Basis Set: (AUG-CC-PVQZ AUX)
  @DF-RHF Final Energy:  -412.62487531147917
    Total Energy =                       -412.6248753114791725
  @DF-RHF Final Energy:  -412.65016456977310
    Total Energy =                       -412.6501645697730964
  @DF-RHF Final Energy:  -230.78146157555517
    Total Energy =                       -230.7814615755551699
  @DF-RHF Final Energy:  -230.79441964005261
    Total Energy =                       -230.7944196400526380
  @DF-RHF Final Energy:  -230.78118686069411
    Total Energy =                       -230.7811868606941061
  @DF-RHF Final Energy:  -230.79435918683117
    Total Energy =                       -230.7943591868311728
  Multiplicity = 1
  @DF-RHF Final Energy:  -643.40029035885891
    Total Energy =                       -643.4002903588589106
	 Singles Energy            =      -0.0000000000000000 [Eh]
	 Same-Spin Energy          =      -0.6788395327599911 [Eh]
	 Opposite-Spin Energy      =      -2.0597349112363736 [Eh]
	 Correlation Energy        =      -2.7385744439963648 [Eh]
	 Total Energy              =    -646.1388648028553234 [Eh]
	 SCS Total Energy          =    -646.0982520965958429 [Eh]
    Molecular point group: c1

    Geometry (in Angstrom), charge = 0, multiplicity = 1:

       Center              X                  Y                   Z               Mass
    ------------   -----------------  -----------------  -----------------  -----------------
         C            0.822191905500     1.276547873469    -2.050496150546    12.000000000000
         H            1.517435905500     2.103147873469    -2.092717150546     1.007825032230
         C            1.296582905500    -0.022918126531    -1.882990150546    12.000000000000
         H            2.360080905500    -0.202238126531    -1.802572150546     1.007825032230
         C            0.399945905500    -1.088529126531    -1.812001150546    12.000000000000
         H            0.770175905500    -2.097404126531    -1.686125150546     1.007825032230
         C           -0.971386094500    -0.855167126531    -1.907106150546    12.000000000000
         H           -1.668786094500    -1.679960126531    -1.849819150546     1.007825032230
         C           -1.447085094500     0.444505873469    -2.072687150546    12.000000000000
         H           -2.511088094500     0.625523873469    -2.134396150546     1.007825032230
         C           -0.549332094500     1.508791873469    -2.146493150546    12.000000000000
         H           -0.917799094500     2.517444873469    -2.278101150546     1.007825032230
         N           -0.279381094500     0.714205873469     1.184018849454    14.003074004430
         H           -0.652689094500     1.615967873469     0.921125849454     1.007825032230
         C            1.112765905500     0.641218873469     1.316032849454    12.000000000000
         O            1.803675905500     1.635642873469     1.171198849454    15.994914619570
         C            1.591665905500    -0.692858126531     1.634142849454    12.000000000000
         H            2.648717905500    -0.845074126531     1.768263849454     1.007825032230
         C            0.711955905500    -1.707240126531     1.760358849454    12.000000000000
         H            1.017883905500    -2.715660126531     1.996883849454     1.007825032230
         N           -0.633289094500    -1.522208126531     1.590266849454    14.003074004430
         H           -1.282037094500    -2.284767126531     1.689135849454     1.007825032230
         C           -1.207738094500    -0.297407126531     1.290852849454    12.000000000000
         O           -2.405526094500    -0.146583126531     1.148739849454    15.994914619570

  Charge       = 0
  Multiplicity = 1
  Basis Set: AUG-CC-PVQZ
    Blend: AUG-CC-PVQZ
  Basis Set: (AUG-CC-PVQZ AUX)
    Blend: AUG-CC-PVQZ-JKFIT

    Orbital Energies [Eh]
    ---------------------

    Doubly Occupied:

       1A    -20.536591     2A    -20.531342     3A    -15.635197
       4A    -15.615514     5A    -11.409935     6A    -11.372296
       7A    -11.332627     8A    -11.247705     9A    -11.236944
      10A    -11.234225    11A    -11.233578    12A    -11.233006
      13A    -11.232459    14A    -11.231693    15A     -1.427997
      16A     -1.390066    17A     -1.305702    18A     -1.237664
      19A     -1.150769    20A     -1.081092    21A     -1.015415
      22A     -1.014570    23A     -0.926144    24A     -0.894153
      25A     -0.824480    26A     -0.823804    27A     -0.800192
      28A     -0.758019    29A     -0.709947    30A     -0.707371
      31A     -0.671070    32A     -0.663031    33A     -0.646339
      34A     -0.643998    35A     -0.619096    36A     -0.608584
      37A     -0.595217    38A     -0.588672    39A     -0.587669
      40A     -0.565020    41A     -0.520716    42A     -0.500821
      43A     -0.494940    44A     -0.494551    45A     -0.476354
      46A     -0.442729    47A     -0.429410    48A     -0.363533
      49A     -0.338534    50A     -0.335531

  @DF-RHF Final Energy:  -643.43853952780796

   => Energetics <=

    Nuclear Repulsion Energy =            880.0101191754513366
    One-Electron Energy =               -2623.4246660629628423
    Two-Electron Energy =                1099.9760073597035444
    Total Energy =                       -643.4385395278079613

  Dipole Moment: [D]
     X:     0.5447      Y:    -4.5034      Z:     0.7412     Total:     4.5964

  Basis Set: (AUG-CC-PVQZ AUX)
    Blend: AUG-CC-PVQZ-RI
	 Reference Energy          =    -643.4385395278079613 [Eh]
	 Singles Energy            =      -0.0000000000000000 [Eh]
	 Same-Spin Energy          =      -0.7181793561345576 [Eh]
	 Opposite-Spin Energy      =      -2.3177626368960684 [Eh]
	 Correlation Energy        =      -3.0359419930306260 [Eh]
	 Total Energy              =    -646.4744815208385944 [Eh]

	 ================> DF-SCS-MP2 Energies <==================
	-----------------------------------------------------------
	 SCS Same-Spin Scale       =       0.3333333333333333 [-]
	 SCS Opposite-Spin Scale   =       1.2000000000000000 [-]
	 SCS Same-Spin Energy      =      -0.2393931187115192 [Eh]
	 SCS Opposite-Spin Energy  =      -2.7813151642752820 [Eh]
	 SCS Correlation Energy    =      -3.0207082829868011 [Eh]
	 SCS Total Energy          =    -646.4592478107947500 [Eh]
	-----------------------------------------------------------

*** Psi4 exiting successfully. Buy a developer a beer!
