                               Psi4 1.4a2.dev224

  ==> Input File <==

--------------------------------------------------------------------------
#Generated by lconvert.py for cbs job

memory 40 GB

molecule  {
0 1
  C        0.8257690     1.2365250    -0.0402500
  H        1.5210130     2.0631250    -0.0824710
  C        1.3001600    -0.0629410     0.1272560
  H        2.3636580    -0.2422610     0.2076740
  C        0.4035230    -1.1285520     0.1982450
  H        0.7737530    -2.1374270     0.3241210
  C       -0.9678090    -0.8951900     0.1031400
  H       -1.6652090    -1.7199830     0.1604270
  C       -1.4435080     0.4044830    -0.0624410
  H       -2.5075110     0.5855010    -0.1241500
  C       -0.5457550     1.4687690    -0.1362470
  H       -0.9142220     2.4774220    -0.2678550
--
0 1
  N       -0.2816570     0.6906350     3.0397470
  H       -0.6549650     1.5923970     2.7768540
  C        1.1104890     0.6176480     3.1717600
  O        1.8014000     1.6120720     3.0269260
  C        1.5893900    -0.7164290     3.4898710
  H        2.6464420    -0.8686450     3.6239920
  C        0.7096800    -1.7308110     3.6160870
  H        1.0156080    -2.7392310     3.8526110
  N       -0.6355660    -1.5457790     3.4459950
  H       -1.2843130    -2.3083380     3.5448640
  C       -1.2100140    -0.3209780     3.1465800
  O       -2.4078020    -0.1701540     3.0044680
units angstrom
no_reorient
symmetry c1
}

set {
scf_type DF
mp2_type DF
e_convergence 7
reference rhf
}

energy('mp2/aug-cc-pv[tq]z', bsse_type='cp')
--------------------------------------------------------------------------

    Molecular point group: c1
  Charge       = 0
  Multiplicity = 1
  Basis Set: AUG-CC-PVTZ
    Blend: AUG-CC-PVTZ
  Basis Set: (AUG-CC-PVTZ AUX)
    Blend: AUG-CC-PVTZ-JKFIT
  @DF-RHF Final Energy:  -412.62454281765457
    Total Energy =                       -412.6245428176545715
  Basis Set: (AUG-CC-PVTZ AUX)
    Blend: AUG-CC-PVTZ-RI
	 Reference Energy          =    -412.6245428176545715 [Eh]
	 Singles Energy            =      -0.0000000000000000 [Eh]
	 Same-Spin Energy          =      -0.4141316997106012 [Eh]
	 Opposite-Spin Energy      =      -1.2264106473821712 [Eh]
	 Correlation Energy        =      -1.6405423470927722 [Eh]
	 Total Energy              =    -414.2650851647473473 [Eh]
	 SCS Total Energy          =    -414.2342794944166826 [Eh]
    Molecular point group: c1
  Basis Set: AUG-CC-PVQZ
    Blend: AUG-CC-PVQZ
  Basis Set: (AUG-CC-PVQZ AUX)
    Blend: AUG-CC-PVQZ-JKFIT
  @DF-RHF Final Energy:  -412.65007737312305
    Total Energy =                       -412.6500773731230538
  Basis Set: (AUG-CC-PVQZ AUX)
  @DF-RHF Final Energy:  -412.62492116655847
    Total Energy =                       -412.6249211665584653
  @DF-RHF Final Energy:  -412.65017483899356
    Total Energy =                       -412.6501748389935642
  @DF-RHF Final Energy:  -230.78149297843316
    Total Energy =                       -230.7814929784331639
  @DF-RHF Final Energy:  -230.79442651076960
    Total Energy =                       -230.7944265107695969
  @DF-RHF Final Energy:  -230.78118686273399
    Total Energy =                       -230.7811868627339891
  @DF-RHF Final Energy:  -230.79435918848071
    Total Energy =                       -230.7943591884807120
  Multiplicity = 1
  @DF-RHF Final Energy:  -643.39559181067079
    Total Energy =                       -643.3955918106707941
	 Singles Energy            =      -0.0000000000000000 [Eh]
	 Same-Spin Energy          =      -0.6811601479110861 [Eh]
	 Opposite-Spin Energy      =      -2.0631510428856270 [Eh]
	 Correlation Energy        =      -2.7443111907967133 [Eh]
	 Total Energy              =    -646.1399030014674736 [Eh]
	 SCS Total Energy          =    -646.0984264447705527 [Eh]
    Molecular point group: c1

    Geometry (in Angstrom), charge = 0, multiplicity = 1:

       Center              X                  Y                   Z               Mass
    ------------   -----------------  -----------------  -----------------  -----------------
         C            0.825641724373     1.266851278665    -1.959425035488    12.000000000000
         H            1.520885724373     2.093451278665    -2.001646035488     1.007825032230
         C            1.300032724373    -0.032614721335    -1.791919035488    12.000000000000
         H            2.363530724373    -0.211934721335    -1.711501035488     1.007825032230
         C            0.403395724373    -1.098225721335    -1.720930035488    12.000000000000
         H            0.773625724373    -2.107100721335    -1.595054035488     1.007825032230
         C           -0.967936275627    -0.864863721335    -1.816035035488    12.000000000000
         H           -1.665336275627    -1.689656721335    -1.758748035488     1.007825032230
         C           -1.443635275627     0.434809278665    -1.981616035488    12.000000000000
         H           -2.507638275627     0.615827278665    -2.043325035488     1.007825032230
         C           -0.545882275627     1.499095278665    -2.055422035488    12.000000000000
         H           -0.914349275627     2.507748278665    -2.187030035488     1.007825032230
         N           -0.281784275627     0.720961278665     1.120571964512    14.003074004430
         H           -0.655092275627     1.622723278665     0.857678964512     1.007825032230
         C            1.110361724373     0.647974278665     1.252584964512    12.000000000000
         O            1.801272724373     1.642398278665     1.107750964512    15.994914619570
         C            1.589262724373    -0.686102721335     1.570695964512    12.000000000000
         H            2.646314724373    -0.838318721335     1.704816964512     1.007825032230
         C            0.709552724373    -1.700484721335     1.696911964512    12.000000000000
         H            1.015480724373    -2.708904721335     1.933435964512     1.007825032230
         N           -0.635693275627    -1.515452721335     1.526819964512    14.003074004430
         H           -1.284440275627    -2.278011721335     1.625688964512     1.007825032230
         C           -1.210141275627    -0.290651721335     1.227404964512    12.000000000000
         O           -2.407929275627    -0.139827721335     1.085292964512    15.994914619570

  Charge       = 0
  Multiplicity = 1
  Basis Set: AUG-CC-PVQZ
    Blend: AUG-CC-PVQZ
  Basis Set: (AUG-CC-PVQZ AUX)
    Blend: AUG-CC-PVQZ-JKFIT

    Orbital Energies [Eh]
    ---------------------

    Doubly Occupied:

       1A    -20.535987     2A    -20.530805     3A    -15.634707
       4A    -15.614516     5A    -11.409436     6A    -11.371889
       7A    -11.331928     8A    -11.247280     9A    -11.237249
      10A    -11.233932    11A    -11.233187    12A    -11.232672
      13A    -11.232072    14A    -11.231311    15A     -1.427667
      16A     -1.389849    17A     -1.305293    18A     -1.237193
      19A     -1.151033    20A     -1.080747    21A     -1.015730
      22A     -1.014726    23A     -0.925734    24A     -0.893688
      25A     -0.824665    26A     -0.823918    27A     -0.799813
      28A     -0.757587    29A     -0.710180    30A     -0.706872
      31A     -0.670851    32A     -0.663823    33A     -0.646045
      34A     -0.644043    35A     -0.619117    36A     -0.608309
      37A     -0.594921    38A     -0.588871    39A     -0.587695
      40A     -0.565552    41A     -0.521011    42A     -0.499350
      43A     -0.495012    44A     -0.494462    45A     -0.475801
      46A     -0.442390    47A     -0.429097    48A     -0.363780
      49A     -0.338410    50A     -0.334741

  @DF-RHF Final Energy:  -643.43378019143154

   => Energetics <=

    Nuclear Repulsion Energy =            891.0410169447593489
    One-Electron Energy =               -2645.4996807426614396
    Two-Electron Energy =                1111.0248836064704392
    Total Energy =                       -643.4337801914316515

  Dipole Moment: [D]
     X:     0.5467      Y:    -4.4906      Z:     0.7414     Total:     4.5841

  Basis Set: (AUG-CC-PVQZ AUX)
    Blend: AUG-CC-PVQZ-RI
	 Reference Energy          =    -643.4337801914315378 [Eh]
	 Singles Energy            =      -0.0000000000000000 [Eh]
	 Same-Spin Energy          =      -0.7204686321712754 [Eh]
	 Opposite-Spin Energy      =      -2.3206198769209703 [Eh]
	 Correlation Energy        =      -3.0410885090922459 [Eh]
	 Total Energy              =    -646.4748687005237571 [Eh]

	 ================> DF-SCS-MP2 Energies <==================
	-----------------------------------------------------------
	 SCS Same-Spin Scale       =       0.3333333333333333 [-]
	 SCS Opposite-Spin Scale   =       1.2000000000000000 [-]
	 SCS Same-Spin Energy      =      -0.2401562107237585 [Eh]
	 SCS Opposite-Spin Energy  =      -2.7847438523051644 [Eh]
	 SCS Correlation Energy    =      -3.0249000630289231 [Eh]
	 SCS Total Energy          =    -646.4586802544604325 [Eh]
	-----------------------------------------------------------

*** Psi4 exiting successfully. Buy a developer a beer!
