                               Psi4 1.4a2.dev224

  ==> Input File <==

--------------------------------------------------------------------------
#Generated by lconvert.py for cbs job

memory 40 GB

molecule  {
0 1
  C        0.8257690     1.2365250    -0.0402500
  H        1.5210130     2.0631250    -0.0824710
  C        1.3001600    -0.0629410     0.1272560
  H        2.3636580    -0.2422610     0.2076740
  C        0.4035230    -1.1285520     0.1982450
  H        0.7737530    -2.1374270     0.3241210
  C       -0.9678090    -0.8951900     0.1031400
  H       -1.6652090    -1.7199830     0.1604270
  C       -1.4435080     0.4044830    -0.0624410
  H       -2.5075110     0.5855010    -0.1241500
  C       -0.5457550     1.4687690    -0.1362470
  H       -0.9142220     2.4774220    -0.2678550
--
0 1
  N       -0.2875230     0.7071220     2.8848990
  H       -0.6608300     1.6088840     2.6220060
  C        1.1046240     0.6341350     3.0169120
  O        1.7955340     1.6285590     2.8720780
  C        1.5835240    -0.6999420     3.3350230
  H        2.6405760    -0.8521580     3.4691440
  C        0.7038150    -1.7143230     3.4612390
  H        1.0097420    -2.7227440     3.6977630
  N       -0.6414310    -1.5292920     3.2911470
  H       -1.2901790    -2.2918500     3.3900160
  C       -1.2158790    -0.3044900     2.9917320
  O       -2.4136680    -0.1536670     2.8496200
units angstrom
no_reorient
symmetry c1
}

set {
scf_type DF
mp2_type DF
e_convergence 7
reference rhf
}

energy('mp2/aug-cc-pv[tq]z', bsse_type='cp')
--------------------------------------------------------------------------

    Molecular point group: c1
  Charge       = 0
  Multiplicity = 1
  Basis Set: AUG-CC-PVTZ
    Blend: AUG-CC-PVTZ
  Basis Set: (AUG-CC-PVTZ AUX)
    Blend: AUG-CC-PVTZ-JKFIT
  @DF-RHF Final Energy:  -412.62454285424724
    Total Energy =                       -412.6245428542472382
  Basis Set: (AUG-CC-PVTZ AUX)
    Blend: AUG-CC-PVTZ-RI
	 Reference Energy          =    -412.6245428542472382 [Eh]
	 Singles Energy            =      -0.0000000000000000 [Eh]
	 Same-Spin Energy          =      -0.4141316961821246 [Eh]
	 Opposite-Spin Energy      =      -1.2264106254923883 [Eh]
	 Correlation Energy        =      -1.6405423216745130 [Eh]
	 Total Energy              =    -414.2650851759217403 [Eh]
	 SCS Total Energy          =    -414.2342795035654603 [Eh]
    Molecular point group: c1
  Basis Set: AUG-CC-PVQZ
    Blend: AUG-CC-PVQZ
  Basis Set: (AUG-CC-PVQZ AUX)
    Blend: AUG-CC-PVQZ-JKFIT
  @DF-RHF Final Energy:  -412.65007740503137
    Total Energy =                       -412.6500774050313680
  Basis Set: (AUG-CC-PVQZ AUX)
  @DF-RHF Final Energy:  -412.62497325308101
    Total Energy =                       -412.6249732530810093
  @DF-RHF Final Energy:  -412.65018637939187
    Total Energy =                       -412.6501863793918687
  @DF-RHF Final Energy:  -230.78152845063022
    Total Energy =                       -230.7815284506302191
  @DF-RHF Final Energy:  -230.79443508842007
    Total Energy =                       -230.7944350884200730
  @DF-RHF Final Energy:  -230.78118685950255
    Total Energy =                       -230.7811868595025544
  @DF-RHF Final Energy:  -230.79435918327431
    Total Energy =                       -230.7943591832743095
  Multiplicity = 1
  @DF-RHF Final Energy:  -643.38787351188296
    Total Energy =                       -643.3878735118828445
	 Singles Energy            =      -0.0000000000000000 [Eh]
	 Same-Spin Energy          =      -0.6841063661264899 [Eh]
	 Opposite-Spin Energy      =      -2.0674796262417736 [Eh]
	 Correlation Energy        =      -2.7515859923682635 [Eh]
	 Total Energy              =    -646.1394595042512492 [Eh]
	 SCS Total Energy          =    -646.0968845187485385 [Eh]
    Molecular point group: c1

    Geometry (in Angstrom), charge = 0, multiplicity = 1:

       Center              X                  Y                   Z               Mass
    ------------   -----------------  -----------------  -----------------  -----------------
         C            0.829098800098     1.257133923748    -1.868159638443    12.000000000000
         H            1.524342800098     2.083733923748    -1.910380638443     1.007825032230
         C            1.303489800098    -0.042332076252    -1.700653638443    12.000000000000
         H            2.366987800098    -0.221652076252    -1.620235638443     1.007825032230
         C            0.406852800098    -1.107943076252    -1.629664638443    12.000000000000
         H            0.777082800098    -2.116818076253    -1.503788638443     1.007825032230
         C           -0.964479199902    -0.874581076252    -1.724769638443    12.000000000000
         H           -1.661879199902    -1.699374076252    -1.667482638443     1.007825032230
         C           -1.440178199902     0.425091923748    -1.890350638443    12.000000000000
         H           -2.504181199902     0.606109923748    -1.952059638443     1.007825032230
         C           -0.542425199902     1.489377923748    -1.964156638443    12.000000000000
         H           -0.910892199902     2.498030923747    -2.095764638443     1.007825032230
         N           -0.284193199902     0.727730923748     1.056989361557    14.003074004430
         H           -0.657500199902     1.629492923748     0.794096361557     1.007825032230
         C            1.107953800098     0.654743923748     1.189002361557    12.000000000000
         O            1.798863800098     1.649167923748     1.044168361557    15.994914619570
         C            1.586853800098    -0.679333076252     1.507113361557    12.000000000000
         H            2.643905800098    -0.831549076252     1.641234361557     1.007825032230
         C            0.707144800098    -1.693714076252     1.633329361557    12.000000000000
         H            1.013071800098    -2.702135076253     1.869853361557     1.007825032230
         N           -0.638101199902    -1.508683076252     1.463237361557    14.003074004430
         H           -1.286849199902    -2.271241076253     1.562106361557     1.007825032230
         C           -1.212549199902    -0.283881076252     1.163822361557    12.000000000000
         O           -2.410338199902    -0.133058076252     1.021710361557    15.994914619570

  Charge       = 0
  Multiplicity = 1
  Basis Set: AUG-CC-PVQZ
    Blend: AUG-CC-PVQZ
  Basis Set: (AUG-CC-PVQZ AUX)
    Blend: AUG-CC-PVQZ-JKFIT

    Orbital Energies [Eh]
    ---------------------

    Doubly Occupied:

       1A    -20.535348     2A    -20.530233     3A    -15.634185
       4A    -15.613380     5A    -11.408999     6A    -11.371570
       7A    -11.331105     8A    -11.246886     9A    -11.237621
      10A    -11.233498    11A    -11.232630    12A    -11.232192
      13A    -11.231481    14A    -11.230719    15A     -1.427490
      16A     -1.389792    17A     -1.304966    18A     -1.236866
      19A     -1.151366    20A     -1.080517    21A     -1.016139
      22A     -1.014981    23A     -0.925394    24A     -0.893316
      25A     -0.824946    26A     -0.824094    27A     -0.799519
      28A     -0.757204    29A     -0.710544    30A     -0.706388
      31A     -0.670823    32A     -0.665242    33A     -0.645835
      34A     -0.644092    35A     -0.619157    36A     -0.608124
      37A     -0.594716    38A     -0.589120    39A     -0.587778
      40A     -0.566485    41A     -0.521550    42A     -0.497168
      43A     -0.495091    44A     -0.494334    45A     -0.475166
      46A     -0.442101    47A     -0.428874    48A     -0.364325
      49A     -0.337988    50A     -0.333369

  @DF-RHF Final Energy:  -643.42599530826010

   => Energetics <=

    Nuclear Repulsion Energy =            902.7880626442693028
    One-Electron Energy =               -2668.9986903876947508
    Two-Electron Energy =                1122.7846324351653493
    Total Energy =                       -643.4259953082600987

  Dipole Moment: [D]
     X:     0.5506      Y:    -4.4801      Z:     0.7485     Total:     4.5754

  Basis Set: (AUG-CC-PVQZ AUX)
    Blend: AUG-CC-PVQZ-RI
	 Reference Energy          =    -643.4259953082600987 [Eh]
	 Singles Energy            =      -0.0000000000000000 [Eh]
	 Same-Spin Energy          =      -0.7233836832720575 [Eh]
	 Opposite-Spin Energy      =      -2.3242988325325888 [Eh]
	 Correlation Energy        =      -3.0476825158046461 [Eh]
	 Total Energy              =    -646.4736778240647936 [Eh]

	 ================> DF-SCS-MP2 Energies <==================
	-----------------------------------------------------------
	 SCS Same-Spin Scale       =       0.3333333333333333 [-]
	 SCS Opposite-Spin Scale   =       1.2000000000000000 [-]
	 SCS Same-Spin Energy      =      -0.2411278944240192 [Eh]
	 SCS Opposite-Spin Energy  =      -2.7891585990391063 [Eh]
	 SCS Correlation Energy    =      -3.0302864934631257 [Eh]
	 SCS Total Energy          =    -646.4562818017232075 [Eh]
	-----------------------------------------------------------

*** Psi4 exiting successfully. Buy a developer a beer!
