                               Psi4 1.4a2.dev224

  ==> Input File <==

--------------------------------------------------------------------------
#Generated by lconvert.py for cbs job

memory 20 GB

molecule  {
0 1
  C       0.825770    1.236530   -0.040250
  H       1.521010    2.063120   -0.082470
  C       1.300160   -0.062940    0.127260
  H       2.363660   -0.242260    0.207670
  C       0.403520   -1.128550    0.198250
  H       0.773750   -2.137430    0.324120
  C      -0.967810   -0.895190    0.103140
  H      -1.665210   -1.719980    0.160430
  C      -1.443510    0.404480   -0.062440
  H      -2.507510    0.585500   -0.124150
  C      -0.545750    1.468770   -0.136250
  H      -0.914220    2.477420   -0.267860
--
0 1
  N      -0.204990    0.475130    5.063790
  H      -0.578300    1.376890    4.800900
  C       1.187160    0.402140    5.195810
  O       1.878070    1.396560    5.050970
  C       1.666060   -0.931940    5.513920
  H       2.723110   -1.084150    5.648040
  C       0.786350   -1.946320    5.640130
  H       1.092280   -2.954740    5.876660
  N      -0.558900   -1.761290    5.470040
  H      -1.207640   -2.523850    5.568910
  C      -1.133350   -0.536480    5.170630
  O      -2.331130   -0.385660    5.028510
units angstrom
no_reorient
symmetry c1
}

set {
scf_type DF
mp2_type DF
e_convergence 7
reference rhf
}

energy('mp2/aug-cc-pv[tq]z', bsse_type='cp')
--------------------------------------------------------------------------

    Molecular point group: c1
  Charge       = 0
  Multiplicity = 1
  Basis Set: AUG-CC-PVTZ
    Blend: AUG-CC-PVTZ
  Basis Set: (AUG-CC-PVTZ AUX)
    Blend: AUG-CC-PVTZ-JKFIT
  @DF-RHF Final Energy:  -412.62454377777664
    Total Energy =                       -412.6245437777766369
  Basis Set: (AUG-CC-PVTZ AUX)
    Blend: AUG-CC-PVTZ-RI
	 Reference Energy          =    -412.6245437777766369 [Eh]
	 Singles Energy            =      -0.0000000000000000 [Eh]
	 Same-Spin Energy          =      -0.4141313179840659 [Eh]
	 Opposite-Spin Energy      =      -1.2264100700642671 [Eh]
	 Correlation Energy        =      -1.6405413880483330 [Eh]
	 Total Energy              =    -414.2650851658249849 [Eh]
	 SCS Total Energy          =    -414.2342796345151328 [Eh]
    Molecular point group: c1
  Basis Set: AUG-CC-PVQZ
    Blend: AUG-CC-PVQZ
  Basis Set: (AUG-CC-PVQZ AUX)
    Blend: AUG-CC-PVQZ-JKFIT
  @DF-RHF Final Energy:  -412.65007837933291
    Total Energy =                       -412.6500783793329106
  Basis Set: (AUG-CC-PVQZ AUX)
  @DF-RHF Final Energy:  -412.62459299017337
    Total Energy =                       -412.6245929901733689
  @DF-RHF Final Energy:  -412.65009940631347
    Total Energy =                       -412.6500994063134726
  @DF-RHF Final Energy:  -230.78124729209992
    Total Energy =                       -230.7812472920999198
  @DF-RHF Final Energy:  -230.79437618609450
    Total Energy =                       -230.7943761860944960
  @DF-RHF Final Energy:  -230.78118687328498
    Total Energy =                       -230.7811868732849803
  @DF-RHF Final Energy:  -230.79435920481473
    Total Energy =                       -230.7943592048147252
  Multiplicity = 1
  @DF-RHF Final Energy:  -643.40609181536126
    Total Energy =                       -643.4060918153612647
	 Singles Energy            =      -0.0000000000000000 [Eh]
	 Same-Spin Energy          =      -0.6703787413676301 [Eh]
	 Opposite-Spin Energy      =      -2.0464345710710377 [Eh]
	 Correlation Energy        =      -2.7168133124386680 [Eh]
	 Total Energy              =    -646.1229051277999815 [Eh]
	 SCS Total Energy          =    -646.0852728811023553 [Eh]
    Molecular point group: c1

    Geometry (in Angstrom), charge = 0, multiplicity = 1:

       Center              X                  Y                   Z               Mass
    ------------   -----------------  -----------------  -----------------  -----------------
         C            0.780455107917     1.393873596341    -3.152371562614    12.000000000000
         H            1.475695107917     2.220463596341    -3.194591562614     1.007825032230
         C            1.254845107917     0.094403596341    -2.984861562614    12.000000000000
         H            2.318345107917    -0.084916403659    -2.904451562614     1.007825032230
         C            0.358205107917    -0.971206403659    -2.913871562614    12.000000000000
         H            0.728435107917    -1.980086403659    -2.788001562614     1.007825032230
         C           -1.013124892083    -0.737846403659    -3.008981562614    12.000000000000
         H           -1.710524892083    -1.562636403659    -2.951691562614     1.007825032230
         C           -1.488824892083     0.561823596341    -3.174561562614    12.000000000000
         H           -2.552824892083     0.742843596341    -3.236271562614     1.007825032230
         C           -0.591064892083     1.626113596341    -3.248371562614    12.000000000000
         H           -0.959534892083     2.634763596341    -3.379981562614     1.007825032230
         N           -0.250304892083     0.632473596341     1.951668437386    14.003074004430
         H           -0.623614892083     1.534233596341     1.688778437386     1.007825032230
         C            1.141845107917     0.559483596341     2.083688437386    12.000000000000
         O            1.832755107917     1.553903596341     1.938848437386    15.994914619570
         C            1.620745107917    -0.774596403659     2.401798437386    12.000000000000
         H            2.677795107917    -0.926806403659     2.535918437386     1.007825032230
         C            0.741035107917    -1.788976403659     2.528008437386    12.000000000000
         H            1.046965107917    -2.797396403659     2.764538437386     1.007825032230
         N           -0.604214892083    -1.603946403659     2.357918437386    14.003074004430
         H           -1.252954892083    -2.366506403659     2.456788437386     1.007825032230
         C           -1.178664892083    -0.379136403659     2.058508437386    12.000000000000
         O           -2.376444892083    -0.228316403659     1.916388437386    15.994914619570

  Charge       = 0
  Multiplicity = 1
  Basis Set: AUG-CC-PVQZ
    Blend: AUG-CC-PVQZ
  Basis Set: (AUG-CC-PVQZ AUX)
    Blend: AUG-CC-PVQZ-JKFIT

    Orbital Energies [Eh]
    ---------------------

    Doubly Occupied:

       1A    -20.541663     2A    -20.535985     3A    -15.639551
       4A    -15.622263     5A    -11.414894     6A    -11.376798
       7A    -11.337157     8A    -11.251718     9A    -11.234641
      10A    -11.233708    11A    -11.233535    12A    -11.232685
      13A    -11.232225    14A    -11.231590    15A     -1.432804
      16A     -1.394214    17A     -1.310317    18A     -1.243221
      19A     -1.148895    20A     -1.085311    21A     -1.013551
      22A     -1.013249    23A     -0.930656    24A     -0.899302
      25A     -0.823135    26A     -0.822694    27A     -0.804618
      28A     -0.762555    29A     -0.712106    30A     -0.708595
      31A     -0.675018    32A     -0.666101    33A     -0.650233
      34A     -0.643136    35A     -0.618042    36A     -0.612356
      37A     -0.599103    38A     -0.587190    39A     -0.586898
      40A     -0.567798    41A     -0.523609    42A     -0.501552
      43A     -0.494196    44A     -0.493603    45A     -0.481014
      46A     -0.446852    47A     -0.434217    48A     -0.366348
      49A     -0.336079    50A     -0.335715

  @DF-RHF Final Energy:  -643.44472391986722

   => Energetics <=

    Nuclear Repulsion Energy =            785.5218995721468218
    One-Electron Energy =               -2434.2478353269352738
    Two-Electron Energy =                1005.2812118349212369
    Total Energy =                       -643.4447239198672150

  Dipole Moment: [D]
     X:     0.5573      Y:    -4.6737      Z:     0.9194     Total:     4.7958

  Basis Set: (AUG-CC-PVQZ AUX)
    Blend: AUG-CC-PVQZ-RI
	 Reference Energy          =    -643.4447239198672150 [Eh]
	 Singles Energy            =      -0.0000000000000000 [Eh]
	 Same-Spin Energy          =      -0.7099535091114797 [Eh]
	 Opposite-Spin Energy      =      -2.3075932207641920 [Eh]
	 Correlation Energy        =      -3.0175467298756717 [Eh]
	 Total Energy              =    -646.4622706497428908 [Eh]

	 ================> DF-SCS-MP2 Energies <==================
	-----------------------------------------------------------
	 SCS Same-Spin Scale       =       0.3333333333333333 [-]
	 SCS Opposite-Spin Scale   =       1.2000000000000000 [-]
	 SCS Same-Spin Energy      =      -0.2366511697038265 [Eh]
	 SCS Opposite-Spin Energy  =      -2.7691118649170305 [Eh]
	 SCS Correlation Energy    =      -3.0057630346208573 [Eh]
	 SCS Total Energy          =    -646.4504869544880421 [Eh]
	-----------------------------------------------------------

*** Psi4 exiting successfully. Buy a developer a beer!
