                               Psi4 1.4a2.dev224

  ==> Input File <==

--------------------------------------------------------------------------
#Generated by lconvert.py for cbs job

memory 40 GB

molecule  {
0 1
  C        0.8257690     1.2365250    -0.0402500
  H        1.5210130     2.0631250    -0.0824710
  C        1.3001600    -0.0629410     0.1272560
  H        2.3636580    -0.2422610     0.2076740
  C        0.4035230    -1.1285520     0.1982450
  H        0.7737530    -2.1374270     0.3241210
  C       -0.9678090    -0.8951900     0.1031400
  H       -1.6652090    -1.7199830     0.1604270
  C       -1.4435080     0.4044830    -0.0624410
  H       -2.5075110     0.5855010    -0.1241500
  C       -0.5457550     1.4687690    -0.1362470
  H       -0.9142220     2.4774220    -0.2678550
--
0 1
  N       -0.3111140     0.7734350     2.2620870
  H       -0.6844220     1.6751960     1.9991940
  C        1.0810320     0.7004480     2.3941000
  O        1.7719430     1.6948720     2.2492660
  C        1.5599320    -0.6336300     2.7122110
  H        2.6169840    -0.7858460     2.8463320
  C        0.6802230    -1.6480110     2.8384270
  H        0.9861510    -2.6564320     3.0749510
  N       -0.6650230    -1.4629790     2.6683350
  H       -1.3137710    -2.2255380     2.7672040
  C       -1.2394710    -0.2381780     2.3689200
  O       -2.4372590    -0.0873550     2.2268080
units angstrom
no_reorient
symmetry c1
}

set {
scf_type DF
mp2_type DF
e_convergence 7
reference rhf
}

energy('mp2/aug-cc-pv[tq]z', bsse_type='cp')
--------------------------------------------------------------------------

    Molecular point group: c1
  Charge       = 0
  Multiplicity = 1
  Basis Set: AUG-CC-PVTZ
    Blend: AUG-CC-PVTZ
  Basis Set: (AUG-CC-PVTZ AUX)
    Blend: AUG-CC-PVTZ-JKFIT
  @DF-RHF Final Energy:  -412.62454287545324
    Total Energy =                       -412.6245428754532441
  Basis Set: (AUG-CC-PVTZ AUX)
    Blend: AUG-CC-PVTZ-RI
	 Reference Energy          =    -412.6245428754532441 [Eh]
	 Singles Energy            =      -0.0000000000000000 [Eh]
	 Same-Spin Energy          =      -0.4141316824907519 [Eh]
	 Opposite-Spin Energy      =      -1.2264106140809075 [Eh]
	 Correlation Energy        =      -1.6405422965716594 [Eh]
	 Total Energy              =    -414.2650851720248966 [Eh]
	 SCS Total Energy          =    -414.2342795065139285 [Eh]
    Molecular point group: c1
  Basis Set: AUG-CC-PVQZ
    Blend: AUG-CC-PVQZ
  Basis Set: (AUG-CC-PVQZ AUX)
    Blend: AUG-CC-PVQZ-JKFIT
  @DF-RHF Final Energy:  -412.65007743292068
    Total Energy =                       -412.6500774329206820
  Basis Set: (AUG-CC-PVQZ AUX)
  @DF-RHF Final Energy:  -412.62526336323629
    Total Energy =                       -412.6252633632362858
  @DF-RHF Final Energy:  -412.65024569902971
    Total Energy =                       -412.6502456990297105
  @DF-RHF Final Energy:  -230.78176633054554
    Total Energy =                       -230.7817663305455085
  @DF-RHF Final Energy:  -230.79447075346343
    Total Energy =                       -230.7944707534634290
  @DF-RHF Final Energy:  -230.78118686259427
    Total Energy =                       -230.7811868625942680
  @DF-RHF Final Energy:  -230.79435918654059
    Total Energy =                       -230.7943591865405892
  @DF-RHF Final Energy:  -643.27447065361685
    Total Energy =                       -643.2744706536168451
  @DF-RHF Final Energy:  -643.31228338352889
    Total Energy =                       -643.3122833835288930
*** Psi4 exiting successfully. Buy a developer a beer!
                               Psi4 1.4a2.dev224
  @DF-RHF Final Energy:  -412.62454282926024
    Total Energy =                       -412.6245428292602355
  @DF-RHF Final Energy:  -412.65007738816649
    Total Energy =                       -412.6500773881664941
  @DF-RHF Final Energy:  -412.62509710161726
    Total Energy =                       -412.6250971016172571
  @DF-RHF Final Energy:  -412.65021248678340
    Total Energy =                       -412.6502124867834027
  @DF-RHF Final Energy:  -230.78162626271052
    Total Energy =                       -230.7816262627105175
  @DF-RHF Final Energy:  -230.79445244563914
    Total Energy =                       -230.7944524456391377
  @DF-RHF Final Energy:  -230.78118686200798
    Total Energy =                       -230.7811868620079849
  @DF-RHF Final Energy:  -230.79435918625353
    Total Energy =                       -230.7943591862535300
  @DF-RHF Final Energy:  -643.35541289087280
    Total Energy =                       -643.3554128908729126
  @DF-RHF Final Energy:  -643.39338342777319
    Total Energy =                       -643.3933834277731876
*** Psi4 exiting successfully. Buy a developer a beer!
                               Psi4 1.4a2.dev224
                               Psi4 1.4a2.dev224
                               Psi4 1.4a2.dev224
                               Psi4 1.4a2.dev224
                               Psi4 1.4a2.dev224
                               Psi4 1.4a2.dev224
                               Psi4 1.4a2.dev224
  @DF-RHF Final Energy:  -412.62454377777664
    Total Energy =                       -412.6245437777766369
  @DF-RHF Final Energy:  -412.65007837933291
    Total Energy =                       -412.6500783793329106
  @DF-RHF Final Energy:  -412.62459299017337
    Total Energy =                       -412.6245929901733689
  @DF-RHF Final Energy:  -412.65009940631347
    Total Energy =                       -412.6500994063134726
  @DF-RHF Final Energy:  -230.78124729209992
    Total Energy =                       -230.7812472920999198
  @DF-RHF Final Energy:  -230.79437618609450
    Total Energy =                       -230.7943761860944960
  @DF-RHF Final Energy:  -230.78118687328498
    Total Energy =                       -230.7811868732849803
  @DF-RHF Final Energy:  -230.79435920481473
    Total Energy =                       -230.7943592048147252
  @DF-RHF Final Energy:  -643.40609181536126
    Total Energy =                       -643.4060918153612647
  @DF-RHF Final Energy:  -643.44472391986722
    Total Energy =                       -643.4447239198672150
*** Psi4 exiting successfully. Buy a developer a beer!
                               Psi4 1.4a2.dev224
  @DF-RHF Final Energy:  -412.62454205818062
    Total Energy =                       -412.6245420581806229
  @DF-RHF Final Energy:  -412.65007658642321
    Total Energy =                       -412.6500765864232108
  @DF-RHF Final Energy:  -412.62456384669844
    Total Energy =                       -412.6245638466984360
  @DF-RHF Final Energy:  -412.65008505076878
    Total Energy =                       -412.6500850507687801
  @DF-RHF Final Energy:  -230.78121790394181
    Total Energy =                       -230.7812179039418083
  @DF-RHF Final Energy:  -230.79436882602789
    Total Energy =                       -230.7943688260278918
  @DF-RHF Final Energy:  -230.78118687586692
    Total Energy =                       -230.7811868758669220
  @DF-RHF Final Energy:  -230.79435920205998
    Total Energy =                       -230.7943592020599795
  Multiplicity = 1
  @DF-RHF Final Energy:  -643.40583876616915
    Total Energy =                       -643.4058387661691540
	 Singles Energy            =      -0.0000000000000000 [Eh]
	 Same-Spin Energy          =      -0.6698455303875558 [Eh]
	 Opposite-Spin Energy      =      -2.0454846064228467 [Eh]
	 Correlation Energy        =      -2.7153301368104024 [Eh]
	 Total Energy              =    -646.1211689029795480 [Eh]
	 SCS Total Energy          =    -646.0837021373390598 [Eh]
    Molecular point group: c1

    Geometry (in Angstrom), charge = 0, multiplicity = 1:

       Center              X                  Y                   Z               Mass
    ------------   -----------------  -----------------  -----------------  -----------------
         C            0.759548130215     1.452639110803    -3.704305221482    12.000000000000
         H            1.454788130215     2.279229110803    -3.746525221482     1.007825032230
         C            1.233938130215     0.153169110803    -3.536795221482    12.000000000000
         H            2.297438130215    -0.026150889197    -3.456385221482     1.007825032230
         C            0.337298130215    -0.912440889197    -3.465805221482    12.000000000000
         H            0.707528130215    -1.921320889197    -3.339935221482     1.007825032230
         C           -1.034031869785    -0.679080889197    -3.560915221482    12.000000000000
         H           -1.731431869785    -1.503870889197    -3.503625221482     1.007825032230
         C           -1.509731869785     0.620589110803    -3.726495221482    12.000000000000
         H           -2.573731869785     0.801609110803    -3.788205221482     1.007825032230
         C           -0.611971869785     1.684879110803    -3.800305221482    12.000000000000
         H           -0.980441869785     2.693529110803    -3.931915221482     1.007825032230
         N           -0.235741869785     0.591529110803     2.336194778518    14.003074004430
         H           -0.609041869785     1.493289110803     2.073294778518     1.007825032230
         C            1.156408130215     0.518539110803     2.468204778518    12.000000000000
         O            1.847318130215     1.512969110803     2.323364778518    15.994914619570
         C            1.635308130215    -0.815530889197     2.786314778518    12.000000000000
         H            2.692358130215    -0.967750889197     2.920434778518     1.007825032230
         C            0.755598130215    -1.829920889197     2.912534778518    12.000000000000
         H            1.061528130215    -2.838340889197     3.149054778518     1.007825032230
         N           -0.589641869785    -1.644880889197     2.742434778518    14.003074004430
         H           -1.238391869785    -2.407440889197     2.841304778518     1.007825032230
         C           -1.164091869785    -0.420080889197     2.443024778518    12.000000000000
         O           -2.361881869785    -0.269260889197     2.300914778518    15.994914619570

  Charge       = 0
  Multiplicity = 1
  Basis Set: AUG-CC-PVQZ
    Blend: AUG-CC-PVQZ
  Basis Set: (AUG-CC-PVQZ AUX)
    Blend: AUG-CC-PVQZ-JKFIT

    Orbital Energies [Eh]
    ---------------------

    Doubly Occupied:

       1A    -20.542874     2A    -20.537138     3A    -15.640616
       4A    -15.623702     5A    -11.416099     6A    -11.377932
       7A    -11.338133     8A    -11.252673     9A    -11.234292
      10A    -11.233514    11A    -11.233407    12A    -11.232441
      13A    -11.232108    14A    -11.231498    15A     -1.434045
      16A     -1.395376    17A     -1.311461    18A     -1.244565
      19A     -1.148657    20A     -1.086352    21A     -1.013433
      22A     -1.012952    23A     -0.931773    24A     -0.900556
      25A     -0.822940    26A     -0.822539    27A     -0.805725
      28A     -0.763678    29A     -0.713242    30A     -0.708425
      31A     -0.676112    32A     -0.667427    33A     -0.651282
      34A     -0.643008    35A     -0.617852    36A     -0.613376
      37A     -0.600121    38A     -0.587137    39A     -0.586621
      40A     -0.569016    41A     -0.524746    42A     -0.501250
      43A     -0.494127    44A     -0.493368    45A     -0.482166
      46A     -0.447972    47A     -0.435537    48A     -0.367362
      49A     -0.335664    50A     -0.335610

  @DF-RHF Final Energy:  -643.44450929293953

   => Energetics <=

    Nuclear Repulsion Energy =            755.5766141425436899
    One-Electron Energy =               -2374.2984288873913101
    Two-Electron Energy =                 975.2773054519079778
    Total Energy =                       -643.4445092929395287

  Dipole Moment: [D]
     X:     0.5643      Y:    -4.7290      Z:     0.9709     Total:     4.8605

  Basis Set: (AUG-CC-PVQZ AUX)
    Blend: AUG-CC-PVQZ-RI
	 Reference Energy          =    -643.4445092929395287 [Eh]
	 Singles Energy            =      -0.0000000000000000 [Eh]
	 Same-Spin Energy          =      -0.7094596392712946 [Eh]
	 Opposite-Spin Energy      =      -2.3069540456780655 [Eh]
	 Correlation Energy        =      -3.0164136849493604 [Eh]
	 Total Energy              =    -646.4609229778889130 [Eh]

	 ================> DF-SCS-MP2 Energies <==================
	-----------------------------------------------------------
	 SCS Same-Spin Scale       =       0.3333333333333333 [-]
	 SCS Opposite-Spin Scale   =       1.2000000000000000 [-]
	 SCS Same-Spin Energy      =      -0.2364865464237649 [Eh]
	 SCS Opposite-Spin Energy  =      -2.7683448548136784 [Eh]
	 SCS Correlation Energy    =      -3.0048314012374435 [Eh]
	 SCS Total Energy          =    -646.4493406941769535 [Eh]
	-----------------------------------------------------------

*** Psi4 exiting successfully. Buy a developer a beer!
