                               Psi4 1.4a2.dev224

  ==> Input File <==

--------------------------------------------------------------------------
#Generated by lconvert.py for cbs job

memory 40 GB

molecule  {
0 1
  N        1.2107550     0.0286760     0.3297110
  C        0.6119350    -1.1584490     0.1534520
  H        1.2514780    -2.0295230     0.2192930
  C       -0.7513140    -1.3086500    -0.0888340
  H       -1.1704160    -2.2968690    -0.2133830
  C       -1.5478680    -0.1699400    -0.1564670
  H       -2.6110130    -0.2459550    -0.3387560
  C       -0.9436220     1.0706360     0.0198230
  H       -1.5188140     1.9845000    -0.0116440
  C        0.4277190     1.1161090     0.2573490
  H        0.9246950     2.0680520     0.3975480
--
0 1
  N       -0.7749720    -0.3193450     2.6047210
  H       -1.6698610    -0.7512080     2.4201180
  C       -0.7747170     1.0784650     2.6977320
  O       -1.8146000     1.7066650     2.5828820
  C        0.5447780     1.6375470     2.9252950
  H        0.6460940     2.7047690     3.0211630
  C        1.6146510     0.8188540     2.9968150
  H        2.6185300     1.1875190     3.1452420
  N        1.4965900    -0.5384390     2.8842610
  H        2.3100260    -1.1306260     2.8760930
  C        0.2961430    -1.1856710     2.6578790
  O        0.2040060    -2.3910900     2.5243000
units angstrom
no_reorient
symmetry c1
}

set {
scf_type DF
mp2_type DF
e_convergence 7
reference rhf
}

energy('mp2/aug-cc-pv[tq]z', bsse_type='cp')
--------------------------------------------------------------------------

    Molecular point group: c1
  Charge       = 0
  Multiplicity = 1
  Basis Set: AUG-CC-PVTZ
    Blend: AUG-CC-PVTZ
  Basis Set: (AUG-CC-PVTZ AUX)
    Blend: AUG-CC-PVTZ-JKFIT
  @DF-RHF Final Energy:  -412.62438812788002
    Total Energy =                       -412.6243881278800245
  Basis Set: (AUG-CC-PVTZ AUX)
    Blend: AUG-CC-PVTZ-RI
	 Reference Energy          =    -412.6243881278800245 [Eh]
	 Singles Energy            =      -0.0000000000000000 [Eh]
	 Same-Spin Energy          =      -0.4141917030864232 [Eh]
	 Opposite-Spin Energy      =      -1.2264697517432410 [Eh]
	 Correlation Energy        =      -1.6406614548296643 [Eh]
	 Total Energy              =    -414.2650495827097075 [Eh]
	 SCS Total Energy          =    -414.2342157310007451 [Eh]
    Molecular point group: c1
  Basis Set: AUG-CC-PVQZ
    Blend: AUG-CC-PVQZ
  Basis Set: (AUG-CC-PVQZ AUX)
    Blend: AUG-CC-PVQZ-JKFIT
  @DF-RHF Final Energy:  -412.64991787658886
    Total Energy =                       -412.6499178765888587
  Basis Set: (AUG-CC-PVQZ AUX)
  @DF-RHF Final Energy:  -412.62495930964775
    Total Energy =                       -412.6249593096477497
  @DF-RHF Final Energy:  -412.65005407180621
    Total Energy =                       -412.6500540718062098
  @DF-RHF Final Energy:  -246.77894489948869
    Total Energy =                       -246.7789448994886925
  @DF-RHF Final Energy:  -246.79275625667407
    Total Energy =                       -246.7927562566740676
  @DF-RHF Final Energy:  -246.77852365135857
    Total Energy =                       -246.7785236513585687
  @DF-RHF Final Energy:  -246.79266028900182
    Total Energy =                       -246.7926602890018444
  Multiplicity = 1
  @DF-RHF Final Energy:  -659.34328966984583
    Total Energy =                       -659.3432896698459444
	 Singles Energy            =      -0.0000000000000000 [Eh]
	 Same-Spin Energy          =      -0.7082347972929404 [Eh]
	 Opposite-Spin Energy      =      -2.1025757148658588 [Eh]
	 Correlation Energy        =      -2.8108105121587990 [Eh]
	 Total Energy              =    -662.1541001820046404 [Eh]
	 SCS Total Energy          =    -662.1024587934491592 [Eh]
    Molecular point group: c1

    Geometry (in Angstrom), charge = 0, multiplicity = 1:

       Center              X                  Y                   Z               Mass
    ------------   -----------------  -----------------  -----------------  -----------------
         N            1.232646844359     0.019612515000    -1.304934401749    14.003074004430
         C            0.633826844359    -1.167512485000    -1.481193401749    12.000000000000
         H            1.273369844359    -2.038586485000    -1.415352401749     1.007825032230
         C           -0.729422155641    -1.317713485000    -1.723479401749    12.000000000000
         H           -1.148524155641    -2.305932485000    -1.848028401749     1.007825032230
         C           -1.525976155641    -0.179003485000    -1.791112401749    12.000000000000
         H           -2.589121155641    -0.255018485000    -1.973401401749     1.007825032230
         C           -0.921730155641     1.061572515000    -1.614822401749    12.000000000000
         H           -1.496922155641     1.975436515000    -1.646289401749     1.007825032230
         C            0.449610844359     1.107045515000    -1.377296401749    12.000000000000
         H            0.946586844359     2.058988515000    -1.237097401749     1.007825032230
         N           -0.753080155641    -0.328408485000     0.970075598251    14.003074004430
         H           -1.647969155641    -0.760271485000     0.785472598251     1.007825032230
         C           -0.752825155641     1.069401515000     1.063086598251    12.000000000000
         O           -1.792708155641     1.697601515000     0.948236598251    15.994914619570
         C            0.566669844359     1.628483515000     1.290649598251    12.000000000000
         H            0.667985844359     2.695705515000     1.386517598251     1.007825032230
         C            1.636542844359     0.809790515000     1.362169598251    12.000000000000
         H            2.640421844359     1.178455515000     1.510596598251     1.007825032230
         N            1.518481844359    -0.547502485000     1.249615598251    14.003074004430
         H            2.331917844359    -1.139689485000     1.241447598251     1.007825032230
         C            0.318034844359    -1.194734485000     1.023233598251    12.000000000000
         O            0.225897844359    -2.400153485000     0.889654598251    15.994914619570

  Charge       = 0
  Multiplicity = 1
  Basis Set: AUG-CC-PVQZ
    Blend: AUG-CC-PVQZ
  Basis Set: (AUG-CC-PVQZ AUX)
    Blend: AUG-CC-PVQZ-JKFIT

    Orbital Energies [Eh]
    ---------------------

    Doubly Occupied:

       1A    -20.537497     2A    -20.531634     3A    -15.629413
       4A    -15.614834     5A    -15.566876     6A    -11.410535
       7A    -11.374097     8A    -11.327957     9A    -11.273373
      10A    -11.272471    11A    -11.253686    12A    -11.244087
      13A    -11.236303    14A    -11.234618    15A     -1.431645
      16A     -1.393338    17A     -1.306606    18A     -1.261020
      19A     -1.238741    20A     -1.089402    21A     -1.082381
      22A     -1.034668    23A     -0.926266    24A     -0.895108
      25A     -0.859812    26A     -0.857193    27A     -0.799690
      28A     -0.757935    29A     -0.724720    30A     -0.705718
      31A     -0.681565    32A     -0.672575    33A     -0.659984
      34A     -0.652562    35A     -0.647304    36A     -0.608936
      37A     -0.600187    38A     -0.594989    39A     -0.580686
      40A     -0.571299    41A     -0.526733    42A     -0.521600
      43A     -0.516098    44A     -0.478409    45A     -0.444873
      46A     -0.434892    47A     -0.423975    48A     -0.380629
      49A     -0.365625    50A     -0.331895

  @DF-RHF Final Energy:  -659.38223770214358

   => Energetics <=

    Nuclear Repulsion Energy =            941.5476273501195692
    One-Electron Energy =               -2768.7268285997411112
    Two-Electron Energy =                1167.7969635474780716
    Total Energy =                       -659.3822377021435841

  Dipole Moment: [D]
     X:     2.6214      Y:     0.6289      Z:     0.1590     Total:     2.7005

  Basis Set: (AUG-CC-PVQZ AUX)
    Blend: AUG-CC-PVQZ-RI
	 Reference Energy          =    -659.3822377021435841 [Eh]
	 Singles Energy            =      -0.0000000000000000 [Eh]
	 Same-Spin Energy          =      -0.7482949660005687 [Eh]
	 Opposite-Spin Energy      =      -2.3618205614974923 [Eh]
	 Correlation Energy        =      -3.1101155274980608 [Eh]
	 Total Energy              =    -662.4923532296415942 [Eh]

	 ================> DF-SCS-MP2 Energies <==================
	-----------------------------------------------------------
	 SCS Same-Spin Scale       =       0.3333333333333333 [-]
	 SCS Opposite-Spin Scale   =       1.2000000000000000 [-]
	 SCS Same-Spin Energy      =      -0.2494316553335229 [Eh]
	 SCS Opposite-Spin Energy  =      -2.8341846737969907 [Eh]
	 SCS Correlation Energy    =      -3.0836163291305136 [Eh]
	 SCS Total Energy          =    -662.4658540312741479 [Eh]
	-----------------------------------------------------------

*** Psi4 exiting successfully. Buy a developer a beer!
