                               Psi4 1.4a2.dev224

  ==> Input File <==

--------------------------------------------------------------------------
#Generated by lconvert.py for cbs job

memory 40 GB

molecule  {
0 1
  N        1.2107550     0.0286760     0.3297110
  C        0.6119350    -1.1584490     0.1534520
  H        1.2514780    -2.0295230     0.2192930
  C       -0.7513140    -1.3086500    -0.0888340
  H       -1.1704160    -2.2968690    -0.2133830
  C       -1.5478680    -0.1699400    -0.1564670
  H       -2.6110130    -0.2459550    -0.3387560
  C       -0.9436220     1.0706360     0.0198230
  H       -1.5188140     1.9845000    -0.0116440
  C        0.4277190     1.1161090     0.2573490
  H        0.9246950     2.0680520     0.3975480
--
0 1
  N       -0.7303670    -0.2937990     3.1047250
  H       -1.6252560    -0.7256630     2.9201210
  C       -0.7301120     1.1040100     3.1977360
  O       -1.7699950     1.7322100     3.0828850
  C        0.5893830     1.6630920     3.4252990
  H        0.6906990     2.7303140     3.5211670
  C        1.6592560     0.8443990     3.4968190
  H        2.6631350     1.2130640     3.6452450
  N        1.5411950    -0.5128940     3.3842640
  H        2.3546310    -1.1050810     3.3760960
  C        0.3407480    -1.1601260     3.1578820
  O        0.2486110    -2.3655440     3.0243030
units angstrom
no_reorient
symmetry c1
}

set {
scf_type DF
mp2_type DF
e_convergence 7
reference rhf
}

energy('mp2/aug-cc-pv[tq]z', bsse_type='cp')
--------------------------------------------------------------------------

    Molecular point group: c1
  Charge       = 0
  Multiplicity = 1
  Basis Set: AUG-CC-PVTZ
    Blend: AUG-CC-PVTZ
  Basis Set: (AUG-CC-PVTZ AUX)
    Blend: AUG-CC-PVTZ-JKFIT
  @DF-RHF Final Energy:  -412.62438819073026
    Total Energy =                       -412.6243881907302580
  Basis Set: (AUG-CC-PVTZ AUX)
    Blend: AUG-CC-PVTZ-RI
	 Reference Energy          =    -412.6243881907302580 [Eh]
	 Singles Energy            =      -0.0000000000000000 [Eh]
	 Same-Spin Energy          =      -0.4141916893341033 [Eh]
	 Opposite-Spin Energy      =      -1.2264697118615950 [Eh]
	 Correlation Energy        =      -1.6406614011956984 [Eh]
	 Total Energy              =    -414.2650495919259583 [Eh]
	 SCS Total Energy          =    -414.2342157414088888 [Eh]
    Molecular point group: c1
  Basis Set: AUG-CC-PVQZ
    Blend: AUG-CC-PVQZ
  Basis Set: (AUG-CC-PVQZ AUX)
    Blend: AUG-CC-PVQZ-JKFIT
  @DF-RHF Final Energy:  -412.64991794150990
    Total Energy =                       -412.6499179415098979
  Basis Set: (AUG-CC-PVQZ AUX)
  @DF-RHF Final Energy:  -412.62475904301289
    Total Energy =                       -412.6247590430128867
  @DF-RHF Final Energy:  -412.65001340029488
    Total Energy =                       -412.6500134002948812
  @DF-RHF Final Energy:  -246.77879547185773
    Total Energy =                       -246.7787954718577339
  @DF-RHF Final Energy:  -246.79272704553210
    Total Energy =                       -246.7927270455321036
  @DF-RHF Final Energy:  -246.77852365123596
    Total Energy =                       -246.7785236512359575
  @DF-RHF Final Energy:  -246.79266029052405
    Total Energy =                       -246.7926602905240543
  Multiplicity = 1
  @DF-RHF Final Energy:  -659.39420576888358
    Total Energy =                       -659.3942057688836940
	 Singles Energy            =      -0.0000000000000000 [Eh]
	 Same-Spin Energy          =      -0.6947997123335616 [Eh]
	 Opposite-Spin Energy      =      -2.0831436907993979 [Eh]
	 Correlation Energy        =      -2.7779434031329595 [Eh]
	 Total Energy              =    -662.1721491720165886 [Eh]
	 SCS Total Energy          =    -662.1255781019540336 [Eh]
    Molecular point group: c1

    Geometry (in Angstrom), charge = 0, multiplicity = 1:

       Center              X                  Y                   Z               Mass
    ------------   -----------------  -----------------  -----------------  -----------------
         N            1.206494175718     0.004634890890    -1.598094914851    14.003074004430
         C            0.607674175719    -1.182490109110    -1.774353914851    12.000000000000
         H            1.247217175718    -2.053564109110    -1.708512914851     1.007825032230
         C           -0.755574824282    -1.332691109110    -2.016639914851    12.000000000000
         H           -1.174676824281    -2.320910109110    -2.141188914851     1.007825032230
         C           -1.552128824281    -0.193981109110    -2.084272914851    12.000000000000
         H           -2.615273824282    -0.269996109110    -2.266561914851     1.007825032230
         C           -0.947882824281     1.046594890890    -1.907982914851    12.000000000000
         H           -1.523074824281     1.960458890890    -1.939449914851     1.007825032230
         C            0.423458175718     1.092067890890    -1.670456914851    12.000000000000
         H            0.920434175719     2.044010890890    -1.530257914851     1.007825032230
         N           -0.734627824281    -0.317840109110     1.176919085149    14.003074004430
         H           -1.629516824282    -0.749704109110     0.992315085149     1.007825032230
         C           -0.734372824281     1.079968890890     1.269930085149    12.000000000000
         O           -1.774255824282     1.708168890890     1.155079085149    15.994914619570
         C            0.585122175719     1.639050890890     1.497493085149    12.000000000000
         H            0.686438175718     2.706272890890     1.593361085149     1.007825032230
         C            1.654995175719     0.820357890890     1.569013085149    12.000000000000
         H            2.658874175718     1.189022890890     1.717439085149     1.007825032230
         N            1.536934175719    -0.536935109110     1.456458085149    14.003074004430
         H            2.350370175718    -1.129122109110     1.448290085149     1.007825032230
         C            0.336487175718    -1.184167109110     1.230076085149    12.000000000000
         O            0.244350175718    -2.389585109110     1.096497085149    15.994914619570

  Charge       = 0
  Multiplicity = 1
  Basis Set: AUG-CC-PVQZ
    Blend: AUG-CC-PVQZ
  Basis Set: (AUG-CC-PVQZ AUX)
    Blend: AUG-CC-PVQZ-JKFIT

    Orbital Energies [Eh]
    ---------------------

    Doubly Occupied:

       1A    -20.537933     2A    -20.532642     3A    -15.632834
       4A    -15.617492     5A    -15.568115     6A    -11.410594
       7A    -11.373492     8A    -11.331246     9A    -11.274554
      10A    -11.274049    11A    -11.257743    12A    -11.245308
      13A    -11.239948    14A    -11.238748    15A     -1.429290
      16A     -1.391456    17A     -1.305728    18A     -1.258994
      19A     -1.238396    20A     -1.089663    21A     -1.080574
      22A     -1.034033    23A     -0.926216    24A     -0.894647
      25A     -0.859433    26A     -0.856313    27A     -0.799639
      28A     -0.758125    29A     -0.722697    30A     -0.706817
      31A     -0.671668    32A     -0.667420    33A     -0.660629
      34A     -0.652973    35A     -0.646783    36A     -0.608451
      37A     -0.598452    38A     -0.595047    39A     -0.578121
      40A     -0.567410    41A     -0.538243    42A     -0.521877
      43A     -0.517213    44A     -0.478157    45A     -0.444191
      46A     -0.432445    47A     -0.423612    48A     -0.385783
      49A     -0.362941    50A     -0.344279

  @DF-RHF Final Energy:  -659.43339530676531

   => Energetics <=

    Nuclear Repulsion Energy =            899.3921772623660900
    One-Electron Energy =               -2684.4863063259786031
    Two-Electron Energy =                1125.6607337568470939
    Total Energy =                       -659.4333953067653056

  Dipole Moment: [D]
     X:     2.5439      Y:     0.6181      Z:     0.0636     Total:     2.6187

  Basis Set: (AUG-CC-PVQZ AUX)
    Blend: AUG-CC-PVQZ-RI
	 Reference Energy          =    -659.4333953067653056 [Eh]
	 Singles Energy            =      -0.0000000000000000 [Eh]
	 Same-Spin Energy          =      -0.7349559783487049 [Eh]
	 Opposite-Spin Energy      =      -2.3449598309457853 [Eh]
	 Correlation Energy        =      -3.0799158092944903 [Eh]
	 Total Energy              =    -662.5133111160597537 [Eh]

	 ================> DF-SCS-MP2 Energies <==================
	-----------------------------------------------------------
	 SCS Same-Spin Scale       =       0.3333333333333333 [-]
	 SCS Opposite-Spin Scale   =       1.2000000000000000 [-]
	 SCS Same-Spin Energy      =      -0.2449853261162349 [Eh]
	 SCS Opposite-Spin Energy  =      -2.8139517971349424 [Eh]
	 SCS Correlation Energy    =      -3.0589371232511775 [Eh]
	 SCS Total Energy          =    -662.4923324300165177 [Eh]
	-----------------------------------------------------------

*** Psi4 exiting successfully. Buy a developer a beer!
