                               Psi4 1.4a2.dev224

  ==> Input File <==

--------------------------------------------------------------------------
#Generated by lconvert.py for cbs job

memory 40 GB

molecule  {
0 1
  N        1.2107550     0.0286760     0.3297110
  C        0.6119350    -1.1584490     0.1534520
  H        1.2514780    -2.0295230     0.2192930
  C       -0.7513140    -1.3086500    -0.0888340
  H       -1.1704160    -2.2968690    -0.2133830
  C       -1.5478680    -0.1699400    -0.1564670
  H       -2.6110130    -0.2459550    -0.3387560
  C       -0.9436220     1.0706360     0.0198230
  H       -1.5188140     1.9845000    -0.0116440
  C        0.4277190     1.1161090     0.2573490
  H        0.9246950     2.0680520     0.3975480
--
0 1
  N       -0.7148350    -0.2849040     3.2788360
  H       -1.6097240    -0.7167680     3.0942320
  C       -0.7145800     1.1129060     3.3718470
  O       -1.7544630     1.7411060     3.2569970
  C        0.6049150     1.6719870     3.5994100
  H        0.7062310     2.7392090     3.6952780
  C        1.6747890     0.8532950     3.6709300
  H        2.6786680     1.2219590     3.8193560
  N        1.5567270    -0.5039980     3.5583750
  H        2.3701630    -1.0961860     3.5502080
  C        0.3562800    -1.1512310     3.3319940
  O        0.2641430    -2.3566490     3.1984140
units angstrom
no_reorient
symmetry c1
}

set {
scf_type DF
mp2_type DF
e_convergence 7
reference rhf
}

energy('mp2/aug-cc-pv[tq]z', bsse_type='cp')
--------------------------------------------------------------------------

    Molecular point group: c1
  Charge       = 0
  Multiplicity = 1
  Basis Set: AUG-CC-PVTZ
    Blend: AUG-CC-PVTZ
  Basis Set: (AUG-CC-PVTZ AUX)
    Blend: AUG-CC-PVTZ-JKFIT
  @DF-RHF Final Energy:  -412.62438810727497
    Total Energy =                       -412.6243881072749673
  Basis Set: (AUG-CC-PVTZ AUX)
    Blend: AUG-CC-PVTZ-RI
	 Reference Energy          =    -412.6243881072749673 [Eh]
	 Singles Energy            =      -0.0000000000000000 [Eh]
	 Same-Spin Energy          =      -0.4141917121339411 [Eh]
	 Opposite-Spin Energy      =      -1.2264697681804810 [Eh]
	 Correlation Energy        =      -1.6406614803144222 [Eh]
	 Total Energy              =    -414.2650495875893739 [Eh]
	 SCS Total Energy          =    -414.2342157331361818 [Eh]
    Molecular point group: c1
  Basis Set: AUG-CC-PVQZ
    Blend: AUG-CC-PVQZ
  Basis Set: (AUG-CC-PVQZ AUX)
    Blend: AUG-CC-PVQZ-JKFIT
  @DF-RHF Final Energy:  -412.64991785029463
    Total Energy =                       -412.6499178502946279
  Basis Set: (AUG-CC-PVQZ AUX)
  @DF-RHF Final Energy:  -412.62471019326370
    Total Energy =                       -412.6247101932636951
  @DF-RHF Final Energy:  -412.65000185333093
    Total Energy =                       -412.6500018533309344
  @DF-RHF Final Energy:  -246.77875817351031
    Total Energy =                       -246.7787581735103117
  @DF-RHF Final Energy:  -246.79271829234793
    Total Energy =                       -246.7927182923478995
  @DF-RHF Final Energy:  -246.77852365211027
    Total Energy =                       -246.7785236521102661
  @DF-RHF Final Energy:  -246.79266028708480
    Total Energy =                       -246.7926602870848001
  Multiplicity = 1
  @DF-RHF Final Energy:  -659.39973452174672
    Total Energy =                       -659.3997345217467227
	 Singles Energy            =      -0.0000000000000000 [Eh]
	 Same-Spin Energy          =      -0.6921179632703056 [Eh]
	 Opposite-Spin Energy      =      -2.0792799009760157 [Eh]
	 Correlation Energy        =      -2.7713978642463211 [Eh]
	 Total Energy              =    -662.1711323859930189 [Eh]
	 SCS Total Energy          =    -662.1255763906747234 [Eh]
    Molecular point group: c1

    Geometry (in Angstrom), charge = 0, multiplicity = 1:

       Center              X                  Y                   Z               Mass
    ------------   -----------------  -----------------  -----------------  -----------------
         N            1.197387432394    -0.000580681206    -1.700179301363    14.003074004430
         C            0.598567432394    -1.187705681206    -1.876438301363    12.000000000000
         H            1.238110432394    -2.058779681206    -1.810597301363     1.007825032230
         C           -0.764681567606    -1.337906681206    -2.118724301363    12.000000000000
         H           -1.183783567606    -2.326125681206    -2.243273301363     1.007825032230
         C           -1.561235567606    -0.199196681206    -2.186357301363    12.000000000000
         H           -2.624380567606    -0.275211681206    -2.368646301363     1.007825032230
         C           -0.956989567606     1.041379318794    -2.010067301363    12.000000000000
         H           -1.532181567606     1.955243318794    -2.041534301363     1.007825032230
         C            0.414351432394     1.086852318794    -1.772541301363    12.000000000000
         H            0.911327432394     2.038795318794    -1.632342301363     1.007825032230
         N           -0.728202567606    -0.314160681206     1.248945698637    14.003074004430
         H           -1.623091567606    -0.746024681206     1.064341698637     1.007825032230
         C           -0.727947567606     1.083649318794     1.341956698637    12.000000000000
         O           -1.767830567606     1.711849318794     1.227106698637    15.994914619570
         C            0.591547432394     1.642730318794     1.569519698637    12.000000000000
         H            0.692863432394     2.709952318794     1.665387698637     1.007825032230
         C            1.661421432394     0.824038318794     1.641039698637    12.000000000000
         H            2.665300432394     1.192702318794     1.789465698637     1.007825032230
         N            1.543359432394    -0.533254681206     1.528484698637    14.003074004430
         H            2.356795432394    -1.125442681206     1.520317698637     1.007825032230
         C            0.342912432394    -1.180487681206     1.302103698637    12.000000000000
         O            0.250775432394    -2.385905681206     1.168523698637    15.994914619570

  Charge       = 0
  Multiplicity = 1
  Basis Set: AUG-CC-PVQZ
    Blend: AUG-CC-PVQZ
  Basis Set: (AUG-CC-PVQZ AUX)
    Blend: AUG-CC-PVQZ-JKFIT

    Orbital Energies [Eh]
    ---------------------

    Doubly Occupied:

       1A    -20.538227     2A    -20.533001     3A    -15.633721
       4A    -15.618148     5A    -15.568198     6A    -11.410966
       7A    -11.373748     8A    -11.332045     9A    -11.274836
      10A    -11.274356    11A    -11.258317    12A    -11.245960
      13A    -11.240468    14A    -11.239477    15A     -1.429340
      16A     -1.391460    17A     -1.306156    18A     -1.258523
      19A     -1.238763    20A     -1.089716    21A     -1.080882
      22A     -1.033954    23A     -0.926676    24A     -0.894972
      25A     -0.859468    26A     -0.856237    27A     -0.800061
      28A     -0.758533    29A     -0.722523    30A     -0.707318
      31A     -0.671807    32A     -0.665481    33A     -0.660772
      34A     -0.653249    35A     -0.646959    36A     -0.608679
      37A     -0.598403    38A     -0.595365    39A     -0.577890
      40A     -0.566717    41A     -0.540404    42A     -0.521354
      43A     -0.517724    44A     -0.478298    45A     -0.444308
      46A     -0.432242    47A     -0.423419    48A     -0.385972
      49A     -0.362700    50A     -0.345981

  @DF-RHF Final Energy:  -659.43898981341999

   => Energetics <=

    Nuclear Repulsion Energy =            886.6033632393425705
    One-Electron Energy =               -2658.8971473602605329
    Two-Electron Energy =                1112.8547943074979685
    Total Energy =                       -659.4389898134199939

  Dipole Moment: [D]
     X:     2.5345      Y:     0.6214      Z:     0.0558     Total:     2.6101

  Basis Set: (AUG-CC-PVQZ AUX)
    Blend: AUG-CC-PVQZ-RI
	 Reference Energy          =    -659.4389898134199939 [Eh]
	 Singles Energy            =      -0.0000000000000000 [Eh]
	 Same-Spin Energy          =      -0.7323057495071449 [Eh]
	 Opposite-Spin Energy      =      -2.3416632684669669 [Eh]
	 Correlation Energy        =      -3.0739690179741119 [Eh]
	 Total Energy              =    -662.5129588313941440 [Eh]

	 ================> DF-SCS-MP2 Energies <==================
	-----------------------------------------------------------
	 SCS Same-Spin Scale       =       0.3333333333333333 [-]
	 SCS Opposite-Spin Scale   =       1.2000000000000000 [-]
	 SCS Same-Spin Energy      =      -0.2441019165023816 [Eh]
	 SCS Opposite-Spin Energy  =      -2.8099959221603603 [Eh]
	 SCS Correlation Energy    =      -3.0540978386627420 [Eh]
	 SCS Total Energy          =    -662.4930876520827496 [Eh]
	-----------------------------------------------------------

*** Psi4 exiting successfully. Buy a developer a beer!
