                               Psi4 1.4a2.dev224

  ==> Input File <==

--------------------------------------------------------------------------
#Generated by lconvert.py for cbs job

memory 40 GB

molecule  {
0 1
  N        1.2107550     0.0286760     0.3297110
  C        0.6119350    -1.1584490     0.1534520
  H        1.2514780    -2.0295230     0.2192930
  C       -0.7513140    -1.3086500    -0.0888340
  H       -1.1704160    -2.2968690    -0.2133830
  C       -1.5478680    -0.1699400    -0.1564670
  H       -2.6110130    -0.2459550    -0.3387560
  C       -0.9436220     1.0706360     0.0198230
  H       -1.5188140     1.9845000    -0.0116440
  C        0.4277190     1.1161090     0.2573490
  H        0.9246950     2.0680520     0.3975480
--
0 1
  N       -0.7461130    -0.3028170     2.9282220
  H       -1.6410020    -0.7346800     2.7436190
  C       -0.7458580     1.0949930     3.0212330
  O       -1.7857410     1.7231930     2.9063830
  C        0.5736370     1.6540740     3.2487960
  H        0.6749530     2.7212960     3.3446640
  C        1.6435110     0.8353820     3.3203160
  H        2.6473900     1.2040470     3.4687430
  N        1.5254490    -0.5219110     3.2077610
  H        2.3388850    -1.1140990     3.1995940
  C        0.3250020    -1.1691440     2.9813800
  O        0.2328650    -2.3745620     2.8478010
units angstrom
no_reorient
symmetry c1
}

set {
scf_type DF
mp2_type DF
e_convergence 7
reference rhf
}

energy('mp2/aug-cc-pv[tq]z', bsse_type='cp')
--------------------------------------------------------------------------

    Molecular point group: c1
  Charge       = 0
  Multiplicity = 1
  Basis Set: AUG-CC-PVTZ
    Blend: AUG-CC-PVTZ
  Basis Set: (AUG-CC-PVTZ AUX)
    Blend: AUG-CC-PVTZ-JKFIT
  @DF-RHF Final Energy:  -412.62438812931191
    Total Energy =                       -412.6243881293119102
  Basis Set: (AUG-CC-PVTZ AUX)
    Blend: AUG-CC-PVTZ-RI
	 Reference Energy          =    -412.6243881293119102 [Eh]
	 Singles Energy            =      -0.0000000000000000 [Eh]
	 Same-Spin Energy          =      -0.4141917052381815 [Eh]
	 Opposite-Spin Energy      =      -1.2264697547262320 [Eh]
	 Correlation Energy        =      -1.6406614599644134 [Eh]
	 Total Energy              =    -414.2650495892763161 [Eh]
	 SCS Total Energy          =    -414.2342157367294249 [Eh]
    Molecular point group: c1
  Basis Set: AUG-CC-PVQZ
    Blend: AUG-CC-PVQZ
  Basis Set: (AUG-CC-PVQZ AUX)
    Blend: AUG-CC-PVQZ-JKFIT
  @DF-RHF Final Energy:  -412.64991787835743
    Total Energy =                       -412.6499178783574280
  Basis Set: (AUG-CC-PVQZ AUX)
  @DF-RHF Final Energy:  -412.62481693261049
    Total Energy =                       -412.6248169326104858
  @DF-RHF Final Energy:  -412.65002619106031
    Total Energy =                       -412.6500261910603058
  @DF-RHF Final Energy:  -246.77883890305441
    Total Energy =                       -246.7788389030544067
  @DF-RHF Final Energy:  -246.79273681256262
    Total Energy =                       -246.7927368125626231
  @DF-RHF Final Energy:  -246.77852365107600
    Total Energy =                       -246.7785236510760001
  @DF-RHF Final Energy:  -246.79266028941211
    Total Energy =                       -246.7926602894120833
  Multiplicity = 1
  @DF-RHF Final Energy:  -659.38422458096591
    Total Energy =                       -659.3842245809657925
	 Singles Energy            =      -0.0000000000000000 [Eh]
	 Same-Spin Energy          =      -0.6983838061038861 [Eh]
	 Opposite-Spin Energy      =      -2.0883169785694173 [Eh]
	 Correlation Energy        =      -2.7867007846733034 [Eh]
	 Total Energy              =    -662.1709253656391638 [Eh]
	 SCS Total Energy          =    -662.1229995572838334 [Eh]
    Molecular point group: c1

    Geometry (in Angstrom), charge = 0, multiplicity = 1:

       Center              X                  Y                   Z               Mass
    ------------   -----------------  -----------------  -----------------  -----------------
         N            1.215726254718     0.009922004206    -1.494608455981    14.003074004430
         C            0.616906254718    -1.177202995794    -1.670867455981    12.000000000000
         H            1.256449254718    -2.048276995794    -1.605026455981     1.007825032230
         C           -0.746342745282    -1.327403995794    -1.913153455981    12.000000000000
         H           -1.165444745282    -2.315622995794    -2.037702455981     1.007825032230
         C           -1.542896745282    -0.188693995794    -1.980786455981    12.000000000000
         H           -2.606041745282    -0.264708995794    -2.163075455981     1.007825032230
         C           -0.938650745282     1.051882004206    -1.804496455981    12.000000000000
         H           -1.513842745282     1.965746004206    -1.835963455981     1.007825032230
         C            0.432690254718     1.097355004206    -1.566970455981    12.000000000000
         H            0.929666254718     2.049298004206    -1.426771455981     1.007825032230
         N           -0.741141745282    -0.321570995794     1.103902544019    14.003074004430
         H           -1.636030745282    -0.753433995794     0.919299544019     1.007825032230
         C           -0.740886745282     1.076239004206     1.196913544019    12.000000000000
         O           -1.780769745282     1.704439004206     1.082063544019    15.994914619570
         C            0.578608254718     1.635320004206     1.424476544019    12.000000000000
         H            0.679924254718     2.702542004206     1.520344544019     1.007825032230
         C            1.648482254718     0.816628004206     1.495996544019    12.000000000000
         H            2.652361254718     1.185293004206     1.644423544019     1.007825032230
         N            1.530420254718    -0.540664995794     1.383441544019    14.003074004430
         H            2.343856254718    -1.132852995794     1.375274544019     1.007825032230
         C            0.329973254718    -1.187897995794     1.157060544019    12.000000000000
         O            0.237836254718    -2.393315995794     1.023481544019    15.994914619570

  Charge       = 0
  Multiplicity = 1
  Basis Set: AUG-CC-PVQZ
    Blend: AUG-CC-PVQZ
  Basis Set: (AUG-CC-PVQZ AUX)
    Blend: AUG-CC-PVQZ-JKFIT

    Orbital Energies [Eh]
    ---------------------

    Doubly Occupied:

       1A    -20.537694     2A    -20.532294     3A    -15.631811
       4A    -15.616723     5A    -15.567840     6A    -11.410328
       7A    -11.373390     8A    -11.330292     9A    -11.274149
      10A    -11.273587    11A    -11.256805    12A    -11.244707
      13A    -11.239093    14A    -11.237673    15A     -1.429543
      16A     -1.391698    17A     -1.305504    18A     -1.259576
      19A     -1.238183    20A     -1.089554    21A     -1.080547
      22A     -1.034151    23A     -0.925894    24A     -0.894486
      25A     -0.859415    26A     -0.856434    27A     -0.799355
      28A     -0.757827    29A     -0.723016    30A     -0.706356
      31A     -0.671728    32A     -0.670702    33A     -0.660393
      34A     -0.652682    35A     -0.646742    36A     -0.608366
      37A     -0.598648    38A     -0.594825    39A     -0.578545
      40A     -0.568470    41A     -0.534570    42A     -0.522809
      43A     -0.516749    44A     -0.478130    45A     -0.444218
      46A     -0.432932    47A     -0.423747    48A     -0.385033
      49A     -0.363562    50A     -0.341468

  @DF-RHF Final Energy:  -659.42333746569216

   => Energetics <=

    Nuclear Repulsion Energy =            913.2948941558042861
    One-Electron Energy =               -2712.2919580923253307
    Two-Electron Energy =                1139.5737264708288876
    Total Energy =                       -659.4233374656921569

  Dipole Moment: [D]
     X:     2.5608      Y:     0.6174      Z:     0.0840     Total:     2.6355

  Basis Set: (AUG-CC-PVQZ AUX)
    Blend: AUG-CC-PVQZ-RI
	 Reference Energy          =    -659.4233374656921569 [Eh]
	 Singles Energy            =      -0.0000000000000000 [Eh]
	 Same-Spin Energy          =      -0.7385039096974911 [Eh]
	 Opposite-Spin Energy      =      -2.3494024075696482 [Eh]
	 Correlation Energy        =      -3.0879063172671395 [Eh]
	 Total Energy              =    -662.5112437829592409 [Eh]

	 ================> DF-SCS-MP2 Energies <==================
	-----------------------------------------------------------
	 SCS Same-Spin Scale       =       0.3333333333333333 [-]
	 SCS Opposite-Spin Scale   =       1.2000000000000000 [-]
	 SCS Same-Spin Energy      =      -0.2461679698991637 [Eh]
	 SCS Opposite-Spin Energy  =      -2.8192828890835777 [Eh]
	 SCS Correlation Energy    =      -3.0654508589827416 [Eh]
	 SCS Total Energy          =    -662.4887883246749425 [Eh]
	-----------------------------------------------------------

*** Psi4 exiting successfully. Buy a developer a beer!
