                               Psi4 1.4a2.dev224

  ==> Input File <==

--------------------------------------------------------------------------
#Generated by lconvert.py for cbs job

memory 20 GB

molecule  {
0 1
  N       1.210760    0.028680    0.329710
  C       0.611940   -1.158450    0.153450
  H       1.251480   -2.029520    0.219290
  C      -0.751310   -1.308650   -0.088830
  H      -1.170420   -2.296870   -0.213380
  C      -1.547870   -0.169940   -0.156470
  H      -2.611010   -0.245960   -0.338760
  C      -0.943620    1.070640    0.019820
  H      -1.518810    1.984500   -0.011640
  C       0.427720    1.116110    0.257350
  H       0.924700    2.068050    0.397550
--
0 1
  N      -0.626580   -0.234360    4.268140
  H      -1.521470   -0.666220    4.083540
  C      -0.626320    1.163450    4.361150
  O      -1.666210    1.791650    4.246300
  C       0.693170    1.722530    4.588720
  H       0.794490    2.789750    4.684580
  C       1.763040    0.903840    4.660240
  H       2.766920    1.272500    4.808660
  N       1.644980   -0.453450    4.547680
  H       2.458420   -1.045640    4.539510
  C       0.444540   -1.100690    4.321300
  O       0.352400   -2.306110    4.187720
units angstrom
no_reorient
symmetry c1
}

set {
scf_type DF
mp2_type DF
e_convergence 7
reference rhf
}

energy('mp2/aug-cc-pv[tq]z', bsse_type='cp')
--------------------------------------------------------------------------

    Molecular point group: c1
  Charge       = 0
  Multiplicity = 1
  Basis Set: AUG-CC-PVTZ
    Blend: AUG-CC-PVTZ
  Basis Set: (AUG-CC-PVTZ AUX)
    Blend: AUG-CC-PVTZ-JKFIT
  @DF-RHF Final Energy:  -412.62438735868392
    Total Energy =                       -412.6243873586839186
  Basis Set: (AUG-CC-PVTZ AUX)
    Blend: AUG-CC-PVTZ-RI
	 Reference Energy          =    -412.6243873586839186 [Eh]
	 Singles Energy            =      -0.0000000000000000 [Eh]
	 Same-Spin Energy          =      -0.4141919737982286 [Eh]
	 Opposite-Spin Energy      =      -1.2264702415416786 [Eh]
	 Correlation Energy        =      -1.6406622153399071 [Eh]
	 Total Energy              =    -414.2650495740238057 [Eh]
	 SCS Total Energy          =    -414.2342156398000270 [Eh]
    Molecular point group: c1
  Basis Set: AUG-CC-PVQZ
    Blend: AUG-CC-PVQZ
  Basis Set: (AUG-CC-PVQZ AUX)
    Blend: AUG-CC-PVQZ-JKFIT
  @DF-RHF Final Energy:  -412.64991706851617
    Total Energy =                       -412.6499170685161744
  Basis Set: (AUG-CC-PVQZ AUX)
  @DF-RHF Final Energy:  -412.62452201319610
    Total Energy =                       -412.6245220131960991
  @DF-RHF Final Energy:  -412.64995666614044
    Total Energy =                       -412.6499566661404401
  @DF-RHF Final Energy:  -246.77863327815527
    Total Energy =                       -246.7786332781552687
  @DF-RHF Final Energy:  -246.79268742427422
    Total Energy =                       -246.7926874242742201
  @DF-RHF Final Energy:  -246.77852333829529
    Total Energy =                       -246.7785233382952583
  @DF-RHF Final Energy:  -246.79265996469110
    Total Energy =                       -246.7926599646910972
  Multiplicity = 1
  @DF-RHF Final Energy:  -659.40524141701519
    Total Energy =                       -659.4052414170150769
	 Singles Energy            =      -0.0000000000000000 [Eh]
	 Same-Spin Energy          =      -0.6853105127516321 [Eh]
	 Opposite-Spin Energy      =      -2.0693344253360944 [Eh]
	 Correlation Energy        =      -2.7546449380877265 [Eh]
	 Total Energy              =    -662.1598863551029126 [Eh]
	 SCS Total Energy          =    -662.1168795650023640 [Eh]
    Molecular point group: c1

    Geometry (in Angstrom), charge = 0, multiplicity = 1:

       Center              X                  Y                   Z               Mass
    ------------   -----------------  -----------------  -----------------  -----------------
         N            1.145645739793    -0.030211690529    -2.280226751661    14.003074004430
         C            0.546825739793    -1.217341690529    -2.456486751661    12.000000000000
         H            1.186365739793    -2.088411690529    -2.390646751661     1.007825032230
         C           -0.816424260207    -1.367541690529    -2.698766751661    12.000000000000
         H           -1.235534260207    -2.355761690529    -2.823316751661     1.007825032230
         C           -1.612984260207    -0.228831690529    -2.766406751661    12.000000000000
         H           -2.676124260207    -0.304851690529    -2.948696751661     1.007825032230
         C           -1.008734260207     1.011748309471    -2.590116751661    12.000000000000
         H           -1.583924260207     1.925608309471    -2.621576751661     1.007825032230
         C            0.362605739793     1.057218309471    -2.352586751661    12.000000000000
         H            0.859585739793     2.009158309471    -2.212386751661     1.007825032230
         N           -0.691694260207    -0.293251690529     1.658203248339    14.003074004430
         H           -1.586584260207    -0.725111690529     1.473603248339     1.007825032230
         C           -0.691434260207     1.104558309471     1.751213248339    12.000000000000
         O           -1.731324260207     1.732758309471     1.636363248339    15.994914619570
         C            0.628055739793     1.663638309471     1.978783248339    12.000000000000
         H            0.729375739793     2.730858309471     2.074643248339     1.007825032230
         C            1.697925739793     0.844948309471     2.050303248339    12.000000000000
         H            2.701805739793     1.213608309471     2.198723248339     1.007825032230
         N            1.579865739793    -0.512341690529     1.937743248339    14.003074004430
         H            2.393305739793    -1.104531690529     1.929573248339     1.007825032230
         C            0.379425739793    -1.159581690529     1.711363248339    12.000000000000
         O            0.287285739793    -2.365001690529     1.577783248339    15.994914619570

  Charge       = 0
  Multiplicity = 1
  Basis Set: AUG-CC-PVQZ
    Blend: AUG-CC-PVQZ
  Basis Set: (AUG-CC-PVQZ AUX)
    Blend: AUG-CC-PVQZ-JKFIT

    Orbital Energies [Eh]
    ---------------------

    Doubly Occupied:

       1A    -20.540122     2A    -20.534952     3A    -15.637339
       4A    -15.620857     5A    -15.567012     6A    -11.413240
       7A    -11.375705     8A    -11.335073     9A    -11.274814
      10A    -11.274414    11A    -11.258829    12A    -11.249182
      13A    -11.240809    14A    -11.240500    15A     -1.431151
      16A     -1.392844    17A     -1.308998    18A     -1.256630
      19A     -1.241298    20A     -1.089264    21A     -1.083509
      22A     -1.033410    23A     -0.929494    24A     -0.897384
      25A     -0.859230    26A     -0.855609    27A     -0.802755
      28A     -0.761064    29A     -0.721894    30A     -0.710014
      31A     -0.673489    32A     -0.664713    33A     -0.660464
      34A     -0.653800    35A     -0.648665    36A     -0.610598
      37A     -0.598231    38A     -0.597504    39A     -0.577049
      40A     -0.566793    41A     -0.542011    42A     -0.521308
      43A     -0.519847    44A     -0.479873    45A     -0.445803
      46A     -0.433201    47A     -0.421779    48A     -0.384621
      49A     -0.364389    50A     -0.347743

  @DF-RHF Final Energy:  -659.44472740751553

   => Energetics <=

    Nuclear Repulsion Energy =            827.8996796882069020
    One-Electron Energy =               -2541.3902681570052664
    Two-Electron Energy =                1054.0458610612827215
    Total Energy =                       -659.4447274075155292

  Dipole Moment: [D]
     X:     2.5384      Y:     0.6521      Z:     0.1203     Total:     2.6236

  Basis Set: (AUG-CC-PVQZ AUX)
    Blend: AUG-CC-PVQZ-RI
	 Reference Energy          =    -659.4447274075155292 [Eh]
	 Singles Energy            =      -0.0000000000000000 [Eh]
	 Same-Spin Energy          =      -0.7256305856635198 [Eh]
	 Opposite-Spin Energy      =      -2.3335034367325598 [Eh]
	 Correlation Energy        =      -3.0591340223960795 [Eh]
	 Total Energy              =    -662.5038614299115807 [Eh]

	 ================> DF-SCS-MP2 Energies <==================
	-----------------------------------------------------------
	 SCS Same-Spin Scale       =       0.3333333333333333 [-]
	 SCS Opposite-Spin Scale   =       1.2000000000000000 [-]
	 SCS Same-Spin Energy      =      -0.2418768618878399 [Eh]
	 SCS Opposite-Spin Energy  =      -2.8002041240790718 [Eh]
	 SCS Correlation Energy    =      -3.0420809859669116 [Eh]
	 SCS Total Energy          =    -662.4868083934824199 [Eh]
	-----------------------------------------------------------

*** Psi4 exiting successfully. Buy a developer a beer!
