                               Psi4 1.4a2.dev224

  ==> Input File <==

--------------------------------------------------------------------------
#Generated by lconvert.py for cbs job

memory 40 GB

molecule  {
0 1
  N        1.2107550     0.0286760     0.3297110
  C        0.6119350    -1.1584490     0.1534520
  H        1.2514780    -2.0295230     0.2192930
  C       -0.7513140    -1.3086500    -0.0888340
  H       -1.1704160    -2.2968690    -0.2133830
  C       -1.5478680    -0.1699400    -0.1564670
  H       -2.6110130    -0.2459550    -0.3387560
  C       -0.9436220     1.0706360     0.0198230
  H       -1.5188140     1.9845000    -0.0116440
  C        0.4277190     1.1161090     0.2573490
  H        0.9246950     2.0680520     0.3975480
--
0 1
  N       -0.8037940    -0.3358510     2.2816400
  H       -1.6986830    -0.7677140     2.0970360
  C       -0.8035390     1.0619590     2.3746510
  O       -1.8434220     1.6901590     2.2598010
  C        0.5159560     1.6210400     2.6022140
  H        0.6172720     2.6882620     2.6980820
  C        1.5858290     0.8023480     2.6737340
  H        2.5897080     1.1710130     2.8221600
  N        1.4677680    -0.5549450     2.5611790
  H        2.2812040    -1.1471330     2.5530120
  C        0.2673210    -1.2021780     2.3347980
  O        0.1751840    -2.4075960     2.2012180
units angstrom
no_reorient
symmetry c1
}

set {
scf_type DF
mp2_type DF
e_convergence 7
reference rhf
}

energy('mp2/aug-cc-pv[tq]z', bsse_type='cp')
--------------------------------------------------------------------------

    Molecular point group: c1
  Charge       = 0
  Multiplicity = 1
  Basis Set: AUG-CC-PVTZ
    Blend: AUG-CC-PVTZ
  Basis Set: (AUG-CC-PVTZ AUX)
    Blend: AUG-CC-PVTZ-JKFIT
  @DF-RHF Final Energy:  -412.62438816054737
    Total Energy =                       -412.6243881605473689
  Basis Set: (AUG-CC-PVTZ AUX)
    Blend: AUG-CC-PVTZ-RI
	 Reference Energy          =    -412.6243881605473689 [Eh]
	 Singles Energy            =      -0.0000000000000000 [Eh]
	 Same-Spin Energy          =      -0.4141916992150655 [Eh]
	 Opposite-Spin Energy      =      -1.2264697371620814 [Eh]
	 Correlation Energy        =      -1.6406614363771470 [Eh]
	 Total Energy              =    -414.2650495969245412 [Eh]
	 SCS Total Energy          =    -414.2342157448802027 [Eh]
    Molecular point group: c1
  Basis Set: AUG-CC-PVQZ
    Blend: AUG-CC-PVQZ
  Basis Set: (AUG-CC-PVQZ AUX)
    Blend: AUG-CC-PVQZ-JKFIT
  @DF-RHF Final Energy:  -412.64991791178159
    Total Energy =                       -412.6499179117815856
  Basis Set: (AUG-CC-PVQZ AUX)
  @DF-RHF Final Energy:  -412.62516202984852
    Total Energy =                       -412.6251620298485250
  @DF-RHF Final Energy:  -412.65009112718656
    Total Energy =                       -412.6500911271865562
  @DF-RHF Final Energy:  -246.77908746110580
    Total Energy =                       -246.7790874611058030
  @DF-RHF Final Energy:  -246.79277945506209
    Total Energy =                       -246.7927794550620888
  @DF-RHF Final Energy:  -246.77852365130911
    Total Energy =                       -246.7785236513091149
  @DF-RHF Final Energy:  -246.79266029035071
    Total Energy =                       -246.7926602903507387
  Multiplicity = 1
  @DF-RHF Final Energy:  -659.23779790428125
    Total Energy =                       -659.2377979042812512
	 Singles Energy            =      -0.0000000000000000 [Eh]
	 Same-Spin Energy          =      -0.7248341863315981 [Eh]
	 Opposite-Spin Energy      =      -2.1264912991407154 [Eh]
	 Correlation Energy        =      -2.8513254854723136 [Eh]
	 Total Energy              =    -662.0891233897535813 [Eh]
	 SCS Total Energy          =    -662.0311988586939833 [Eh]
    Molecular point group: c1

    Geometry (in Angstrom), charge = 0, multiplicity = 1:

       Center              X                  Y                   Z               Mass
    ------------   -----------------  -----------------  -----------------  -----------------
         N            1.249545672194     0.029290399137    -1.115506359810    14.003074004430
         C            0.650725672194    -1.157834600863    -1.291765359810    12.000000000000
         H            1.290268672194    -2.028908600863    -1.225924359810     1.007825032230
         C           -0.712523327806    -1.308035600863    -1.534051359810    12.000000000000
         H           -1.131625327806    -2.296254600863    -1.658600359810     1.007825032230
         C           -1.509077327806    -0.169325600863    -1.601684359810    12.000000000000
         H           -2.572222327806    -0.245340600863    -1.783973359810     1.007825032230
         C           -0.904831327806     1.071250399137    -1.425394359810    12.000000000000
         H           -1.480023327806     1.985114399137    -1.456861359810     1.007825032230
         C            0.466509672194     1.116723399137    -1.187868359810    12.000000000000
         H            0.963485672194     2.068666399137    -1.047669359810     1.007825032230
         N           -0.765003327806    -0.335236600863     0.836422640190    14.003074004430
         H           -1.659892327806    -0.767099600863     0.651818640190     1.007825032230
         C           -0.764748327806     1.062573399137     0.929433640190    12.000000000000
         O           -1.804631327806     1.690773399137     0.814583640190    15.994914619570
         C            0.554746672194     1.621654399137     1.156996640190    12.000000000000
         H            0.656062672194     2.688876399137     1.252864640190     1.007825032230
         C            1.624619672194     0.802962399137     1.228516640190    12.000000000000
         H            2.628498672194     1.171627399137     1.376942640190     1.007825032230
         N            1.506558672194    -0.554330600863     1.115961640190    14.003074004430
         H            2.319994672194    -1.146518600863     1.107794640190     1.007825032230
         C            0.306111672194    -1.201563600863     0.889580640190    12.000000000000
         O            0.213974672194    -2.406981600863     0.756000640190    15.994914619570

  Charge       = 0
  Multiplicity = 1
  Basis Set: AUG-CC-PVQZ
    Blend: AUG-CC-PVQZ
  Basis Set: (AUG-CC-PVQZ AUX)
    Blend: AUG-CC-PVQZ-JKFIT

    Orbital Energies [Eh]
    ---------------------

    Doubly Occupied:

       1A    -20.537597     2A    -20.530428     3A    -15.625713
       4A    -15.611651     5A    -15.566385     6A    -11.412921
       7A    -11.377357     8A    -11.324318     9A    -11.274325
      10A    -11.271911    11A    -11.247890    12A    -11.245080
      13A    -11.231549    14A    -11.230495    15A     -1.438785
      16A     -1.398168    17A     -1.313821    18A     -1.262046
      19A     -1.242527    20A     -1.092332    21A     -1.089106
      22A     -1.035704    23A     -0.930368    24A     -0.898412
      25A     -0.862096    26A     -0.860038    27A     -0.802771
      28A     -0.760036    29A     -0.730598    30A     -0.705359
      31A     -0.698706    32A     -0.675436    33A     -0.661452
      34A     -0.654699    35A     -0.649198    36A     -0.611640
      37A     -0.605139    38A     -0.597560    39A     -0.585858
      40A     -0.575347    41A     -0.533542    42A     -0.518367
      43A     -0.496807    44A     -0.478115    45A     -0.446660
      46A     -0.438599    47A     -0.424086    48A     -0.373006
      49A     -0.362935    50A     -0.312991

  @DF-RHF Final Energy:  -659.27658044147370

   => Energetics <=

    Nuclear Repulsion Energy =            973.9361113925560858
    One-Electron Energy =               -2833.2054969647274447
    Two-Electron Energy =                1199.9928051306976613
    Total Energy =                       -659.2765804414736976

  Dipole Moment: [D]
     X:     2.7468      Y:     0.6757      Z:     0.2590     Total:     2.8405

  Basis Set: (AUG-CC-PVQZ AUX)
    Blend: AUG-CC-PVQZ-RI
	 Reference Energy          =    -659.2765804414736976 [Eh]
	 Singles Energy            =      -0.0000000000000000 [Eh]
	 Same-Spin Energy          =      -0.7649310645523617 [Eh]
	 Opposite-Spin Energy      =      -2.3832585528420891 [Eh]
	 Correlation Energy        =      -3.1481896173944506 [Eh]
	 Total Energy              =    -662.4247700588681482 [Eh]

	 ================> DF-SCS-MP2 Energies <==================
	-----------------------------------------------------------
	 SCS Same-Spin Scale       =       0.3333333333333333 [-]
	 SCS Opposite-Spin Scale   =       1.2000000000000000 [-]
	 SCS Same-Spin Energy      =      -0.2549770215174539 [Eh]
	 SCS Opposite-Spin Energy  =      -2.8599102634105069 [Eh]
	 SCS Correlation Energy    =      -3.1148872849279607 [Eh]
	 SCS Total Energy          =    -662.3914677264016291 [Eh]
	-----------------------------------------------------------

*** Psi4 exiting successfully. Buy a developer a beer!
