                               Psi4 1.4a2.dev224

  ==> Input File <==

--------------------------------------------------------------------------
#Generated by lconvert.py for cbs job

memory 40 GB

molecule  {
0 1
  N        1.2107550     0.0286760     0.3297110
  C        0.6119350    -1.1584490     0.1534520
  H        1.2514780    -2.0295230     0.2192930
  C       -0.7513140    -1.3086500    -0.0888340
  H       -1.1704160    -2.2968690    -0.2133830
  C       -1.5478680    -0.1699400    -0.1564670
  H       -2.6110130    -0.2459550    -0.3387560
  C       -0.9436220     1.0706360     0.0198230
  H       -1.5188140     1.9845000    -0.0116440
  C        0.4277190     1.1161090     0.2573490
  H        0.9246950     2.0680520     0.3975480
--
0 1
  N       -0.8037940    -0.3358510     2.2816400
  H       -1.6986830    -0.7677140     2.0970360
  C       -0.8035390     1.0619590     2.3746510
  O       -1.8434220     1.6901590     2.2598010
  C        0.5159560     1.6210400     2.6022140
  H        0.6172720     2.6882620     2.6980820
  C        1.5858290     0.8023480     2.6737340
  H        2.5897080     1.1710130     2.8221600
  N        1.4677680    -0.5549450     2.5611790
  H        2.2812040    -1.1471330     2.5530120
  C        0.2673210    -1.2021780     2.3347980
  O        0.1751840    -2.4075960     2.2012180
units angstrom
no_reorient
symmetry c1
}

set {
scf_type DF
mp2_type DF
e_convergence 7
reference rhf
}

energy('mp2/aug-cc-pv[tq]z', bsse_type='cp')
--------------------------------------------------------------------------

    Molecular point group: c1
  Charge       = 0
  Multiplicity = 1
  Basis Set: AUG-CC-PVTZ
    Blend: AUG-CC-PVTZ
  Basis Set: (AUG-CC-PVTZ AUX)
    Blend: AUG-CC-PVTZ-JKFIT
  @DF-RHF Final Energy:  -412.62438816054737
    Total Energy =                       -412.6243881605473689
  Basis Set: (AUG-CC-PVTZ AUX)
    Blend: AUG-CC-PVTZ-RI
	 Reference Energy          =    -412.6243881605473689 [Eh]
	 Singles Energy            =      -0.0000000000000000 [Eh]
	 Same-Spin Energy          =      -0.4141916992150655 [Eh]
	 Opposite-Spin Energy      =      -1.2264697371620814 [Eh]
	 Correlation Energy        =      -1.6406614363771470 [Eh]
	 Total Energy              =    -414.2650495969245412 [Eh]
	 SCS Total Energy          =    -414.2342157448802027 [Eh]
    Molecular point group: c1
  Basis Set: AUG-CC-PVQZ
    Blend: AUG-CC-PVQZ
  Basis Set: (AUG-CC-PVQZ AUX)
    Blend: AUG-CC-PVQZ-JKFIT
  @DF-RHF Final Energy:  -412.64991791178159
    Total Energy =                       -412.6499179117815856
  Basis Set: (AUG-CC-PVQZ AUX)
  @DF-RHF Final Energy:  -412.62516202984852
    Total Energy =                       -412.6251620298485250
  @DF-RHF Final Energy:  -412.65009112718656
    Total Energy =                       -412.6500911271865562
  @DF-RHF Final Energy:  -246.77908746110580
    Total Energy =                       -246.7790874611058030
  @DF-RHF Final Energy:  -246.79277945506209
    Total Energy =                       -246.7927794550620888
  @DF-RHF Final Energy:  -246.77852365130911
    Total Energy =                       -246.7785236513091149
  @DF-RHF Final Energy:  -246.79266029035071
    Total Energy =                       -246.7926602903507387
  @DF-RHF Final Energy:  -659.23779790428125
    Total Energy =                       -659.2377979042812512
  @DF-RHF Final Energy:  -659.27658044147370
    Total Energy =                       -659.2765804414736976
*** Psi4 exiting successfully. Buy a developer a beer!
                               Psi4 1.4a2.dev224
  @DF-RHF Final Energy:  -412.62438812788002
    Total Energy =                       -412.6243881278800245
  @DF-RHF Final Energy:  -412.64991787658886
    Total Energy =                       -412.6499178765888587
  @DF-RHF Final Energy:  -412.62495930964775
    Total Energy =                       -412.6249593096477497
  @DF-RHF Final Energy:  -412.65005407180621
    Total Energy =                       -412.6500540718062098
  @DF-RHF Final Energy:  -246.77894489948869
    Total Energy =                       -246.7789448994886925
  @DF-RHF Final Energy:  -246.79275625667407
    Total Energy =                       -246.7927562566740676
  @DF-RHF Final Energy:  -246.77852365135857
    Total Energy =                       -246.7785236513585687
  @DF-RHF Final Energy:  -246.79266028900182
    Total Energy =                       -246.7926602890018444
  @DF-RHF Final Energy:  -659.34328966984583
    Total Energy =                       -659.3432896698459444
  @DF-RHF Final Energy:  -659.38223770214358
    Total Energy =                       -659.3822377021435841
*** Psi4 exiting successfully. Buy a developer a beer!
                               Psi4 1.4a2.dev224
                               Psi4 1.4a2.dev224
                               Psi4 1.4a2.dev224
                               Psi4 1.4a2.dev224
                               Psi4 1.4a2.dev224
                               Psi4 1.4a2.dev224
                               Psi4 1.4a2.dev224
  @DF-RHF Final Energy:  -412.62438840650316
    Total Energy =                       -412.6243884065031580
  @DF-RHF Final Energy:  -412.64991814913702
    Total Energy =                       -412.6499181491370223
  @DF-RHF Final Energy:  -412.62443706435272
    Total Energy =                       -412.6244370643527191
  @DF-RHF Final Energy:  -412.64993695692647
    Total Energy =                       -412.6499369569264672
  @DF-RHF Final Energy:  -246.77856918960563
    Total Energy =                       -246.7785691896056051
  @DF-RHF Final Energy:  -246.79267429326535
    Total Energy =                       -246.7926742932653497
  @DF-RHF Final Energy:  -246.77852333696782
    Total Energy =                       -246.7785233369678508
  @DF-RHF Final Energy:  -246.79265996788172
    Total Energy =                       -246.7926599678817183
  @DF-RHF Final Energy:  -659.40431831244109
    Total Energy =                       -659.4043183124410916
  @DF-RHF Final Energy:  -659.44392173952110
    Total Energy =                       -659.4439217395211017
*** Psi4 exiting successfully. Buy a developer a beer!
                               Psi4 1.4a2.dev224
  @DF-RHF Final Energy:  -412.62438826969696
    Total Energy =                       -412.6243882696969649
  @DF-RHF Final Energy:  -412.64991803746102
    Total Energy =                       -412.6499180374610205
  @DF-RHF Final Energy:  -412.62440774324034
    Total Energy =                       -412.6244077432403401
  @DF-RHF Final Energy:  -412.64992572992952
    Total Energy =                       -412.6499257299295209
  @DF-RHF Final Energy:  -246.77854358853480
    Total Energy =                       -246.7785435885348306
  @DF-RHF Final Energy:  -246.79266740195152
    Total Energy =                       -246.7926674019515190
  @DF-RHF Final Energy:  -246.77852333569453
    Total Energy =                       -246.7785233356945582
  @DF-RHF Final Energy:  -246.79265996477318
    Total Energy =                       -246.7926599647731791
  Multiplicity = 1
  @DF-RHF Final Energy:  -659.40373649217622
    Total Energy =                       -659.4037364921762219
	 Singles Energy            =      -0.0000000000000000 [Eh]
	 Same-Spin Energy          =      -0.6832605323038402 [Eh]
	 Opposite-Spin Energy      =      -2.0658900542900134 [Eh]
	 Correlation Energy        =      -2.7491505865938537 [Eh]
	 Total Energy              =    -662.1528870787700498 [Eh]
	 SCS Total Energy          =    -662.1105580680921321 [Eh]
    Molecular point group: c1

    Geometry (in Angstrom), charge = 0, multiplicity = 1:

       Center              X                  Y                   Z               Mass
    ------------   -----------------  -----------------  -----------------  -----------------
         N            1.044252427503    -0.088277487249    -3.416795087180    14.003074004430
         C            0.445432427503    -1.275407487249    -3.593055087180    12.000000000000
         H            1.084972427503    -2.146477487249    -3.527215087180     1.007825032230
         C           -0.917817572497    -1.425607487249    -3.835335087180    12.000000000000
         H           -1.336927572497    -2.413827487249    -3.959885087180     1.007825032230
         C           -1.714377572497    -0.286897487249    -3.902975087180    12.000000000000
         H           -2.777517572497    -0.362917487249    -4.085265087180     1.007825032230
         C           -1.110127572497     0.953682512751    -3.726685087180    12.000000000000
         H           -1.685317572497     1.867542512751    -3.758145087180     1.007825032230
         C            0.261212427503     0.999152512751    -3.489155087180    12.000000000000
         H            0.758192427503     1.951092512751    -3.348955087180     1.007825032230
         N           -0.620157572497    -0.252287487249     2.460124912820    14.003074004430
         H           -1.515047572497    -0.684147487249     2.275524912820     1.007825032230
         C           -0.619897572497     1.145532512751     2.553134912820    12.000000000000
         O           -1.659777572497     1.773722512751     2.438284912820    15.994914619570
         C            0.699592427503     1.704612512751     2.780694912820    12.000000000000
         H            0.800912427503     2.771832512751     2.876564912820     1.007825032230
         C            1.769472427503     0.885912512751     2.852214912820    12.000000000000
         H            2.773352427503     1.254582512751     3.000644912820     1.007825032230
         N            1.651402427503    -0.471377487249     2.739664912820    14.003074004430
         H            2.464842427503    -1.063567487249     2.731494912820     1.007825032230
         C            0.450962427503    -1.118607487249     2.513284912820    12.000000000000
         O            0.358822427503    -2.324027487249     2.379704912820    15.994914619570

  Charge       = 0
  Multiplicity = 1
  Basis Set: AUG-CC-PVQZ
    Blend: AUG-CC-PVQZ
  Basis Set: (AUG-CC-PVQZ AUX)
    Blend: AUG-CC-PVQZ-JKFIT

    Orbital Energies [Eh]
    ---------------------

    Doubly Occupied:

       1A    -20.542510     2A    -20.537090     3A    -15.640585
       4A    -15.623458     5A    -15.565354     6A    -11.415780
       7A    -11.377892     8A    -11.337786     9A    -11.274008
      10A    -11.273801    11A    -11.258576    12A    -11.252187
      13A    -11.240416    14A    -11.240351    15A     -1.433709
      16A     -1.394900    17A     -1.311984    18A     -1.255180
      19A     -1.244067    20A     -1.088676    21A     -1.086390
      22A     -1.032827    23A     -0.932408    24A     -0.900090
      25A     -0.858819    26A     -0.854883    27A     -0.805625
      28A     -0.763783    29A     -0.721333    30A     -0.712803
      31A     -0.675707    32A     -0.667649    33A     -0.659786
      34A     -0.653801    35A     -0.650948    36A     -0.612896
      37A     -0.599956    38A     -0.597906    39A     -0.576352
      40A     -0.569032    41A     -0.540657    42A     -0.524260
      43A     -0.519637    44A     -0.482126    45A     -0.447839
      46A     -0.435306    47A     -0.420071    48A     -0.383384
      49A     -0.367192    50A     -0.347318

  @DF-RHF Final Energy:  -659.44337743505662

   => Energetics <=

    Nuclear Repulsion Energy =            756.2771908146494297
    One-Electron Energy =               -2398.0229523241032439
    Two-Electron Energy =                 982.3023840743971959
    Total Energy =                       -659.4433774350566182

  Dipole Moment: [D]
     X:     2.5789      Y:     0.6920      Z:     0.2338     Total:     2.6804

  Basis Set: (AUG-CC-PVQZ AUX)
    Blend: AUG-CC-PVQZ-RI
	 Reference Energy          =    -659.4433774350566182 [Eh]
	 Singles Energy            =      -0.0000000000000000 [Eh]
	 Same-Spin Energy          =      -0.7236914426732689 [Eh]
	 Opposite-Spin Energy      =      -2.3311720566377114 [Eh]
	 Correlation Energy        =      -3.0548634993109802 [Eh]
	 Total Energy              =    -662.4982409343675727 [Eh]

	 ================> DF-SCS-MP2 Energies <==================
	-----------------------------------------------------------
	 SCS Same-Spin Scale       =       0.3333333333333333 [-]
	 SCS Opposite-Spin Scale   =       1.2000000000000000 [-]
	 SCS Same-Spin Energy      =      -0.2412304808910896 [Eh]
	 SCS Opposite-Spin Energy  =      -2.7974064679652537 [Eh]
	 SCS Correlation Energy    =      -3.0386369488563432 [Eh]
	 SCS Total Energy          =    -662.4820143839129969 [Eh]
	-----------------------------------------------------------

*** Psi4 exiting successfully. Buy a developer a beer!
