                               Psi4 1.4a2.dev224

  ==> Input File <==

--------------------------------------------------------------------------
#Generated by lconvert.py for cbs job

memory 20 GB

molecule  {
0 1
  N       1.210760    0.028680    0.329710
  C       0.611940   -1.158450    0.153450
  H       1.251480   -2.029520    0.219290
  C      -0.751310   -1.308650   -0.088830
  H      -1.170420   -2.296870   -0.213380
  C      -1.547870   -0.169940   -0.156470
  H      -2.611010   -0.245960   -0.338760
  C      -0.943620    1.070640    0.019820
  H      -1.518810    1.984500   -0.011640
  C       0.427720    1.116110    0.257350
  H       0.924700    2.068050    0.397550
--
0 1
  N      -0.540110   -0.184840    5.237380
  H      -1.435000   -0.616710    5.052780
  C      -0.539860    1.212970    5.330400
  O      -1.579740    1.841170    5.215550
  C       0.779640    1.772050    5.557960
  H       0.880950    2.839270    5.653830
  C       1.849510    0.953360    5.629480
  H       2.853390    1.322020    5.777910
  N       1.731450   -0.403940    5.516920
  H       2.544880   -0.996130    5.508760
  C       0.531000   -1.051170    5.290540
  O       0.438870   -2.256590    5.156960
units angstrom
no_reorient
symmetry c1
}

set {
scf_type DF
mp2_type DF
e_convergence 7
reference rhf
}

energy('mp2/aug-cc-pv[tq]z', bsse_type='cp')
--------------------------------------------------------------------------

    Molecular point group: c1
  Charge       = 0
  Multiplicity = 1
  Basis Set: AUG-CC-PVTZ
    Blend: AUG-CC-PVTZ
  Basis Set: (AUG-CC-PVTZ AUX)
    Blend: AUG-CC-PVTZ-JKFIT
  @DF-RHF Final Energy:  -412.62438840650316
    Total Energy =                       -412.6243884065031580
  Basis Set: (AUG-CC-PVTZ AUX)
    Blend: AUG-CC-PVTZ-RI
	 Reference Energy          =    -412.6243884065031580 [Eh]
	 Singles Energy            =      -0.0000000000000000 [Eh]
	 Same-Spin Energy          =      -0.4141915757167975 [Eh]
	 Opposite-Spin Energy      =      -1.2264696681906675 [Eh]
	 Correlation Energy        =      -1.6406612439074650 [Eh]
	 Total Energy              =    -414.2650496504106172 [Eh]
	 SCS Total Energy          =    -414.2342158669042078 [Eh]
    Molecular point group: c1
  Basis Set: AUG-CC-PVQZ
    Blend: AUG-CC-PVQZ
  Basis Set: (AUG-CC-PVQZ AUX)
    Blend: AUG-CC-PVQZ-JKFIT
  @DF-RHF Final Energy:  -412.64991814913702
    Total Energy =                       -412.6499181491370223
  Basis Set: (AUG-CC-PVQZ AUX)
  @DF-RHF Final Energy:  -412.62443706435272
    Total Energy =                       -412.6244370643527191
  @DF-RHF Final Energy:  -412.64993695692647
    Total Energy =                       -412.6499369569264672
  @DF-RHF Final Energy:  -246.77856918960563
    Total Energy =                       -246.7785691896056051
  @DF-RHF Final Energy:  -246.79267429326535
    Total Energy =                       -246.7926742932653497
  @DF-RHF Final Energy:  -246.77852333696782
    Total Energy =                       -246.7785233369678508
  @DF-RHF Final Energy:  -246.79265996788172
    Total Energy =                       -246.7926599678817183
  Multiplicity = 1
  @DF-RHF Final Energy:  -659.40431831244109
    Total Energy =                       -659.4043183124410916
	 Singles Energy            =      -0.0000000000000000 [Eh]
	 Same-Spin Energy          =      -0.6837160217403455 [Eh]
	 Opposite-Spin Energy      =      -2.0667025736748883 [Eh]
	 Correlation Energy        =      -2.7504185954152338 [Eh]
	 Total Energy              =    -662.1547369078563179 [Eh]
	 SCS Total Energy          =    -662.1122667414310854 [Eh]
    Molecular point group: c1

    Geometry (in Angstrom), charge = 0, multiplicity = 1:

       Center              X                  Y                   Z               Mass
    ------------   -----------------  -----------------  -----------------  -----------------
         N            1.094948272602    -0.059245268727    -2.848510239288    14.003074004430
         C            0.496128272602    -1.246375268727    -3.024770239288    12.000000000000
         H            1.135668272602    -2.117445268727    -2.958930239288     1.007825032230
         C           -0.867121727398    -1.396575268727    -3.267050239288    12.000000000000
         H           -1.286231727398    -2.384795268727    -3.391600239288     1.007825032230
         C           -1.663681727398    -0.257865268727    -3.334690239288    12.000000000000
         H           -2.726821727398    -0.333885268727    -3.516980239288     1.007825032230
         C           -1.059431727398     0.982714731273    -3.158400239288    12.000000000000
         H           -1.634621727398     1.896574731273    -3.189860239288     1.007825032230
         C            0.311908272602     1.028184731273    -2.920870239288    12.000000000000
         H            0.808888272602     1.980124731273    -2.780670239288     1.007825032230
         N           -0.655921727398    -0.272765268727     2.059159760712    14.003074004430
         H           -1.550811727398    -0.704635268727     1.874559760712     1.007825032230
         C           -0.655671727398     1.125044731273     2.152179760712    12.000000000000
         O           -1.695551727398     1.753244731273     2.037329760712    15.994914619570
         C            0.663828272602     1.684124731273     2.379739760712    12.000000000000
         H            0.765138272602     2.751344731273     2.475609760712     1.007825032230
         C            1.733698272602     0.865434731273     2.451259760712    12.000000000000
         H            2.737578272602     1.234094731273     2.599689760712     1.007825032230
         N            1.615638272602    -0.491865268727     2.338699760712    14.003074004430
         H            2.429068272602    -1.084055268727     2.330539760712     1.007825032230
         C            0.415188272602    -1.139095268727     2.112319760712    12.000000000000
         O            0.323058272602    -2.344515268727     1.978739760712    15.994914619570

  Charge       = 0
  Multiplicity = 1
  Basis Set: AUG-CC-PVQZ
    Blend: AUG-CC-PVQZ
  Basis Set: (AUG-CC-PVQZ AUX)
    Blend: AUG-CC-PVQZ-JKFIT

    Orbital Energies [Eh]
    ---------------------

    Doubly Occupied:

       1A    -20.541546     2A    -20.536263     3A    -15.639367
       4A    -15.622464     5A    -15.565886     6A    -11.414782
       7A    -11.377049     8A    -11.336745     9A    -11.274273
      10A    -11.273981    11A    -11.258603    12A    -11.251060
      13A    -11.240493    14A    -11.240372    15A     -1.432696
      16A     -1.394087    17A     -1.310846    18A     -1.255615
      19A     -1.243014    20A     -1.088811    21A     -1.085293
      22A     -1.032979    23A     -0.931299    24A     -0.899056
      25A     -0.858909    26A     -0.855088    27A     -0.804531
      28A     -0.762739    29A     -0.721476    30A     -0.711737
      31A     -0.674832    32A     -0.666476    33A     -0.659974
      34A     -0.653768    35A     -0.650031    36A     -0.612004
      37A     -0.599002    38A     -0.597979    39A     -0.576526
      40A     -0.568119    41A     -0.541074    42A     -0.523088
      43A     -0.519709    44A     -0.481213    45A     -0.447033
      46A     -0.434452    47A     -0.420623    48A     -0.383707
      49A     -0.366114    50A     -0.347427

  @DF-RHF Final Energy:  -659.44392173952110

   => Energetics <=

    Nuclear Repulsion Energy =            786.8471368680818614
    One-Electron Energy =               -2459.2136902598003871
    Two-Electron Energy =                1012.9226316521974240
    Total Energy =                       -659.4439217395211017

  Dipole Moment: [D]
     X:     2.5609      Y:     0.6763      Z:     0.1932     Total:     2.6557

  Basis Set: (AUG-CC-PVQZ AUX)
    Blend: AUG-CC-PVQZ-RI
	 Reference Energy          =    -659.4439217395211017 [Eh]
	 Singles Energy            =      -0.0000000000000000 [Eh]
	 Same-Spin Energy          =      -0.7241149652763058 [Eh]
	 Opposite-Spin Energy      =      -2.3316961295485830 [Eh]
	 Correlation Energy        =      -3.0558110948248887 [Eh]
	 Total Energy              =    -662.4997328343459913 [Eh]

	 ================> DF-SCS-MP2 Energies <==================
	-----------------------------------------------------------
	 SCS Same-Spin Scale       =       0.3333333333333333 [-]
	 SCS Opposite-Spin Scale   =       1.2000000000000000 [-]
	 SCS Same-Spin Energy      =      -0.2413716550921019 [Eh]
	 SCS Opposite-Spin Energy  =      -2.7980353554582993 [Eh]
	 SCS Correlation Energy    =      -3.0394070105504012 [Eh]
	 SCS Total Energy          =    -662.4833287500714505 [Eh]
	-----------------------------------------------------------

*** Psi4 exiting successfully. Buy a developer a beer!
