                               Psi4 1.4a2.dev224

  ==> Input File <==

--------------------------------------------------------------------------
#Generated by lconvert.py for cbs job

memory 40 GB

molecule  {
0 1
  N        1.2107550     0.0286760     0.3297110
  C        0.6119350    -1.1584490     0.1534520
  H        1.2514780    -2.0295230     0.2192930
  C       -0.7513140    -1.3086500    -0.0888340
  H       -1.1704160    -2.2968690    -0.2133830
  C       -1.5478680    -0.1699400    -0.1564670
  H       -2.6110130    -0.2459550    -0.3387560
  C       -0.9436220     1.0706360     0.0198230
  H       -1.5188140     1.9845000    -0.0116440
  C        0.4277190     1.1161090     0.2573490
  H        0.9246950     2.0680520     0.3975480
--
0 1
  N       -0.6994540    -0.2760950     3.4512510
  H       -1.5943430    -0.7079590     3.2666480
  C       -0.6991990     1.1217140     3.5442620
  O       -1.7390820     1.7499140     3.4294120
  C        0.6202960     1.6807960     3.7718250
  H        0.7216120     2.7480180     3.8676940
  C        1.6901700     0.8621030     3.8433460
  H        2.6940490     1.2307680     3.9917720
  N        1.5721080    -0.4951900     3.7307910
  H        2.3855440    -1.0873770     3.7226230
  C        0.3716620    -1.1424220     3.5044090
  O        0.2795240    -2.3478400     3.3708300
units angstrom
no_reorient
symmetry c1
}

set {
scf_type DF
mp2_type DF
e_convergence 7
reference rhf
}

energy('mp2/aug-cc-pv[tq]z', bsse_type='cp')
--------------------------------------------------------------------------

    Molecular point group: c1
  Charge       = 0
  Multiplicity = 1
  Basis Set: AUG-CC-PVTZ
    Blend: AUG-CC-PVTZ
  Basis Set: (AUG-CC-PVTZ AUX)
    Blend: AUG-CC-PVTZ-JKFIT
  @DF-RHF Final Energy:  -412.62438814791403
    Total Energy =                       -412.6243881479140327
  Basis Set: (AUG-CC-PVTZ AUX)
    Blend: AUG-CC-PVTZ-RI
	 Reference Energy          =    -412.6243881479140327 [Eh]
	 Singles Energy            =      -0.0000000000000000 [Eh]
	 Same-Spin Energy          =      -0.4141916954774578 [Eh]
	 Opposite-Spin Energy      =      -1.2264697353659335 [Eh]
	 Correlation Energy        =      -1.6406614308433913 [Eh]
	 Total Energy              =    -414.2650495787574414 [Eh]
	 SCS Total Energy          =    -414.2342157288456406 [Eh]
    Molecular point group: c1
  Basis Set: AUG-CC-PVQZ
    Blend: AUG-CC-PVQZ
  Basis Set: (AUG-CC-PVQZ AUX)
    Blend: AUG-CC-PVQZ-JKFIT
  @DF-RHF Final Energy:  -412.64991789768499
    Total Energy =                       -412.6499178976849862
  Basis Set: (AUG-CC-PVQZ AUX)
  @DF-RHF Final Energy:  -412.62466779728129
    Total Energy =                       -412.6246677972812904
  @DF-RHF Final Energy:  -412.64999193813162
    Total Energy =                       -412.6499919381316204
  @DF-RHF Final Energy:  -246.77872554573923
    Total Energy =                       -246.7787255457392348
  @DF-RHF Final Energy:  -246.79271088080685
    Total Energy =                       -246.7927108808068510
  @DF-RHF Final Energy:  -246.77852364971045
    Total Energy =                       -246.7785236497104506
  @DF-RHF Final Energy:  -246.79266028978336
    Total Energy =                       -246.7926602897833845
  Multiplicity = 1
  @DF-RHF Final Energy:  -659.40272305933445
    Total Energy =                       -659.4027230593344484
	 Singles Energy            =      -0.0000000000000000 [Eh]
	 Same-Spin Energy          =      -0.6900935215162437 [Eh]
	 Opposite-Spin Energy      =      -2.0763662322246121 [Eh]
	 Correlation Energy        =      -2.7664597537408557 [Eh]
	 Total Energy              =    -662.1691828130752810 [Eh]
	 SCS Total Energy          =    -662.1243937118426857 [Eh]
    Molecular point group: c1

    Geometry (in Angstrom), charge = 0, multiplicity = 1:

       Center              X                  Y                   Z               Mass
    ------------   -----------------  -----------------  -----------------  -----------------
         N            1.188369228207    -0.005745264824    -1.801269378124    14.003074004430
         C            0.589549228207    -1.192870264824    -1.977528378124    12.000000000000
         H            1.229092228207    -2.063944264824    -1.911687378124     1.007825032230
         C           -0.773699771793    -1.343071264824    -2.219814378124    12.000000000000
         H           -1.192801771793    -2.331290264824    -2.344363378124     1.007825032230
         C           -1.570253771793    -0.204361264824    -2.287447378124    12.000000000000
         H           -2.633398771793    -0.280376264824    -2.469736378124     1.007825032230
         C           -0.966007771793     1.036214735176    -2.111157378124    12.000000000000
         H           -1.541199771793     1.950078735176    -2.142624378124     1.007825032230
         C            0.405333228207     1.081687735176    -1.873631378124    12.000000000000
         H            0.902309228207     2.033630735176    -1.733432378124     1.007825032230
         N           -0.721839771793    -0.310516264824     1.320270621876    14.003074004430
         H           -1.616728771793    -0.742380264824     1.135667621876     1.007825032230
         C           -0.721584771793     1.087292735176     1.413281621876    12.000000000000
         O           -1.761467771793     1.715492735176     1.298431621876    15.994914619570
         C            0.597910228207     1.646374735176     1.640844621876    12.000000000000
         H            0.699226228207     2.713596735176     1.736713621876     1.007825032230
         C            1.667784228207     0.827681735176     1.712365621876    12.000000000000
         H            2.671663228207     1.196346735176     1.860791621876     1.007825032230
         N            1.549722228207    -0.529611264824     1.599810621876    14.003074004430
         H            2.363158228207    -1.121798264824     1.591642621876     1.007825032230
         C            0.349276228207    -1.176843264824     1.373428621876    12.000000000000
         O            0.257138228207    -2.382261264824     1.239849621876    15.994914619570

  Charge       = 0
  Multiplicity = 1
  Basis Set: AUG-CC-PVQZ
    Blend: AUG-CC-PVQZ
  Basis Set: (AUG-CC-PVQZ AUX)
    Blend: AUG-CC-PVQZ-JKFIT

    Orbital Energies [Eh]
    ---------------------

    Doubly Occupied:

       1A    -20.538553     2A    -20.533363     3A    -15.634507
       4A    -15.618726     5A    -15.568132     6A    -11.411377
       7A    -11.374078     8A    -11.332729     9A    -11.274998
      10A    -11.274530    11A    -11.258647    12A    -11.246611
      13A    -11.240756    14A    -11.239948    15A     -1.429556
      16A     -1.391605    17A     -1.306664    18A     -1.258119
      19A     -1.239202    20A     -1.089710    21A     -1.081316
      22A     -1.033879    23A     -0.927192    24A     -0.895378
      25A     -0.859482    26A     -0.856159    27A     -0.800543
      28A     -0.758988    29A     -0.722402    30A     -0.707830
      31A     -0.672045    32A     -0.664473    33A     -0.660827
      34A     -0.653467    35A     -0.647214    36A     -0.608985
      37A     -0.598395    38A     -0.595732    39A     -0.577727
      40A     -0.566340    41A     -0.541578    42A     -0.521060
      43A     -0.518255    44A     -0.478516    45A     -0.444511
      46A     -0.432231    47A     -0.423173    48A     -0.385877
      49A     -0.362748    50A     -0.346952

  @DF-RHF Final Energy:  -659.44203510692512

   => Energetics <=

    Nuclear Repulsion Energy =            874.7655510620622863
    One-Electron Energy =               -2635.2050127761867770
    Two-Electron Energy =                1100.9974266071994862
    Total Energy =                       -659.4420351069250046

  Dipole Moment: [D]
     X:     2.5300      Y:     0.6261      Z:     0.0575     Total:     2.6069

  Basis Set: (AUG-CC-PVQZ AUX)
    Blend: AUG-CC-PVQZ-RI
	 Reference Energy          =    -659.4420351069251183 [Eh]
	 Singles Energy            =      -0.0000000000000000 [Eh]
	 Same-Spin Energy          =      -0.7303083237694532 [Eh]
	 Opposite-Spin Energy      =      -2.3391938207695242 [Eh]
	 Correlation Energy        =      -3.0695021445389772 [Eh]
	 Total Energy              =    -662.5115372514641194 [Eh]

	 ================> DF-SCS-MP2 Energies <==================
	-----------------------------------------------------------
	 SCS Same-Spin Scale       =       0.3333333333333333 [-]
	 SCS Opposite-Spin Scale   =       1.2000000000000000 [-]
	 SCS Same-Spin Energy      =      -0.2434361079231511 [Eh]
	 SCS Opposite-Spin Energy  =      -2.8070325849234288 [Eh]
	 SCS Correlation Energy    =      -3.0504686928465796 [Eh]
	 SCS Total Energy          =    -662.4925037997717254 [Eh]
	-----------------------------------------------------------

*** Psi4 exiting successfully. Buy a developer a beer!
