                               Psi4 1.4a2.dev224

  ==> Input File <==

--------------------------------------------------------------------------
#Generated by lconvert.py for cbs job

memory 40 GB

molecule  {
0 1
  N        1.2107550     0.0286760     0.3297110
  C        0.6119350    -1.1584490     0.1534520
  H        1.2514780    -2.0295230     0.2192930
  C       -0.7513140    -1.3086500    -0.0888340
  H       -1.1704160    -2.2968690    -0.2133830
  C       -1.5478680    -0.1699400    -0.1564670
  H       -2.6110130    -0.2459550    -0.3387560
  C       -0.9436220     1.0706360     0.0198230
  H       -1.5188140     1.9845000    -0.0116440
  C        0.4277190     1.1161090     0.2573490
  H        0.9246950     2.0680520     0.3975480
--
0 1
  N       -0.6842230    -0.2673730     3.6219800
  H       -1.5791120    -0.6992360     3.4373770
  C       -0.6839680     1.1304370     3.7149910
  O       -1.7238510     1.7586370     3.6001410
  C        0.6355270     1.6895180     3.9425540
  H        0.7368430     2.7567400     4.0384220
  C        1.7054000     0.8708260     4.0140740
  H        2.7092790     1.2394910     4.1625010
  N        1.5873390    -0.4864670     3.9015200
  H        2.4007750    -1.0786550     3.8933520
  C        0.3868920    -1.1337000     3.6751380
  O        0.2947550    -2.3391180     3.5415590
units angstrom
no_reorient
symmetry c1
}

set {
scf_type DF
mp2_type DF
e_convergence 7
reference rhf
}

energy('mp2/aug-cc-pv[tq]z', bsse_type='cp')
--------------------------------------------------------------------------

    Molecular point group: c1
  Charge       = 0
  Multiplicity = 1
  Basis Set: AUG-CC-PVTZ
    Blend: AUG-CC-PVTZ
  Basis Set: (AUG-CC-PVTZ AUX)
    Blend: AUG-CC-PVTZ-JKFIT
  @DF-RHF Final Energy:  -412.62438817316337
    Total Energy =                       -412.6243881731633678
  Basis Set: (AUG-CC-PVTZ AUX)
    Blend: AUG-CC-PVTZ-RI
	 Reference Energy          =    -412.6243881731633678 [Eh]
	 Singles Energy            =      -0.0000000000000000 [Eh]
	 Same-Spin Energy          =      -0.4141916960096231 [Eh]
	 Opposite-Spin Energy      =      -1.2264697306502130 [Eh]
	 Correlation Energy        =      -1.6406614266598361 [Eh]
	 Total Energy              =    -414.2650495998232145 [Eh]
	 SCS Total Energy          =    -414.2342157486135079 [Eh]
    Molecular point group: c1
  Basis Set: AUG-CC-PVQZ
    Blend: AUG-CC-PVQZ
  Basis Set: (AUG-CC-PVQZ AUX)
    Blend: AUG-CC-PVQZ-JKFIT
  @DF-RHF Final Energy:  -412.64991791809979
    Total Energy =                       -412.6499179180997885
  Basis Set: (AUG-CC-PVQZ AUX)
  @DF-RHF Final Energy:  -412.62463001864541
    Total Energy =                       -412.6246300186454050
  @DF-RHF Final Energy:  -412.64998352709927
    Total Energy =                       -412.6499835270992662
  @DF-RHF Final Energy:  -246.77869838168172
    Total Energy =                       -246.7786983816816928
  @DF-RHF Final Energy:  -246.79270477858742
    Total Energy =                       -246.7927047785873924
  @DF-RHF Final Energy:  -246.77852364957616
    Total Energy =                       -246.7785236495761865
  @DF-RHF Final Energy:  -246.79266028967385
    Total Energy =                       -246.7926602896738473
  Multiplicity = 1
  @DF-RHF Final Energy:  -659.40426350577013
    Total Energy =                       -659.4042635057701318
	 Singles Energy            =      -0.0000000000000000 [Eh]
	 Same-Spin Energy          =      -0.6885577397055036 [Eh]
	 Opposite-Spin Energy      =      -2.0741508829715718 [Eh]
	 Correlation Energy        =      -2.7627086226770752 [Eh]
	 Total Energy              =    -662.1669721284472416 [Eh]
	 SCS Total Energy          =    -662.1227638119045196 [Eh]
    Molecular point group: c1

    Geometry (in Angstrom), charge = 0, multiplicity = 1:

       Center              X                  Y                   Z               Mass
    ------------   -----------------  -----------------  -----------------  -----------------
         N            1.179439165254    -0.010859414633    -1.901370620759    14.003074004430
         C            0.580619165254    -1.197984414633    -2.077629620759    12.000000000000
         H            1.220162165254    -2.069058414633    -2.011788620759     1.007825032230
         C           -0.782629834746    -1.348185414633    -2.319915620759    12.000000000000
         H           -1.201731834746    -2.336404414633    -2.444464620759     1.007825032230
         C           -1.579183834746    -0.209475414633    -2.387548620759    12.000000000000
         H           -2.642328834746    -0.285490414633    -2.569837620759     1.007825032230
         C           -0.974937834746     1.031100585367    -2.211258620759    12.000000000000
         H           -1.550129834746     1.944964585367    -2.242725620759     1.007825032230
         C            0.396403165254     1.076573585367    -1.973732620759    12.000000000000
         H            0.893379165254     2.028516585367    -1.833533620759     1.007825032230
         N           -0.715538834746    -0.306908414633     1.390898379241    14.003074004430
         H           -1.610427834746    -0.738771414633     1.206295379241     1.007825032230
         C           -0.715283834746     1.090901585367     1.483909379241    12.000000000000
         O           -1.755166834746     1.719101585367     1.369059379241    15.994914619570
         C            0.604211165254     1.649982585367     1.711472379241    12.000000000000
         H            0.705527165254     2.717204585367     1.807340379241     1.007825032230
         C            1.674084165254     0.831290585367     1.782992379241    12.000000000000
         H            2.677963165254     1.199955585367     1.931419379241     1.007825032230
         N            1.556023165254    -0.526002414633     1.670438379241    14.003074004430
         H            2.369459165254    -1.118190414633     1.662270379241     1.007825032230
         C            0.355576165254    -1.173235414633     1.444056379241    12.000000000000
         O            0.263439165254    -2.378653414633     1.310477379241    15.994914619570

  Charge       = 0
  Multiplicity = 1
  Basis Set: AUG-CC-PVQZ
    Blend: AUG-CC-PVQZ
  Basis Set: (AUG-CC-PVQZ AUX)
    Blend: AUG-CC-PVQZ-JKFIT

    Orbital Energies [Eh]
    ---------------------

    Doubly Occupied:

       1A    -20.538890     2A    -20.533722     3A    -15.635212
       4A    -15.619248     5A    -15.567967     6A    -11.411797
       7A    -11.374434     8A    -11.333326     9A    -11.275058
      10A    -11.274602    11A    -11.258816    12A    -11.247230
      13A    -11.240891    14A    -11.240234    15A     -1.429855
      16A     -1.391827    17A     -1.307190    18A     -1.257758
      19A     -1.239664    20A     -1.089657    21A     -1.081793
      22A     -1.033795    23A     -0.927715    24A     -0.895814
      25A     -0.859464    26A     -0.856064    27A     -0.801039
      28A     -0.759454    29A     -0.722295    30A     -0.708332
      31A     -0.672333    32A     -0.664065    33A     -0.660812
      34A     -0.653619    35A     -0.647506    36A     -0.609325
      37A     -0.598385    38A     -0.596118    39A     -0.577581
      40A     -0.566207    41A     -0.542132    42A     -0.520897
      43A     -0.518772    44A     -0.478778    45A     -0.444763
      46A     -0.432344    47A     -0.422891    48A     -0.385650
      49A     -0.362983    50A     -0.347462

  @DF-RHF Final Energy:  -659.44362425084284

   => Energetics <=

    Nuclear Repulsion Energy =            863.7845668616255352
    One-Electron Energy =               -2613.2248607336287023
    Two-Electron Energy =                1089.9966696211604358
    Total Energy =                       -659.4436242508427313

  Dipole Moment: [D]
     X:     2.5288      Y:     0.6314      Z:     0.0656     Total:     2.6072

  Basis Set: (AUG-CC-PVQZ AUX)
    Blend: AUG-CC-PVQZ-RI
	 Reference Energy          =    -659.4436242508428450 [Eh]
	 Singles Energy            =      -0.0000000000000000 [Eh]
	 Same-Spin Energy          =      -0.7287966538513853 [Eh]
	 Opposite-Spin Energy      =      -2.3373379038281747 [Eh]
	 Correlation Energy        =      -3.0661345576795602 [Eh]
	 Total Energy              =    -662.5097588085224061 [Eh]

	 ================> DF-SCS-MP2 Energies <==================
	-----------------------------------------------------------
	 SCS Same-Spin Scale       =       0.3333333333333333 [-]
	 SCS Opposite-Spin Scale   =       1.2000000000000000 [-]
	 SCS Same-Spin Energy      =      -0.2429322179504617 [Eh]
	 SCS Opposite-Spin Energy  =      -2.8048054845938095 [Eh]
	 SCS Correlation Energy    =      -3.0477377025442713 [Eh]
	 SCS Total Energy          =    -662.4913619533871270 [Eh]
	-----------------------------------------------------------

*** Psi4 exiting successfully. Buy a developer a beer!
