                               Psi4 1.4a2.dev224

  ==> Input File <==

--------------------------------------------------------------------------
#Generated by lconvert.py for cbs job

memory 20 GB

molecule  {
0 1
  C       0.835520    1.115170    0.021400
  H       1.484320    1.980610    0.019530
  C       1.383280   -0.166150    0.023770
  H       2.457150   -0.295200    0.022770
  C       0.547560   -1.281320    0.021690
  H       0.972940   -2.275810    0.019780
  C      -0.835520   -1.115160    0.021400
  H      -1.484330   -1.980610    0.019530
  C      -1.383280    0.166150    0.023760
  H      -2.457160    0.295210    0.022760
  C      -0.547570    1.281320    0.021680
  H      -0.972940    2.275810    0.019770
--
0 1
  C       0.655780   -0.116790    4.518540
  H       1.047240   -1.123910    4.514080
  H       1.370860    0.693270    4.514040
  C      -0.655770    0.116790    4.518550
  H      -1.370850   -0.693270    4.514060
  H      -1.047240    1.123910    4.514090
units angstrom
no_reorient
symmetry c1
}

set {
scf_type DF
mp2_type DF
e_convergence 7
reference rhf
}

energy('mp2/aug-cc-pv[tq]z', bsse_type='cp')
--------------------------------------------------------------------------

    Molecular point group: c1
  Charge       = 0
  Multiplicity = 1
  Basis Set: AUG-CC-PVTZ
    Blend: AUG-CC-PVTZ
  Basis Set: (AUG-CC-PVTZ AUX)
    Blend: AUG-CC-PVTZ-JKFIT
  @DF-RHF Final Energy:   -78.06473012143022
    Total Energy =                        -78.0647301214302161
  Basis Set: (AUG-CC-PVTZ AUX)
    Blend: AUG-CC-PVTZ-RI
	 Reference Energy          =     -78.0647301214302161 [Eh]
	 Singles Energy            =      -0.0000000000000000 [Eh]
	 Same-Spin Energy          =      -0.0765549994727411 [Eh]
	 Opposite-Spin Energy      =      -0.2985536774371143 [Eh]
	 Correlation Energy        =      -0.3751086769098553 [Eh]
	 Total Energy              =     -78.4398387983400767 [Eh]
	 SCS Total Energy          =     -78.4485128675123349 [Eh]
    Molecular point group: c1
  Basis Set: AUG-CC-PVQZ
    Blend: AUG-CC-PVQZ
  Basis Set: (AUG-CC-PVQZ AUX)
    Blend: AUG-CC-PVQZ-JKFIT
  @DF-RHF Final Energy:   -78.06944418428145
    Total Energy =                        -78.0694441842814513
  Basis Set: (AUG-CC-PVQZ AUX)
  @DF-RHF Final Energy:   -78.06476358116969
    Total Energy =                        -78.0647635811696858
  @DF-RHF Final Energy:   -78.06945796477346
    Total Energy =                        -78.0694579647734628
  @DF-RHF Final Energy:  -230.78134880484313
    Total Energy =                       -230.7813488048431054
  @DF-RHF Final Energy:  -230.79449421325478
    Total Energy =                       -230.7944942132547794
  @DF-RHF Final Energy:  -230.78130313902693
    Total Energy =                       -230.7813031390269316
  @DF-RHF Final Energy:  -230.79448043596830
    Total Energy =                       -230.7944804359682962
  Multiplicity = 1
  @DF-RHF Final Energy:  -308.84514254023554
    Total Energy =                       -308.8451425402355426
	 Singles Energy            =      -0.0000000000000000 [Eh]
	 Same-Spin Energy          =      -0.3330045951095740 [Eh]
	 Opposite-Spin Energy      =      -1.1186967419319587 [Eh]
	 Correlation Energy        =      -1.4517013370415326 [Eh]
	 Total Energy              =    -310.2968438772770696 [Eh]
	 SCS Total Energy          =    -310.2985801622571103 [Eh]
    Molecular point group: c1

    Geometry (in Angstrom), charge = 0, multiplicity = 1:

       Center              X                  Y                   Z               Mass
    ------------   -----------------  -----------------  -----------------  -----------------
         C            0.835520095008     1.115168773752    -1.188764684129    12.000000000000
         H            1.484320095008     1.980608773752    -1.190634684129     1.007825032230
         C            1.383280095008    -0.166151226248    -1.186394684129    12.000000000000
         H            2.457150095008    -0.295201226248    -1.187394684129     1.007825032230
         C            0.547560095008    -1.281321226248    -1.188474684129    12.000000000000
         H            0.972940095008    -2.275811226248    -1.190384684129     1.007825032230
         C           -0.835519904992    -1.115161226248    -1.188764684129    12.000000000000
         H           -1.484329904992    -1.980611226248    -1.190634684129     1.007825032230
         C           -1.383279904992     0.166148773752    -1.186404684129    12.000000000000
         H           -2.457159904992     0.295208773752    -1.187404684129     1.007825032230
         C           -0.547569904992     1.281318773752    -1.188484684129    12.000000000000
         H           -0.972939904992     2.275808773752    -1.190394684129     1.007825032230
         C            0.655780095008    -0.116791226248     3.308375315871    12.000000000000
         H            1.047240095008    -1.123911226248     3.303915315871     1.007825032230
         H            1.370860095008     0.693268773752     3.303875315871     1.007825032230
         C           -0.655769904992     0.116788773752     3.308385315871    12.000000000000
         H           -1.370849904992    -0.693271226248     3.303895315871     1.007825032230
         H           -1.047239904992     1.123908773752     3.303925315871     1.007825032230

  Charge       = 0
  Multiplicity = 1
  Basis Set: AUG-CC-PVQZ
    Blend: AUG-CC-PVQZ
  Basis Set: (AUG-CC-PVQZ AUX)
    Blend: AUG-CC-PVQZ-JKFIT

    Orbital Energies [Eh]
    ---------------------

    Doubly Occupied:

       1A    -11.233175     2A    -11.232617     3A    -11.232574
       4A    -11.231370     5A    -11.231324     6A    -11.230735
       7A    -11.223699     8A    -11.221971     9A     -1.148242
      10A     -1.028048    11A     -1.012753    12A     -1.012578
      13A     -0.822257    14A     -0.822139    15A     -0.787313
      16A     -0.707997    17A     -0.642312    18A     -0.638871
      19A     -0.617463    20A     -0.586412    21A     -0.586262
      22A     -0.581741    23A     -0.502762    24A     -0.500577
      25A     -0.493264    26A     -0.493135    27A     -0.370390
      28A     -0.334934    29A     -0.334780

  @DF-RHF Final Energy:  -308.86299188404604

   => Energetics <=

    Nuclear Repulsion Energy =            310.5960448412549795
    One-Electron Energy =               -1031.1946891633997438
    Two-Electron Energy =                 411.7356524380987253
    Total Energy =                       -308.8629918840460391

  Dipole Moment: [D]
     X:     0.0000      Y:     0.0000      Z:    -0.0606     Total:     0.0606

  Basis Set: (AUG-CC-PVQZ AUX)
    Blend: AUG-CC-PVQZ-RI
	 Reference Energy          =    -308.8629918840460391 [Eh]
	 Singles Energy            =      -0.0000000000000000 [Eh]
	 Same-Spin Energy          =      -0.3523639280981207 [Eh]
	 Opposite-Spin Energy      =      -1.2534359347657054 [Eh]
	 Correlation Energy        =      -1.6057998628638261 [Eh]
	 Total Energy              =    -310.4687917469098579 [Eh]

	 ================> DF-SCS-MP2 Energies <==================
	-----------------------------------------------------------
	 SCS Same-Spin Scale       =       0.3333333333333333 [-]
	 SCS Opposite-Spin Scale   =       1.2000000000000000 [-]
	 SCS Same-Spin Energy      =      -0.1174546426993736 [Eh]
	 SCS Opposite-Spin Energy  =      -1.5041231217188464 [Eh]
	 SCS Correlation Energy    =      -1.6215777644182201 [Eh]
	 SCS Total Energy          =    -310.4845696484642872 [Eh]
	-----------------------------------------------------------

*** Psi4 exiting successfully. Buy a developer a beer!
