                               Psi4 1.4a2.dev224

  ==> Input File <==

--------------------------------------------------------------------------
#Generated by lconvert.py for cbs job

memory 20 GB

molecule  {
0 1
  C       0.835520    1.115170    0.021400
  H       1.484320    1.980610    0.019530
  C       1.383280   -0.166150    0.023770
  H       2.457150   -0.295200    0.022770
  C       0.547560   -1.281320    0.021690
  H       0.972940   -2.275810    0.019780
  C      -0.835520   -1.115160    0.021400
  H      -1.484330   -1.980610    0.019530
  C      -1.383280    0.166150    0.023760
  H      -2.457160    0.295210    0.022760
  C      -0.547570    1.281320    0.021680
  H      -0.972940    2.275810    0.019770
--
0 1
  C       0.655790   -0.116790    5.582030
  H       1.047250   -1.123910    5.577560
  H       1.370860    0.693270    5.577520
  C      -0.655770    0.116790    5.582030
  H      -1.370840   -0.693270    5.577540
  H      -1.047230    1.123910    5.577580
units angstrom
no_reorient
symmetry c1
}

set {
scf_type DF
mp2_type DF
e_convergence 7
reference rhf
}

energy('mp2/aug-cc-pv[tq]z', bsse_type='cp')
--------------------------------------------------------------------------

    Molecular point group: c1
  Charge       = 0
  Multiplicity = 1
  Basis Set: AUG-CC-PVTZ
    Blend: AUG-CC-PVTZ
  Basis Set: (AUG-CC-PVTZ AUX)
    Blend: AUG-CC-PVTZ-JKFIT
  @DF-RHF Final Energy:   -78.06472983712855
    Total Energy =                        -78.0647298371285387
  Basis Set: (AUG-CC-PVTZ AUX)
    Blend: AUG-CC-PVTZ-RI
	 Reference Energy          =     -78.0647298371285530 [Eh]
	 Singles Energy            =      -0.0000000000000000 [Eh]
	 Same-Spin Energy          =      -0.0765550551963063 [Eh]
	 Opposite-Spin Energy      =      -0.2985538961276337 [Eh]
	 Correlation Energy        =      -0.3751089513239400 [Eh]
	 Total Energy              =     -78.4398387884524908 [Eh]
	 SCS Total Energy          =     -78.4485128642138108 [Eh]
    Molecular point group: c1
  Basis Set: AUG-CC-PVQZ
    Blend: AUG-CC-PVQZ
  Basis Set: (AUG-CC-PVQZ AUX)
    Blend: AUG-CC-PVQZ-JKFIT
  @DF-RHF Final Energy:   -78.06944389107893
    Total Energy =                        -78.0694438910789330
  Basis Set: (AUG-CC-PVQZ AUX)
  @DF-RHF Final Energy:   -78.06474047936774
    Total Energy =                        -78.0647404793677424
  @DF-RHF Final Energy:   -78.06944989112723
    Total Energy =                        -78.0694498911272206
  @DF-RHF Final Energy:  -230.78132586916564
    Total Energy =                       -230.7813258691656415
  @DF-RHF Final Energy:  -230.79448699281332
    Total Energy =                       -230.7944869928132903
  @DF-RHF Final Energy:  -230.78130313633767
    Total Energy =                       -230.7813031363376695
  @DF-RHF Final Energy:  -230.79448043216885
    Total Energy =                       -230.7944804321688252
  Multiplicity = 1
  @DF-RHF Final Energy:  -308.84565211950286
    Total Energy =                       -308.8456521195028586
	 Singles Energy            =      -0.0000000000000000 [Eh]
	 Same-Spin Energy          =      -0.3322485418698929 [Eh]
	 Opposite-Spin Energy      =      -1.1174885814071618 [Eh]
	 Correlation Energy        =      -1.4497371232770546 [Eh]
	 Total Energy              =    -310.2953892427798905 [Eh]
	 SCS Total Energy          =    -310.2973879311480800 [Eh]
    Molecular point group: c1

    Geometry (in Angstrom), charge = 0, multiplicity = 1:

       Center              X                  Y                   Z               Mass
    ------------   -----------------  -----------------  -----------------  -----------------
         C            0.835518678744     1.115168773752    -1.469791728304    12.000000000000
         H            1.484318678744     1.980608773752    -1.471661728304     1.007825032230
         C            1.383278678744    -0.166151226248    -1.467421728304    12.000000000000
         H            2.457148678744    -0.295201226248    -1.468421728304     1.007825032230
         C            0.547558678744    -1.281321226248    -1.469501728304    12.000000000000
         H            0.972938678744    -2.275811226248    -1.471411728304     1.007825032230
         C           -0.835521321256    -1.115161226248    -1.469791728304    12.000000000000
         H           -1.484331321256    -1.980611226248    -1.471661728304     1.007825032230
         C           -1.383281321256     0.166148773752    -1.467431728304    12.000000000000
         H           -2.457161321256     0.295208773752    -1.468431728304     1.007825032230
         C           -0.547571321256     1.281318773752    -1.469511728304    12.000000000000
         H           -0.972941321256     2.275808773752    -1.471421728304     1.007825032230
         C            0.655788678744    -0.116791226248     4.090838271696    12.000000000000
         H            1.047248678744    -1.123911226248     4.086368271696     1.007825032230
         H            1.370858678744     0.693268773752     4.086328271696     1.007825032230
         C           -0.655771321256     0.116788773752     4.090838271696    12.000000000000
         H           -1.370841321256    -0.693271226248     4.086348271696     1.007825032230
         H           -1.047231321256     1.123908773752     4.086388271696     1.007825032230

  Charge       = 0
  Multiplicity = 1
  Basis Set: AUG-CC-PVQZ
    Blend: AUG-CC-PVQZ
  Basis Set: (AUG-CC-PVQZ AUX)
    Blend: AUG-CC-PVQZ-JKFIT

    Orbital Energies [Eh]
    ---------------------

    Doubly Occupied:

       1A    -11.233713     2A    -11.233149     3A    -11.233119
       4A    -11.231903     5A    -11.231869     6A    -11.231274
       7A    -11.226178     8A    -11.224450     9A     -1.148875
      10A     -1.030584    11A     -1.013329    12A     -1.013141
      13A     -0.822762    14A     -0.822643    15A     -0.789655
      16A     -0.708496    17A     -0.642721    18A     -0.641259
      19A     -0.618004    20A     -0.586910    21A     -0.586748
      22A     -0.584121    23A     -0.505044    24A     -0.501163
      25A     -0.493729    26A     -0.493603    27A     -0.373192
      28A     -0.335584    29A     -0.335409

  @DF-RHF Final Energy:  -308.86352832708985

   => Energetics <=

    Nuclear Repulsion Energy =            297.9693959581781542
    One-Electron Energy =               -1005.8806050765351756
    Two-Electron Energy =                 399.0476807912671120
    Total Energy =                       -308.8635283270898526

  Dipole Moment: [D]
     X:     0.0000      Y:     0.0000      Z:    -0.0352     Total:     0.0352

  Basis Set: (AUG-CC-PVQZ AUX)
    Blend: AUG-CC-PVQZ-RI
	 Reference Energy          =    -308.8635283270898526 [Eh]
	 Singles Energy            =      -0.0000000000000000 [Eh]
	 Same-Spin Energy          =      -0.3516304198476680 [Eh]
	 Opposite-Spin Energy      =      -1.2524612246230578 [Eh]
	 Correlation Energy        =      -1.6040916444707258 [Eh]
	 Total Energy              =    -310.4676199715605662 [Eh]

	 ================> DF-SCS-MP2 Energies <==================
	-----------------------------------------------------------
	 SCS Same-Spin Scale       =       0.3333333333333333 [-]
	 SCS Opposite-Spin Scale   =       1.2000000000000000 [-]
	 SCS Same-Spin Energy      =      -0.1172101399492227 [Eh]
	 SCS Opposite-Spin Energy  =      -1.5029534695476692 [Eh]
	 SCS Correlation Energy    =      -1.6201636094968919 [Eh]
	 SCS Total Energy          =    -310.4836919365867516 [Eh]
	-----------------------------------------------------------

*** Psi4 exiting successfully. Buy a developer a beer!
