                               Psi4 1.4a2.dev224

  ==> Input File <==

--------------------------------------------------------------------------
#Generated by lconvert.py for cbs job

memory 40 GB

molecule  {
0 1
  C        0.8355170     1.1151670     0.0214010
  H        1.4843240     1.9806090     0.0195340
  C        1.3832750    -0.1661470     0.0237650
  H        2.4571490    -0.2952050     0.0227710
  C        0.5475550    -1.2813160     0.0216860
  H        0.9729360    -2.2758050     0.0197790
  C       -0.8355230    -1.1151620     0.0213990
  H       -1.4843340    -1.9806060     0.0195300
  C       -1.3832840     0.1661540     0.0237580
  H       -2.4571560     0.2952090     0.0227570
  C       -0.5475660     1.2813230     0.0216800
  H       -0.9729430     2.2758050     0.0197690
--
0 1
  C        0.6557800    -0.1167900     3.2829600
  H        1.0472410    -1.1239090     3.2784910
  H        1.3708540     0.6932740     3.2784580
  C       -0.6557760     0.1167920     3.2829690
  H       -1.3708480    -0.6932720     3.2784730
  H       -1.0472390     1.1239110     3.2785100
units angstrom
no_reorient
symmetry c1
}

set {
scf_type DF
mp2_type DF
e_convergence 7
reference rhf
}

energy('mp2/aug-cc-pv[tq]z', bsse_type='cp')
--------------------------------------------------------------------------

    Molecular point group: c1
  Charge       = 0
  Multiplicity = 1
  Basis Set: AUG-CC-PVTZ
    Blend: AUG-CC-PVTZ
  Basis Set: (AUG-CC-PVTZ AUX)
    Blend: AUG-CC-PVTZ-JKFIT
  @DF-RHF Final Energy:   -78.06472989782065
    Total Energy =                        -78.0647298978206550
  Basis Set: (AUG-CC-PVTZ AUX)
    Blend: AUG-CC-PVTZ-RI
	 Reference Energy          =     -78.0647298978206550 [Eh]
	 Singles Energy            =      -0.0000000000000000 [Eh]
	 Same-Spin Energy          =      -0.0765550404453019 [Eh]
	 Opposite-Spin Energy      =      -0.2985538380368383 [Eh]
	 Correlation Energy        =      -0.3751088784821402 [Eh]
	 Total Energy              =     -78.4398387763027927 [Eh]
	 SCS Total Energy          =     -78.4485128502799682 [Eh]
    Molecular point group: c1
  Basis Set: AUG-CC-PVQZ
    Blend: AUG-CC-PVQZ
  Basis Set: (AUG-CC-PVQZ AUX)
    Blend: AUG-CC-PVQZ-JKFIT
  @DF-RHF Final Energy:   -78.06944395307285
    Total Energy =                        -78.0694439530728488
  Basis Set: (AUG-CC-PVQZ AUX)
  @DF-RHF Final Energy:   -78.06481245724275
    Total Energy =                        -78.0648124572427520
  @DF-RHF Final Energy:   -78.06947389088489
    Total Energy =                        -78.0694738908848933
  @DF-RHF Final Energy:  -230.78145593760084
    Total Energy =                       -230.7814559376008106
  @DF-RHF Final Energy:  -230.79451815182773
    Total Energy =                       -230.7945181518277309
  @DF-RHF Final Energy:  -230.78130336157543
    Total Energy =                       -230.7813033615753966
  @DF-RHF Final Energy:  -230.79448065730361
    Total Energy =                       -230.7944806573036090
  Multiplicity = 1
  @DF-RHF Final Energy:  -308.83823979369669
    Total Energy =                       -308.8382397936966868
	 Singles Energy            =      -0.0000000000000000 [Eh]
	 Same-Spin Energy          =      -0.3375770615759105 [Eh]
	 Opposite-Spin Energy      =      -1.1254938405332131 [Eh]
	 Correlation Energy        =      -1.4630709021091235 [Eh]
	 Total Energy              =    -310.3013106958057961 [Eh]
	 SCS Total Energy          =    -310.3013580895284917 [Eh]
    Molecular point group: c1

    Geometry (in Angstrom), charge = 0, multiplicity = 1:

       Center              X                  Y                   Z               Mass
    ------------   -----------------  -----------------  -----------------  -----------------
         C            0.835519640741     1.115164519887    -0.862258713987    12.000000000000
         H            1.484326640741     1.980606519887    -0.864125713987     1.007825032230
         C            1.383277640741    -0.166149480113    -0.859894713987    12.000000000000
         H            2.457151640741    -0.295207480113    -0.860888713987     1.007825032230
         C            0.547557640741    -1.281318480113    -0.861973713987    12.000000000000
         H            0.972938640741    -2.275807480113    -0.863880713987     1.007825032230
         C           -0.835520359259    -1.115164480113    -0.862260713987    12.000000000000
         H           -1.484331359259    -1.980608480113    -0.864129713987     1.007825032230
         C           -1.383281359259     0.166151519887    -0.859901713987    12.000000000000
         H           -2.457153359259     0.295206519887    -0.860902713987     1.007825032230
         C           -0.547563359259     1.281320519887    -0.861979713987    12.000000000000
         H           -0.972940359259     2.275802519887    -0.863890713987     1.007825032230
         C            0.655782640741    -0.116792480113     2.399300286013    12.000000000000
         H            1.047243640741    -1.123911480113     2.394831286013     1.007825032230
         H            1.370856640741     0.693271519887     2.394798286013     1.007825032230
         C           -0.655773359259     0.116789519887     2.399309286013    12.000000000000
         H           -1.370845359259    -0.693274480113     2.394813286013     1.007825032230
         H           -1.047236359259     1.123908519887     2.394850286013     1.007825032230

  Charge       = 0
  Multiplicity = 1
  Basis Set: AUG-CC-PVQZ
    Blend: AUG-CC-PVQZ
  Basis Set: (AUG-CC-PVQZ AUX)
    Blend: AUG-CC-PVQZ-JKFIT

    Orbital Energies [Eh]
    ---------------------

    Doubly Occupied:

       1A    -11.232884     2A    -11.232484     3A    -11.232073
       4A    -11.231163     5A    -11.230819     6A    -11.230366
       7A    -11.216075     8A    -11.214345     9A     -1.148179
      10A     -1.021513    11A     -1.012722    12A     -1.012601
      13A     -0.822339    14A     -0.822253    15A     -0.781661
      16A     -0.708064    17A     -0.642643    18A     -0.633021
      19A     -0.617315    20A     -0.586397    21A     -0.586304
      22A     -0.575614    23A     -0.503837    24A     -0.497079
      25A     -0.493338    26A     -0.493186    27A     -0.359317
      28A     -0.335166    29A     -0.334908

  @DF-RHF Final Energy:  -308.85597170775765

   => Energetics <=

    Nuclear Repulsion Energy =            333.0858010076371443
    One-Electron Energy =               -1076.2682288313908430
    Two-Electron Energy =                 434.3264561159959953
    Total Energy =                       -308.8559717077576465

  Dipole Moment: [D]
     X:    -0.0000      Y:     0.0000      Z:    -0.2030     Total:     0.2030

  Basis Set: (AUG-CC-PVQZ AUX)
    Blend: AUG-CC-PVQZ-RI
	 Reference Energy          =    -308.8559717077576465 [Eh]
	 Singles Energy            =      -0.0000000000000000 [Eh]
	 Same-Spin Energy          =      -0.3568855122394862 [Eh]
	 Opposite-Spin Energy      =      -1.2592776997186337 [Eh]
	 Correlation Energy        =      -1.6161632119581197 [Eh]
	 Total Energy              =    -310.4721349197157565 [Eh]

	 ================> DF-SCS-MP2 Energies <==================
	-----------------------------------------------------------
	 SCS Same-Spin Scale       =       0.3333333333333333 [-]
	 SCS Opposite-Spin Scale   =       1.2000000000000000 [-]
	 SCS Same-Spin Energy      =      -0.1189618374131620 [Eh]
	 SCS Opposite-Spin Energy  =      -1.5111332396623605 [Eh]
	 SCS Correlation Energy    =      -1.6300950770755225 [Eh]
	 SCS Total Energy          =    -310.4860667848331559 [Eh]
	-----------------------------------------------------------

*** Psi4 exiting successfully. Buy a developer a beer!
