                               Psi4 1.4a2.dev224

  ==> Input File <==

--------------------------------------------------------------------------
#Generated by lconvert.py for cbs job

memory 40 GB

molecule  {
0 1
  C        0.8355170     1.1151670     0.0214010
  H        1.4843240     1.9806090     0.0195340
  C        1.3832750    -0.1661470     0.0237650
  H        2.4571490    -0.2952050     0.0227710
  C        0.5475550    -1.2813160     0.0216860
  H        0.9729360    -2.2758050     0.0197790
  C       -0.8355230    -1.1151620     0.0213990
  H       -1.4843340    -1.9806060     0.0195300
  C       -1.3832840     0.1661540     0.0237580
  H       -2.4571560     0.2952090     0.0227570
  C       -0.5475660     1.2813230     0.0216800
  H       -0.9729430     2.2758050     0.0197690
--
0 1
  C        0.6557810    -0.1167910     3.6342100
  H        1.0472420    -1.1239090     3.6297410
  H        1.3708550     0.6932730     3.6297080
  C       -0.6557760     0.1167920     3.6342190
  H       -1.3708480    -0.6932720     3.6297220
  H       -1.0472390     1.1239110     3.6297600
units angstrom
no_reorient
symmetry c1
}

set {
scf_type DF
mp2_type DF
e_convergence 7
reference rhf
}

energy('mp2/aug-cc-pv[tq]z', bsse_type='cp')
--------------------------------------------------------------------------

    Molecular point group: c1
  Charge       = 0
  Multiplicity = 1
  Basis Set: AUG-CC-PVTZ
    Blend: AUG-CC-PVTZ
  Basis Set: (AUG-CC-PVTZ AUX)
    Blend: AUG-CC-PVTZ-JKFIT
  @DF-RHF Final Energy:   -78.06472985793717
    Total Energy =                        -78.0647298579371665
  Basis Set: (AUG-CC-PVTZ AUX)
    Blend: AUG-CC-PVTZ-RI
	 Reference Energy          =     -78.0647298579371665 [Eh]
	 Singles Energy            =      -0.0000000000000000 [Eh]
	 Same-Spin Energy          =      -0.0765550451369908 [Eh]
	 Opposite-Spin Energy      =      -0.2985538664711062 [Eh]
	 Correlation Energy        =      -0.3751089116080970 [Eh]
	 Total Energy              =     -78.4398387695452612 [Eh]
	 SCS Total Energy          =     -78.4485128460814849 [Eh]
    Molecular point group: c1
  Basis Set: AUG-CC-PVQZ
    Blend: AUG-CC-PVQZ
  Basis Set: (AUG-CC-PVQZ AUX)
    Blend: AUG-CC-PVQZ-JKFIT
  @DF-RHF Final Energy:   -78.06944391133668
    Total Energy =                        -78.0694439113366911
  Basis Set: (AUG-CC-PVQZ AUX)
  @DF-RHF Final Energy:   -78.06479739565923
    Total Energy =                        -78.0647973956592267
  @DF-RHF Final Energy:   -78.06946695552705
    Total Energy =                        -78.0694669555270480
  @DF-RHF Final Energy:  -230.78141405994018
    Total Energy =                       -230.7814140599401753
  @DF-RHF Final Energy:  -230.79451052712724
    Total Energy =                       -230.7945105271272723
  @DF-RHF Final Energy:  -230.78130335739567
    Total Energy =                       -230.7813033573956432
  @DF-RHF Final Energy:  -230.79448065684136
    Total Energy =                       -230.7944806568413583
  Multiplicity = 1
  @DF-RHF Final Energy:  -308.84253326709313
    Total Energy =                       -308.8425332670931311
	 Singles Energy            =      -0.0000000000000000 [Eh]
	 Same-Spin Energy          =      -0.3353651760194659 [Eh]
	 Opposite-Spin Energy      =      -1.1222123714892538 [Eh]
	 Correlation Energy        =      -1.4575775475087198 [Eh]
	 Total Energy              =    -310.3001108146018510 [Eh]
	 SCS Total Energy          =    -310.3009765048867052 [Eh]
    Molecular point group: c1

    Geometry (in Angstrom), charge = 0, multiplicity = 1:

       Center              X                  Y                   Z               Mass
    ------------   -----------------  -----------------  -----------------  -----------------
         C            0.835519508616     1.115164642512    -0.955076922551    12.000000000000
         H            1.484326508616     1.980606642512    -0.956943922551     1.007825032230
         C            1.383277508616    -0.166149357488    -0.952712922551    12.000000000000
         H            2.457151508616    -0.295207357488    -0.953706922551     1.007825032230
         C            0.547557508616    -1.281318357488    -0.954791922551    12.000000000000
         H            0.972938508616    -2.275807357488    -0.956698922551     1.007825032230
         C           -0.835520491384    -1.115164357488    -0.955078922551    12.000000000000
         H           -1.484331491384    -1.980608357488    -0.956947922551     1.007825032230
         C           -1.383281491384     0.166151642512    -0.952719922551    12.000000000000
         H           -2.457153491384     0.295206642512    -0.953720922551     1.007825032230
         C           -0.547563491384     1.281320642512    -0.954797922551    12.000000000000
         H           -0.972940491384     2.275802642512    -0.956708922551     1.007825032230
         C            0.655783508616    -0.116793357488     2.657732077449    12.000000000000
         H            1.047244508616    -1.123911357488     2.653263077449     1.007825032230
         H            1.370857508616     0.693270642512     2.653230077449     1.007825032230
         C           -0.655773491384     0.116789642512     2.657741077449    12.000000000000
         H           -1.370845491384    -0.693274357488     2.653244077449     1.007825032230
         H           -1.047236491384     1.123908642512     2.653282077449     1.007825032230

  Charge       = 0
  Multiplicity = 1
  Basis Set: AUG-CC-PVQZ
    Blend: AUG-CC-PVQZ
  Basis Set: (AUG-CC-PVQZ AUX)
    Blend: AUG-CC-PVQZ-JKFIT

    Orbital Energies [Eh]
    ---------------------

    Doubly Occupied:

       1A    -11.232846     2A    -11.232347     3A    -11.232176
       4A    -11.231087     5A    -11.230926     6A    -11.230391
       7A    -11.219297     8A    -11.217569     9A     -1.147902
      10A     -1.023992    11A     -1.012449    12A     -1.012376
      13A     -0.822092    14A     -0.821984    15A     -0.783717
      16A     -0.707822    17A     -0.642307    18A     -0.635158
      19A     -0.617196    20A     -0.586180    21A     -0.586118
      22A     -0.577925    23A     -0.501595    24A     -0.499214
      25A     -0.493123    26A     -0.492980    27A     -0.364619
      28A     -0.334679    29A     -0.334674

  @DF-RHF Final Energy:  -308.86030485587372

   => Energetics <=

    Nuclear Repulsion Energy =            325.5101036932024385
    One-Electron Energy =               -1061.0913474833109831
    Two-Electron Energy =                 426.7209389342348800
    Total Energy =                       -308.8603048558737214

  Dipole Moment: [D]
     X:    -0.0000      Y:     0.0000      Z:    -0.1385     Total:     0.1385

  Basis Set: (AUG-CC-PVQZ AUX)
    Blend: AUG-CC-PVQZ-RI
	 Reference Energy          =    -308.8603048558737214 [Eh]
	 Singles Energy            =      -0.0000000000000000 [Eh]
	 Same-Spin Energy          =      -0.3546938940759177 [Eh]
	 Opposite-Spin Energy      =      -1.2564457466349837 [Eh]
	 Correlation Energy        =      -1.6111396407109013 [Eh]
	 Total Energy              =    -310.4714444965846383 [Eh]

	 ================> DF-SCS-MP2 Energies <==================
	-----------------------------------------------------------
	 SCS Same-Spin Scale       =       0.3333333333333333 [-]
	 SCS Opposite-Spin Scale   =       1.2000000000000000 [-]
	 SCS Same-Spin Energy      =      -0.1182312980253059 [Eh]
	 SCS Opposite-Spin Energy  =      -1.5077348959619803 [Eh]
	 SCS Correlation Energy    =      -1.6259661939872863 [Eh]
	 SCS Total Energy          =    -310.4862710498609886 [Eh]
	-----------------------------------------------------------

*** Psi4 exiting successfully. Buy a developer a beer!
