                               Psi4 1.4a2.dev224

  ==> Input File <==

--------------------------------------------------------------------------
#Generated by lconvert.py for cbs job

memory 40 GB

molecule  {
0 1
  C        0.8355170     1.1151670     0.0214010
  H        1.4843240     1.9806090     0.0195340
  C        1.3832750    -0.1661470     0.0237650
  H        2.4571490    -0.2952050     0.0227710
  C        0.5475550    -1.2813160     0.0216860
  H        0.9729360    -2.2758050     0.0197790
  C       -0.8355230    -1.1151620     0.0213990
  H       -1.4843340    -1.9806060     0.0195300
  C       -1.3832840     0.1661540     0.0237580
  H       -2.4571560     0.2952090     0.0227570
  C       -0.5475660     1.2813230     0.0216800
  H       -0.9729430     2.2758050     0.0197690
--
0 1
  C        0.6557780    -0.1167900     2.3995590
  H        1.0472390    -1.1239090     2.3950910
  H        1.3708520     0.6932740     2.3950580
  C       -0.6557780     0.1167930     2.3995680
  H       -1.3708500    -0.6932720     2.3950720
  H       -1.0472410     1.1239120     2.3951100
units angstrom
no_reorient
symmetry c1
}

set {
scf_type DF
mp2_type DF
e_convergence 7
reference rhf
}

energy('mp2/aug-cc-pv[tq]z', bsse_type='cp')
--------------------------------------------------------------------------

    Molecular point group: c1
  Charge       = 0
  Multiplicity = 1
  Basis Set: AUG-CC-PVTZ
    Blend: AUG-CC-PVTZ
  Basis Set: (AUG-CC-PVTZ AUX)
    Blend: AUG-CC-PVTZ-JKFIT
  @DF-RHF Final Energy:   -78.06472988491502
    Total Energy =                        -78.0647298849150246
  Basis Set: (AUG-CC-PVTZ AUX)
    Blend: AUG-CC-PVTZ-RI
	 Reference Energy          =     -78.0647298849150246 [Eh]
	 Singles Energy            =      -0.0000000000000000 [Eh]
	 Same-Spin Energy          =      -0.0765550419784767 [Eh]
	 Opposite-Spin Energy      =      -0.2985538469685563 [Eh]
	 Correlation Energy        =      -0.3751088889470330 [Eh]
	 Total Energy              =     -78.4398387738620642 [Eh]
	 SCS Total Energy          =     -78.4485128486034569 [Eh]
    Molecular point group: c1
  Basis Set: AUG-CC-PVQZ
    Blend: AUG-CC-PVQZ
  Basis Set: (AUG-CC-PVQZ AUX)
    Blend: AUG-CC-PVQZ-JKFIT
  @DF-RHF Final Energy:   -78.06944393936776
    Total Energy =                        -78.0694439393677584
  Basis Set: (AUG-CC-PVQZ AUX)
  @DF-RHF Final Energy:   -78.06490634071839
    Total Energy =                        -78.0649063407183945
  @DF-RHF Final Energy:   -78.06949749689775
    Total Energy =                        -78.0694974968977533
  @DF-RHF Final Energy:  -230.78167255074760
    Total Energy =                       -230.7816725507476008
  @DF-RHF Final Energy:  -230.79455283810154
    Total Energy =                       -230.7945528381015379
  @DF-RHF Final Energy:  -230.78130335807336
    Total Energy =                       -230.7813033580733872
  @DF-RHF Final Energy:  -230.79448065513375
    Total Energy =                       -230.7944806551337251
  Multiplicity = 1
  @DF-RHF Final Energy:  -308.77052846651117
    Total Energy =                       -308.7705284665111662
	 Singles Energy            =      -0.0000000000000000 [Eh]
	 Same-Spin Energy          =      -0.3530019171707703 [Eh]
	 Opposite-Spin Energy      =      -1.1476399192579056 [Eh]
	 Correlation Energy        =      -1.5006418364286760 [Eh]
	 Total Energy              =    -310.2711703029398222 [Eh]
	 SCS Total Energy          =    -310.2653636753442470 [Eh]
    Molecular point group: c1

    Geometry (in Angstrom), charge = 0, multiplicity = 1:

       Center              X                  Y                   Z               Mass
    ------------   -----------------  -----------------  -----------------  -----------------
         C            0.835520169243     1.115164397262    -0.628819008237    12.000000000000
         H            1.484327169243     1.980606397262    -0.630686008237     1.007825032230
         C            1.383278169243    -0.166149602738    -0.626455008237    12.000000000000
         H            2.457152169243    -0.295207602738    -0.627449008237     1.007825032230
         C            0.547558169243    -1.281318602738    -0.628534008237    12.000000000000
         H            0.972939169243    -2.275807602738    -0.630441008237     1.007825032230
         C           -0.835519830757    -1.115164602738    -0.628821008237    12.000000000000
         H           -1.484330830757    -1.980608602738    -0.630690008237     1.007825032230
         C           -1.383280830757     0.166151397262    -0.626462008237    12.000000000000
         H           -2.457152830757     0.295206397262    -0.627463008237     1.007825032230
         C           -0.547562830757     1.281320397262    -0.628540008237    12.000000000000
         H           -0.972939830757     2.275802397262    -0.630451008237     1.007825032230
         C            0.655781169243    -0.116792602738     1.749338991763    12.000000000000
         H            1.047242169243    -1.123911602738     1.744870991763     1.007825032230
         H            1.370855169243     0.693271397262     1.744837991763     1.007825032230
         C           -0.655774830757     0.116790397262     1.749347991763    12.000000000000
         H           -1.370846830757    -0.693274602738     1.744851991763     1.007825032230
         H           -1.047237830757     1.123909397262     1.744889991763     1.007825032230

  Charge       = 0
  Multiplicity = 1
  Basis Set: AUG-CC-PVQZ
    Blend: AUG-CC-PVQZ
  Basis Set: (AUG-CC-PVQZ AUX)
    Blend: AUG-CC-PVQZ-JKFIT

    Orbital Energies [Eh]
    ---------------------

    Doubly Occupied:

       1A    -11.236936     2A    -11.236935     3A    -11.231483
       4A    -11.231351     5A    -11.229877     6A    -11.229802
       7A    -11.199925     8A    -11.198192     9A     -1.157712
      10A     -1.021091    11A     -1.016298    12A     -1.013362
      13A     -0.827111    14A     -0.826437    15A     -0.778408
      16A     -0.712757    17A     -0.646565    18A     -0.632669
      19A     -0.617827    20A     -0.591453    21A     -0.588457
      22A     -0.572657    23A     -0.518714    24A     -0.497347
      25A     -0.496599    26A     -0.490803    27A     -0.338491
      28A     -0.334161    29A     -0.317824

  @DF-RHF Final Energy:  -308.78807731083265

   => Energetics <=

    Nuclear Repulsion Energy =            358.4131780693346059
    One-Electron Energy =               -1126.8200182818331996
    Two-Electron Energy =                 459.6187629016658889
    Total Energy =                       -308.7880773108326480

  Dipole Moment: [D]
     X:     0.0000      Y:     0.0000      Z:    -0.4716     Total:     0.4716

  Basis Set: (AUG-CC-PVQZ AUX)
    Blend: AUG-CC-PVQZ-RI
	 Reference Energy          =    -308.7880773108326480 [Eh]
	 Singles Energy            =      -0.0000000000000000 [Eh]
	 Same-Spin Energy          =      -0.3722741080761152 [Eh]
	 Opposite-Spin Energy      =      -1.2788168170014318 [Eh]
	 Correlation Energy        =      -1.6510909250775470 [Eh]
	 Total Energy              =    -310.4391682359101878 [Eh]

	 ================> DF-SCS-MP2 Energies <==================
	-----------------------------------------------------------
	 SCS Same-Spin Scale       =       0.3333333333333333 [-]
	 SCS Opposite-Spin Scale   =       1.2000000000000000 [-]
	 SCS Same-Spin Energy      =      -0.1240913693587050 [Eh]
	 SCS Opposite-Spin Energy  =      -1.5345801804017181 [Eh]
	 SCS Correlation Energy    =      -1.6586715497604232 [Eh]
	 SCS Total Energy          =    -310.4467488605930612 [Eh]
	-----------------------------------------------------------

*** Psi4 exiting successfully. Buy a developer a beer!
