                               Psi4 1.4a2.dev224

  ==> Input File <==

--------------------------------------------------------------------------
#Generated by lconvert.py for cbs job

memory 40 GB

molecule  {
0 1
  C        0.8355170     1.1151670     0.0214010
  H        1.4843240     1.9806090     0.0195340
  C        1.3832750    -0.1661470     0.0237650
  H        2.4571490    -0.2952050     0.0227710
  C        0.5475550    -1.2813160     0.0216860
  H        0.9729360    -2.2758050     0.0197790
  C       -0.8355230    -1.1151620     0.0213990
  H       -1.4843340    -1.9806060     0.0195300
  C       -1.3832840     0.1661540     0.0237580
  H       -2.4571560     0.2952090     0.0227570
  C       -0.5475660     1.2813230     0.0216800
  H       -0.9729430     2.2758050     0.0197690
--
0 1
  C        0.6557800    -0.1167900     3.4585870
  H        1.0472410    -1.1239090     3.4541190
  H        1.3708540     0.6932740     3.4540860
  C       -0.6557760     0.1167920     3.4585960
  H       -1.3708480    -0.6932720     3.4541000
  H       -1.0472390     1.1239110     3.4541380
units angstrom
no_reorient
symmetry c1
}

set {
scf_type DF
mp2_type DF
e_convergence 7
reference rhf
}

energy('mp2/aug-cc-pv[tq]z', bsse_type='cp')
--------------------------------------------------------------------------

    Molecular point group: c1
  Charge       = 0
  Multiplicity = 1
  Basis Set: AUG-CC-PVTZ
    Blend: AUG-CC-PVTZ
  Basis Set: (AUG-CC-PVTZ AUX)
    Blend: AUG-CC-PVTZ-JKFIT
  @DF-RHF Final Energy:   -78.06472989966437
    Total Energy =                        -78.0647298996643713
  Basis Set: (AUG-CC-PVTZ AUX)
    Blend: AUG-CC-PVTZ-RI
	 Reference Energy          =     -78.0647298996643713 [Eh]
	 Singles Energy            =      -0.0000000000000000 [Eh]
	 Same-Spin Energy          =      -0.0765550403592013 [Eh]
	 Opposite-Spin Energy      =      -0.2985538377627636 [Eh]
	 Correlation Energy        =      -0.3751088781219649 [Eh]
	 Total Energy              =     -78.4398387777863348 [Eh]
	 SCS Total Energy          =     -78.4485128517660826 [Eh]
    Molecular point group: c1
  Basis Set: AUG-CC-PVQZ
    Blend: AUG-CC-PVQZ
  Basis Set: (AUG-CC-PVQZ AUX)
    Blend: AUG-CC-PVQZ-JKFIT
  @DF-RHF Final Energy:   -78.06944395522568
    Total Energy =                        -78.0694439552256796
  Basis Set: (AUG-CC-PVQZ AUX)
  @DF-RHF Final Energy:   -78.06480500982362
    Total Energy =                        -78.0648050098236155
  @DF-RHF Final Energy:   -78.06947015629200
    Total Energy =                        -78.0694701562919988
  @DF-RHF Final Energy:  -230.78143391478548
    Total Energy =                       -230.7814339147854525
  @DF-RHF Final Energy:  -230.79451389648324
    Total Energy =                       -230.7945138964832381
  @DF-RHF Final Energy:  -230.78130335663997
    Total Energy =                       -230.7813033566399668
  @DF-RHF Final Energy:  -230.79448065860947
    Total Energy =                       -230.7944806586094728
  Multiplicity = 1
  @DF-RHF Final Energy:  -308.84088335166416
    Total Energy =                       -308.8408833516641607
	 Singles Energy            =      -0.0000000000000000 [Eh]
	 Same-Spin Energy          =      -0.3363242486697605 [Eh]
	 Opposite-Spin Energy      =      -1.1236318368162579 [Eh]
	 Correlation Energy        =      -1.4599560854860183 [Eh]
	 Total Energy              =    -310.3008394371501595 [Eh]
	 SCS Total Energy          =    -310.3013496387335977 [Eh]
    Molecular point group: c1

    Geometry (in Angstrom), charge = 0, multiplicity = 1:

       Center              X                  Y                   Z               Mass
    ------------   -----------------  -----------------  -----------------  -----------------
         C            0.835519640741     1.115164519887    -0.908668380024    12.000000000000
         H            1.484326640741     1.980606519887    -0.910535380024     1.007825032230
         C            1.383277640741    -0.166149480113    -0.906304380024    12.000000000000
         H            2.457151640741    -0.295207480113    -0.907298380024     1.007825032230
         C            0.547557640741    -1.281318480113    -0.908383380024    12.000000000000
         H            0.972938640741    -2.275807480113    -0.910290380024     1.007825032230
         C           -0.835520359259    -1.115164480113    -0.908670380024    12.000000000000
         H           -1.484331359259    -1.980608480113    -0.910539380024     1.007825032230
         C           -1.383281359259     0.166151519887    -0.906311380024    12.000000000000
         H           -2.457153359259     0.295206519887    -0.907312380024     1.007825032230
         C           -0.547563359259     1.281320519887    -0.908389380024    12.000000000000
         H           -0.972940359259     2.275802519887    -0.910300380024     1.007825032230
         C            0.655782640741    -0.116792480113     2.528517619976    12.000000000000
         H            1.047243640741    -1.123911480113     2.524049619976     1.007825032230
         H            1.370856640741     0.693271519887     2.524016619976     1.007825032230
         C           -0.655773359259     0.116789519887     2.528526619976    12.000000000000
         H           -1.370845359259    -0.693274480113     2.524030619976     1.007825032230
         H           -1.047236359259     1.123908519887     2.524068619976     1.007825032230

  Charge       = 0
  Multiplicity = 1
  Basis Set: AUG-CC-PVQZ
    Blend: AUG-CC-PVQZ
  Basis Set: (AUG-CC-PVQZ AUX)
    Blend: AUG-CC-PVQZ-JKFIT

    Orbital Energies [Eh]
    ---------------------

    Doubly Occupied:

       1A    -11.232842     2A    -11.232383     3A    -11.232122
       4A    -11.231105     5A    -11.230871     6A    -11.230370
       7A    -11.217844     8A    -11.216115     9A     -1.147977
      10A     -1.022824    11A     -1.012490    12A     -1.012487
      13A     -0.822175    14A     -0.822076    15A     -0.782729
      16A     -0.707902    17A     -0.642435    18A     -0.634130
      19A     -0.617229    20A     -0.586216    21A     -0.586213
      22A     -0.576829    23A     -0.502486    24A     -0.498204
      25A     -0.493197    26A     -0.493050    27A     -0.362352
      28A     -0.334857    29A     -0.334761

  @DF-RHF Final Energy:  -308.85863514486840

   => Energetics <=

    Nuclear Repulsion Energy =            329.1559268977508168
    One-Electron Energy =               -1068.3965918754911399
    Two-Electron Energy =                 430.3820298328719787
    Total Energy =                       -308.8586351448684013

  Dipole Moment: [D]
     X:    -0.0000      Y:     0.0000      Z:    -0.1675     Total:     0.1675

  Basis Set: (AUG-CC-PVQZ AUX)
    Blend: AUG-CC-PVQZ-RI
	 Reference Energy          =    -308.8586351448684013 [Eh]
	 Singles Energy            =      -0.0000000000000000 [Eh]
	 Same-Spin Energy          =      -0.3556443345709528 [Eh]
	 Opposite-Spin Energy      =      -1.2576750121126832 [Eh]
	 Correlation Energy        =      -1.6133193466836360 [Eh]
	 Total Energy              =    -310.4719544915520260 [Eh]

	 ================> DF-SCS-MP2 Energies <==================
	-----------------------------------------------------------
	 SCS Same-Spin Scale       =       0.3333333333333333 [-]
	 SCS Opposite-Spin Scale   =       1.2000000000000000 [-]
	 SCS Same-Spin Energy      =      -0.1185481115236509 [Eh]
	 SCS Opposite-Spin Energy  =      -1.5092100145352199 [Eh]
	 SCS Correlation Energy    =      -1.6277581260588707 [Eh]
	 SCS Total Energy          =    -310.4863932709272945 [Eh]
	-----------------------------------------------------------

*** Psi4 exiting successfully. Buy a developer a beer!
