                               Psi4 1.4a2.dev224

  ==> Input File <==

--------------------------------------------------------------------------
#Generated by lconvert.py for cbs job

memory 40 GB

molecule  {
0 1
  C        0.8355170     1.1151670     0.0214010
  H        1.4843240     1.9806090     0.0195340
  C        1.3832750    -0.1661470     0.0237650
  H        2.4571490    -0.2952050     0.0227710
  C        0.5475550    -1.2813160     0.0216860
  H        0.9729360    -2.2758050     0.0197790
  C       -0.8355230    -1.1151620     0.0213990
  H       -1.4843340    -1.9806060     0.0195300
  C       -1.3832840     0.1661540     0.0237580
  H       -2.4571560     0.2952090     0.0227570
  C       -0.5475660     1.2813230     0.0216800
  H       -0.9729430     2.2758050     0.0197690
--
0 1
  C        0.6557810    -0.1167910     3.8095560
  H        1.0472420    -1.1239090     3.8050870
  H        1.3708550     0.6932730     3.8050540
  C       -0.6557750     0.1167920     3.8095640
  H       -1.3708470    -0.6932730     3.8050680
  H       -1.0472390     1.1239110     3.8051060
units angstrom
no_reorient
symmetry c1
}

set {
scf_type DF
mp2_type DF
e_convergence 7
reference rhf
}

energy('mp2/aug-cc-pv[tq]z', bsse_type='cp')
--------------------------------------------------------------------------

    Molecular point group: c1
  Charge       = 0
  Multiplicity = 1
  Basis Set: AUG-CC-PVTZ
    Blend: AUG-CC-PVTZ
  Basis Set: (AUG-CC-PVTZ AUX)
    Blend: AUG-CC-PVTZ-JKFIT
  @DF-RHF Final Energy:   -78.06472989017459
    Total Energy =                        -78.0647298901745899
  Basis Set: (AUG-CC-PVTZ AUX)
    Blend: AUG-CC-PVTZ-RI
	 Reference Energy          =     -78.0647298901745899 [Eh]
	 Singles Energy            =      -0.0000000000000000 [Eh]
	 Same-Spin Energy          =      -0.0765550408458738 [Eh]
	 Opposite-Spin Energy      =      -0.2985538433594409 [Eh]
	 Correlation Energy        =      -0.3751088842053147 [Eh]
	 Total Energy              =     -78.4398387743799077 [Eh]
	 SCS Total Energy          =     -78.4485128491545396 [Eh]
    Molecular point group: c1
  Basis Set: AUG-CC-PVQZ
    Blend: AUG-CC-PVQZ
  Basis Set: (AUG-CC-PVQZ AUX)
    Blend: AUG-CC-PVQZ-JKFIT
  @DF-RHF Final Energy:   -78.06944394507158
    Total Energy =                        -78.0694439450715834
  Basis Set: (AUG-CC-PVQZ AUX)
  @DF-RHF Final Energy:   -78.06478967849492
    Total Energy =                        -78.0647896784949182
  @DF-RHF Final Energy:   -78.06946454770384
    Total Energy =                        -78.0694645477038449
  @DF-RHF Final Energy:  -230.78139511970664
    Total Energy =                       -230.7813951197066444
  @DF-RHF Final Energy:  -230.79450719082402
    Total Energy =                       -230.7945071908239925
  @DF-RHF Final Energy:  -230.78130336036253
    Total Energy =                       -230.7813033603625286
  @DF-RHF Final Energy:  -230.79448065491954
    Total Energy =                       -230.7944806549195391
  Multiplicity = 1
  @DF-RHF Final Energy:  -308.84356711972657
    Total Energy =                       -308.8435671197265719
	 Singles Energy            =      -0.0000000000000000 [Eh]
	 Same-Spin Energy          =      -0.3346297184445349 [Eh]
	 Opposite-Spin Energy      =      -1.1211299782462860 [Eh]
	 Correlation Energy        =      -1.4557596966908211 [Eh]
	 Total Energy              =    -310.2993268164174196 [Eh]
	 SCS Total Energy          =    -310.3004663331035999 [Eh]
    Molecular point group: c1

    Geometry (in Angstrom), charge = 0, multiplicity = 1:

       Center              X                  Y                   Z               Mass
    ------------   -----------------  -----------------  -----------------  -----------------
         C            0.835519385991     1.115164652012    -1.001412192387    12.000000000000
         H            1.484326385991     1.980606652012    -1.003279192387     1.007825032230
         C            1.383277385991    -0.166149347988    -0.999048192387    12.000000000000
         H            2.457151385991    -0.295207347988    -1.000042192387     1.007825032230
         C            0.547557385991    -1.281318347988    -1.001127192387    12.000000000000
         H            0.972938385991    -2.275807347988    -1.003034192387     1.007825032230
         C           -0.835520614009    -1.115164347988    -1.001414192387    12.000000000000
         H           -1.484331614009    -1.980608347988    -1.003283192387     1.007825032230
         C           -1.383281614009     0.166151652012    -0.999055192387    12.000000000000
         H           -2.457153614009     0.295206652012    -1.000056192387     1.007825032230
         C           -0.547563614009     1.281320652012    -1.001133192387    12.000000000000
         H           -0.972940614009     2.275802652012    -1.003044192387     1.007825032230
         C            0.655783385991    -0.116793347988     2.786742807613    12.000000000000
         H            1.047244385991    -1.123911347988     2.782273807613     1.007825032230
         H            1.370857385991     0.693270652012     2.782240807613     1.007825032230
         C           -0.655772614009     0.116789652012     2.786750807613    12.000000000000
         H           -1.370844614009    -0.693275347988     2.782254807613     1.007825032230
         H           -1.047236614009     1.123908652012     2.782292807613     1.007825032230

  Charge       = 0
  Multiplicity = 1
  Basis Set: AUG-CC-PVQZ
    Blend: AUG-CC-PVQZ
  Basis Set: (AUG-CC-PVQZ AUX)
    Blend: AUG-CC-PVQZ-JKFIT

    Orbital Energies [Eh]
    ---------------------

    Doubly Occupied:

       1A    -11.232878     2A    -11.232356     3A    -11.232239
       4A    -11.231103     5A    -11.230988     6A    -11.230432
       7A    -11.220496     8A    -11.218768     9A     -1.147904
      10A     -1.025020    11A     -1.012459    12A     -1.012342
      13A     -0.822065    14A     -0.821952    15A     -0.784607
      16A     -0.707799    17A     -0.642240    18A     -0.636083
      19A     -0.617203    20A     -0.586182    21A     -0.586084
      22A     -0.578894    23A     -0.501044    24A     -0.500107
      25A     -0.493097    26A     -0.492958    27A     -0.366342
      28A     -0.334656    29A     -0.334590

  @DF-RHF Final Energy:  -308.86135909571885

   => Energetics <=

    Nuclear Repulsion Energy =            322.1260799112291693
    One-Electron Energy =               -1054.3091078289000961
    Two-Electron Energy =                 423.3216688219520165
    Total Energy =                       -308.8613590957188535

  Dipole Moment: [D]
     X:    -0.0000      Y:     0.0000      Z:    -0.1150     Total:     0.1150

  Basis Set: (AUG-CC-PVQZ AUX)
    Blend: AUG-CC-PVQZ-RI
	 Reference Energy          =    -308.8613590957188535 [Eh]
	 Singles Energy            =      -0.0000000000000000 [Eh]
	 Same-Spin Energy          =      -0.3539651454037789 [Eh]
	 Opposite-Spin Energy      =      -1.2555019368176217 [Eh]
	 Correlation Energy        =      -1.6094670822214006 [Eh]
	 Total Energy              =    -310.4708261779402392 [Eh]

	 ================> DF-SCS-MP2 Energies <==================
	-----------------------------------------------------------
	 SCS Same-Spin Scale       =       0.3333333333333333 [-]
	 SCS Opposite-Spin Scale   =       1.2000000000000000 [-]
	 SCS Same-Spin Energy      =      -0.1179883818012596 [Eh]
	 SCS Opposite-Spin Energy  =      -1.5066023241811459 [Eh]
	 SCS Correlation Energy    =      -1.6245907059824056 [Eh]
	 SCS Total Energy          =    -310.4859498017012811 [Eh]
	-----------------------------------------------------------

*** Psi4 exiting successfully. Buy a developer a beer!
