                               Psi4 1.4a2.dev224

  ==> Input File <==

--------------------------------------------------------------------------
#Generated by lconvert.py for cbs job

memory 20 GB

molecule  {
0 1
  C       0.835520    1.115170    0.021400
  H       1.484320    1.980610    0.019530
  C       1.383280   -0.166150    0.023770
  H       2.457150   -0.295200    0.022770
  C       0.547560   -1.281320    0.021690
  H       0.972940   -2.275810    0.019780
  C      -0.835520   -1.115160    0.021400
  H      -1.484330   -1.980610    0.019530
  C      -1.383280    0.166150    0.023760
  H      -2.457160    0.295210    0.022760
  C      -0.547570    1.281320    0.021680
  H      -0.972940    2.275810    0.019770
--
0 1
  C       0.655790   -0.116790    6.645510
  H       1.047250   -1.123910    6.641040
  H       1.370860    0.693270    6.641010
  C      -0.655770    0.116790    6.645520
  H      -1.370840   -0.693270    6.641020
  H      -1.047230    1.123910    6.641060
units angstrom
no_reorient
symmetry c1
}

set {
scf_type DF
mp2_type DF
e_convergence 7
reference rhf
}

energy('mp2/aug-cc-pv[tq]z', bsse_type='cp')
--------------------------------------------------------------------------

    Molecular point group: c1
  Charge       = 0
  Multiplicity = 1
  Basis Set: AUG-CC-PVTZ
    Blend: AUG-CC-PVTZ
  Basis Set: (AUG-CC-PVTZ AUX)
    Blend: AUG-CC-PVTZ-JKFIT
  @DF-RHF Final Energy:   -78.06472983070148
    Total Energy =                        -78.0647298307014808
  Basis Set: (AUG-CC-PVTZ AUX)
    Blend: AUG-CC-PVTZ-RI
	 Reference Energy          =     -78.0647298307014808 [Eh]
	 Singles Energy            =      -0.0000000000000000 [Eh]
	 Same-Spin Energy          =      -0.0765550554817149 [Eh]
	 Opposite-Spin Energy      =      -0.2985538970363971 [Eh]
	 Correlation Energy        =      -0.3751089525181120 [Eh]
	 Total Energy              =     -78.4398387832195993 [Eh]
	 SCS Total Energy          =     -78.4485128589723928 [Eh]
    Molecular point group: c1
  Basis Set: AUG-CC-PVQZ
    Blend: AUG-CC-PVQZ
  Basis Set: (AUG-CC-PVQZ AUX)
    Blend: AUG-CC-PVQZ-JKFIT
  @DF-RHF Final Energy:   -78.06944388458250
    Total Energy =                        -78.0694438845824976
  Basis Set: (AUG-CC-PVQZ AUX)
  @DF-RHF Final Energy:   -78.06473518628833
    Total Energy =                        -78.0647351862883312
  @DF-RHF Final Energy:   -78.06944556131174
    Total Energy =                        -78.0694455613117384
  @DF-RHF Final Energy:  -230.78131253476533
    Total Energy =                       -230.7813125347653340
  @DF-RHF Final Energy:  -230.79448375637665
    Total Energy =                       -230.7944837563766214
  @DF-RHF Final Energy:  -230.78130313829669
    Total Energy =                       -230.7813031382967210
  @DF-RHF Final Energy:  -230.79448043714669
    Total Energy =                       -230.7944804371467171
  Multiplicity = 1
  @DF-RHF Final Energy:  -308.84583761080222
    Total Energy =                       -308.8458376108022208
	 Singles Energy            =      -0.0000000000000000 [Eh]
	 Same-Spin Energy          =      -0.3320475010599694 [Eh]
	 Opposite-Spin Energy      =      -1.1171385206726581 [Eh]
	 Correlation Energy        =      -1.4491860217326273 [Eh]
	 Total Energy              =    -310.2950236325348214 [Eh]
	 SCS Total Energy          =    -310.2970863359627174 [Eh]
    Molecular point group: c1

    Geometry (in Angstrom), charge = 0, multiplicity = 1:

       Center              X                  Y                   Z               Mass
    ------------   -----------------  -----------------  -----------------  -----------------
         C            0.835518678744     1.115168773752    -1.750818772479    12.000000000000
         H            1.484318678744     1.980608773752    -1.752688772479     1.007825032230
         C            1.383278678744    -0.166151226248    -1.748448772479    12.000000000000
         H            2.457148678744    -0.295201226248    -1.749448772479     1.007825032230
         C            0.547558678744    -1.281321226248    -1.750528772479    12.000000000000
         H            0.972938678744    -2.275811226248    -1.752438772479     1.007825032230
         C           -0.835521321256    -1.115161226248    -1.750818772479    12.000000000000
         H           -1.484331321256    -1.980611226248    -1.752688772479     1.007825032230
         C           -1.383281321256     0.166148773752    -1.748458772479    12.000000000000
         H           -2.457161321256     0.295208773752    -1.749458772479     1.007825032230
         C           -0.547571321256     1.281318773752    -1.750538772479    12.000000000000
         H           -0.972941321256     2.275808773752    -1.752448772479     1.007825032230
         C            0.655788678744    -0.116791226248     4.873291227521    12.000000000000
         H            1.047248678744    -1.123911226248     4.868821227521     1.007825032230
         H            1.370858678744     0.693268773752     4.868791227521     1.007825032230
         C           -0.655771321256     0.116788773752     4.873301227521    12.000000000000
         H           -1.370841321256    -0.693271226248     4.868801227521     1.007825032230
         H           -1.047231321256     1.123908773752     4.868841227521     1.007825032230

  Charge       = 0
  Multiplicity = 1
  Basis Set: AUG-CC-PVQZ
    Blend: AUG-CC-PVQZ
  Basis Set: (AUG-CC-PVQZ AUX)
    Blend: AUG-CC-PVQZ-JKFIT

    Orbital Energies [Eh]
    ---------------------

    Doubly Occupied:

       1A    -11.234128     2A    -11.233563     3A    -11.233534
       4A    -11.232317     5A    -11.232284     6A    -11.231689
       7A    -11.227540     8A    -11.225813     9A     -1.149334
      10A     -1.031992    11A     -1.013763    12A     -1.013573
      13A     -0.823167    14A     -0.823047    15A     -0.790978
      16A     -0.708894    17A     -0.643082    18A     -0.642601
      19A     -0.618424    20A     -0.587305    21A     -0.587141
      22A     -0.585455    23A     -0.506337    24A     -0.501668
      25A     -0.494113    26A     -0.493988    27A     -0.374685
      28A     -0.336064    29A     -0.335885

  @DF-RHF Final Energy:  -308.86372099585901

   => Energetics <=

    Nuclear Repulsion Energy =            288.9297801875724190
    One-Electron Energy =                -987.7622895172102062
    Two-Electron Energy =                 389.9687883337787753
    Total Energy =                       -308.8637209958590120

  Dipole Moment: [D]
     X:     0.0000      Y:     0.0000      Z:    -0.0277     Total:     0.0277

  Basis Set: (AUG-CC-PVQZ AUX)
    Blend: AUG-CC-PVQZ-RI
	 Reference Energy          =    -308.8637209958590120 [Eh]
	 Singles Energy            =      -0.0000000000000000 [Eh]
	 Same-Spin Energy          =      -0.3514355908799754 [Eh]
	 Opposite-Spin Energy      =      -1.2521835800904437 [Eh]
	 Correlation Energy        =      -1.6036191709704193 [Eh]
	 Total Energy              =    -310.4673401668294446 [Eh]

	 ================> DF-SCS-MP2 Energies <==================
	-----------------------------------------------------------
	 SCS Same-Spin Scale       =       0.3333333333333333 [-]
	 SCS Opposite-Spin Scale   =       1.2000000000000000 [-]
	 SCS Same-Spin Energy      =      -0.1171451969599918 [Eh]
	 SCS Opposite-Spin Energy  =      -1.5026202961085324 [Eh]
	 SCS Correlation Energy    =      -1.6197654930685244 [Eh]
	 SCS Total Energy          =    -310.4834864889275536 [Eh]
	-----------------------------------------------------------

*** Psi4 exiting successfully. Buy a developer a beer!
