                               Psi4 1.4a2.dev224

  ==> Input File <==

--------------------------------------------------------------------------
#Generated by lconvert.py for cbs job

memory 40 GB

molecule  {
0 1
  C        0.8355170     1.1151670     0.0214010
  H        1.4843240     1.9806090     0.0195340
  C        1.3832750    -0.1661470     0.0237650
  H        2.4571490    -0.2952050     0.0227710
  C        0.5475550    -1.2813160     0.0216860
  H        0.9729360    -2.2758050     0.0197790
  C       -0.8355230    -1.1151620     0.0213990
  H       -1.4843340    -1.9806060     0.0195300
  C       -1.3832840     0.1661540     0.0237580
  H       -2.4571560     0.2952090     0.0227570
  C       -0.5475660     1.2813230     0.0216800
  H       -0.9729430     2.2758050     0.0197690
--
0 1
  C        0.6557790    -0.1167900     2.7540530
  H        1.0472400    -1.1239090     2.7495850
  H        1.3708530     0.6932740     2.7495520
  C       -0.6557770     0.1167930     2.7540620
  H       -1.3708490    -0.6932720     2.7495660
  H       -1.0472400     1.1239120     2.7496040
units angstrom
no_reorient
symmetry c1
}

set {
scf_type DF
mp2_type DF
e_convergence 7
reference rhf
}

energy('mp2/aug-cc-pv[tq]z', bsse_type='cp')
--------------------------------------------------------------------------

    Molecular point group: c1
  Charge       = 0
  Multiplicity = 1
  Basis Set: AUG-CC-PVTZ
    Blend: AUG-CC-PVTZ
  Basis Set: (AUG-CC-PVTZ AUX)
    Blend: AUG-CC-PVTZ-JKFIT
  @DF-RHF Final Energy:   -78.06472988488326
    Total Energy =                        -78.0647298848832634
  Basis Set: (AUG-CC-PVTZ AUX)
    Blend: AUG-CC-PVTZ-RI
	 Reference Energy          =     -78.0647298848832634 [Eh]
	 Singles Energy            =      -0.0000000000000000 [Eh]
	 Same-Spin Energy          =      -0.0765550419782643 [Eh]
	 Opposite-Spin Energy      =      -0.2985538469672133 [Eh]
	 Correlation Energy        =      -0.3751088889454776 [Eh]
	 Total Energy              =     -78.4398387738287397 [Eh]
	 SCS Total Energy          =     -78.4485128485700045 [Eh]
    Molecular point group: c1
  Basis Set: AUG-CC-PVQZ
    Blend: AUG-CC-PVQZ
  Basis Set: (AUG-CC-PVQZ AUX)
    Blend: AUG-CC-PVQZ-JKFIT
  @DF-RHF Final Energy:   -78.06944393939922
    Total Energy =                        -78.0694439393992212
  Basis Set: (AUG-CC-PVQZ AUX)
  @DF-RHF Final Energy:   -78.06484944820892
    Total Energy =                        -78.0648494482089177
  @DF-RHF Final Energy:   -78.06948626711585
    Total Energy =                        -78.0694862671158489
  @DF-RHF Final Energy:  -230.78156103439892
    Total Energy =                       -230.7815610343989192
  @DF-RHF Final Energy:  -230.79453638580742
    Total Energy =                       -230.7945363858074188
  @DF-RHF Final Energy:  -230.78130335924376
    Total Energy =                       -230.7813033592437932
  @DF-RHF Final Energy:  -230.79448065554115
    Total Energy =                       -230.7944806555411787
  Multiplicity = 1
  @DF-RHF Final Energy:  -308.81613054431654
    Total Energy =                       -308.8161305443165361
	 Singles Energy            =      -0.0000000000000000 [Eh]
	 Same-Spin Energy          =      -0.3442310449547872 [Eh]
	 Opposite-Spin Energy      =      -1.1352892877980794 [Eh]
	 Correlation Energy        =      -1.4795203327528665 [Eh]
	 Total Energy              =    -310.2956508770694199 [Eh]
	 SCS Total Energy          =    -310.2932213713258420 [Eh]
    Molecular point group: c1

    Geometry (in Angstrom), charge = 0, multiplicity = 1:

       Center              X                  Y                   Z               Mass
    ------------   -----------------  -----------------  -----------------  -----------------
         C            0.835519904992     1.115164397262    -0.722494457047    12.000000000000
         H            1.484326904992     1.980606397262    -0.724361457047     1.007825032230
         C            1.383277904992    -0.166149602738    -0.720130457047    12.000000000000
         H            2.457151904992    -0.295207602738    -0.721124457047     1.007825032230
         C            0.547557904992    -1.281318602738    -0.722209457047    12.000000000000
         H            0.972938904992    -2.275807602738    -0.724116457047     1.007825032230
         C           -0.835520095008    -1.115164602738    -0.722496457047    12.000000000000
         H           -1.484331095008    -1.980608602738    -0.724365457047     1.007825032230
         C           -1.383281095008     0.166151397262    -0.720137457047    12.000000000000
         H           -2.457153095008     0.295206397262    -0.721138457047     1.007825032230
         C           -0.547563095008     1.281320397262    -0.722215457047    12.000000000000
         H           -0.972940095008     2.275802397262    -0.724126457047     1.007825032230
         C            0.655781904992    -0.116792602738     2.010157542953    12.000000000000
         H            1.047242904992    -1.123911602738     2.005689542953     1.007825032230
         H            1.370855904992     0.693271397262     2.005656542953     1.007825032230
         C           -0.655774095008     0.116790397262     2.010166542953    12.000000000000
         H           -1.370846095008    -0.693274602738     2.005670542953     1.007825032230
         H           -1.047237095008     1.123909397262     2.005708542953     1.007825032230

  Charge       = 0
  Multiplicity = 1
  Basis Set: AUG-CC-PVQZ
    Blend: AUG-CC-PVQZ
  Basis Set: (AUG-CC-PVQZ AUX)
    Blend: AUG-CC-PVQZ-JKFIT

    Orbital Energies [Eh]
    ---------------------

    Doubly Occupied:

       1A    -11.233831     2A    -11.233728     3A    -11.231851
       4A    -11.231467     5A    -11.230550     6A    -11.230326
       7A    -11.208065     8A    -11.206334     9A     -1.150740
      10A     -1.016828    11A     -1.015155    12A     -1.013792
      13A     -0.823835    14A     -0.823730    15A     -0.778588
      16A     -0.709575    17A     -0.644114    18A     -0.630251
      19A     -0.617868    20A     -0.588047    21A     -0.587108
      22A     -0.572008    23A     -0.511641    24A     -0.494543
      25A     -0.494430    26A     -0.493147    27A     -0.341950
      28A     -0.337034    29A     -0.335410

  @DF-RHF Final Energy:  -308.83377864334602

   => Energetics <=

    Nuclear Repulsion Energy =            346.9687778046711628
    One-Electron Energy =               -1104.0332185793481585
    Two-Electron Energy =                 448.2306621313309734
    Total Energy =                       -308.8337786433460224

  Dipole Moment: [D]
     X:     0.0000      Y:     0.0000      Z:    -0.3508     Total:     0.3508

  Basis Set: (AUG-CC-PVQZ AUX)
    Blend: AUG-CC-PVQZ-RI
	 Reference Energy          =    -308.8337786433460224 [Eh]
	 Singles Energy            =      -0.0000000000000000 [Eh]
	 Same-Spin Energy          =      -0.3634936254593019 [Eh]
	 Opposite-Spin Energy      =      -1.2677578685293578 [Eh]
	 Correlation Energy        =      -1.6312514939886595 [Eh]
	 Total Energy              =    -310.4650301373346792 [Eh]

	 ================> DF-SCS-MP2 Energies <==================
	-----------------------------------------------------------
	 SCS Same-Spin Scale       =       0.3333333333333333 [-]
	 SCS Opposite-Spin Scale   =       1.2000000000000000 [-]
	 SCS Same-Spin Energy      =      -0.1211645418197673 [Eh]
	 SCS Opposite-Spin Energy  =      -1.5213094422352293 [Eh]
	 SCS Correlation Energy    =      -1.6424739840549967 [Eh]
	 SCS Total Energy          =    -310.4762526274010384 [Eh]
	-----------------------------------------------------------

*** Psi4 exiting successfully. Buy a developer a beer!
