                               Psi4 1.4a2.dev224

  ==> Input File <==

--------------------------------------------------------------------------
#Generated by lconvert.py for cbs job

memory 40 GB

molecule  {
0 1
  C        0.8355170     1.1151670     0.0214010
  H        1.4843240     1.9806090     0.0195340
  C        1.3832750    -0.1661470     0.0237650
  H        2.4571490    -0.2952050     0.0227710
  C        0.5475550    -1.2813160     0.0216860
  H        0.9729360    -2.2758050     0.0197790
  C       -0.8355230    -1.1151620     0.0213990
  H       -1.4843340    -1.9806060     0.0195300
  C       -1.3832840     0.1661540     0.0237580
  H       -2.4571560     0.2952090     0.0227570
  C       -0.5475660     1.2813230     0.0216800
  H       -0.9729430     2.2758050     0.0197690
--
0 1
  C        0.6557800    -0.1167900     3.1069920
  H        1.0472410    -1.1239090     3.1025240
  H        1.3708540     0.6932740     3.1024900
  C       -0.6557770     0.1167920     3.1070010
  H       -1.3708490    -0.6932720     3.1025050
  H       -1.0472400     1.1239110     3.1025430
units angstrom
no_reorient
symmetry c1
}

set {
scf_type DF
mp2_type DF
e_convergence 7
reference rhf
}

energy('mp2/aug-cc-pv[tq]z', bsse_type='cp')
--------------------------------------------------------------------------

    Molecular point group: c1
  Charge       = 0
  Multiplicity = 1
  Basis Set: AUG-CC-PVTZ
    Blend: AUG-CC-PVTZ
  Basis Set: (AUG-CC-PVTZ AUX)
    Blend: AUG-CC-PVTZ-JKFIT
  @DF-RHF Final Energy:   -78.06472985812225
    Total Energy =                        -78.0647298581222344
  Basis Set: (AUG-CC-PVTZ AUX)
    Blend: AUG-CC-PVTZ-RI
	 Reference Energy          =     -78.0647298581222486 [Eh]
	 Singles Energy            =      -0.0000000000000000 [Eh]
	 Same-Spin Energy          =      -0.0765550449191698 [Eh]
	 Opposite-Spin Energy      =      -0.2985538660265156 [Eh]
	 Correlation Energy        =      -0.3751089109456853 [Eh]
	 Total Energy              =     -78.4398387690679328 [Eh]
	 SCS Total Energy          =     -78.4485128456604599 [Eh]
    Molecular point group: c1
  Basis Set: AUG-CC-PVQZ
    Blend: AUG-CC-PVQZ
  Basis Set: (AUG-CC-PVQZ AUX)
    Blend: AUG-CC-PVQZ-JKFIT
  @DF-RHF Final Energy:   -78.06944391142346
    Total Energy =                        -78.0694439114234626
  Basis Set: (AUG-CC-PVQZ AUX)
  @DF-RHF Final Energy:   -78.06482072518443
    Total Energy =                        -78.0648207251844326
  @DF-RHF Final Energy:   -78.06947783620791
    Total Energy =                        -78.0694778362079091
  @DF-RHF Final Energy:  -230.78148314426340
    Total Energy =                       -230.7814831442634045
  @DF-RHF Final Energy:  -230.79452365012338
    Total Energy =                       -230.7945236501233808
  @DF-RHF Final Energy:  -230.78130335244936
    Total Energy =                       -230.7813033524493562
  @DF-RHF Final Energy:  -230.79448065646463
    Total Energy =                       -230.7944806564646001
  Multiplicity = 1
  @DF-RHF Final Energy:  -308.83398585216673
    Total Energy =                       -308.8339858521667338
	 Singles Energy            =      -0.0000000000000000 [Eh]
	 Same-Spin Energy          =      -0.3392207530701405 [Eh]
	 Opposite-Spin Energy      =      -1.1279347740234587 [Eh]
	 Correlation Energy        =      -1.4671555270935992 [Eh]
	 Total Energy              =    -310.3011413792603435 [Eh]
	 SCS Total Energy          =    -310.3005811653516162 [Eh]
    Molecular point group: c1

    Geometry (in Angstrom), charge = 0, multiplicity = 1:

       Center              X                  Y                   Z               Mass
    ------------   -----------------  -----------------  -----------------  -----------------
         C            0.835519772867     1.115164519887    -0.815758985811    12.000000000000
         H            1.484326772867     1.980606519887    -0.817625985811     1.007825032230
         C            1.383277772867    -0.166149480113    -0.813394985811    12.000000000000
         H            2.457151772867    -0.295207480113    -0.814388985811     1.007825032230
         C            0.547557772867    -1.281318480113    -0.815473985811    12.000000000000
         H            0.972938772867    -2.275807480113    -0.817380985811     1.007825032230
         C           -0.835520227133    -1.115164480113    -0.815760985811    12.000000000000
         H           -1.484331227133    -1.980608480113    -0.817629985811     1.007825032230
         C           -1.383281227133     0.166151519887    -0.813401985811    12.000000000000
         H           -2.457153227133     0.295206519887    -0.814402985811     1.007825032230
         C           -0.547563227133     1.281320519887    -0.815479985811    12.000000000000
         H           -0.972940227133     2.275802519887    -0.817390985811     1.007825032230
         C            0.655782772867    -0.116792480113     2.269832014189    12.000000000000
         H            1.047243772867    -1.123911480113     2.265364014189     1.007825032230
         H            1.370856772867     0.693271519887     2.265330014189     1.007825032230
         C           -0.655774227133     0.116789519887     2.269841014189    12.000000000000
         H           -1.370846227133    -0.693274480113     2.265345014189     1.007825032230
         H           -1.047237227133     1.123908519887     2.265383014189     1.007825032230

  Charge       = 0
  Multiplicity = 1
  Basis Set: AUG-CC-PVQZ
    Blend: AUG-CC-PVQZ
  Basis Set: (AUG-CC-PVQZ AUX)
    Blend: AUG-CC-PVQZ-JKFIT

    Orbital Energies [Eh]
    ---------------------

    Doubly Occupied:

       1A    -11.233001     2A    -11.232688     3A    -11.232021
       4A    -11.231261     5A    -11.230762     6A    -11.230373
       7A    -11.213910     8A    -11.212180     9A     -1.148589
      10A     -1.020060    11A     -1.013150    12A     -1.012818
      13A     -0.822617    14A     -0.822554    15A     -0.780551
      16A     -0.708348    17A     -0.642961    18A     -0.631889
      19A     -0.617460    20A     -0.586712    21A     -0.586464
      22A     -0.574318    23A     -0.505773    24A     -0.495852
      25A     -0.493568    26A     -0.493416    27A     -0.355200
      28A     -0.335630    29A     -0.335108

  @DF-RHF Final Energy:  -308.85169522915805

   => Energetics <=

    Nuclear Repulsion Energy =            337.3390928041329744
    One-Electron Energy =               -1084.7831289777986967
    Two-Electron Energy =                 438.5923409445076686
    Total Energy =                       -308.8516952291580537

  Dipole Moment: [D]
     X:    -0.0000      Y:     0.0000      Z:    -0.2453     Total:     0.2453

  Basis Set: (AUG-CC-PVQZ AUX)
    Blend: AUG-CC-PVQZ-RI
	 Reference Energy          =    -308.8516952291580537 [Eh]
	 Singles Energy            =      -0.0000000000000000 [Eh]
	 Same-Spin Energy          =      -0.3585146786387748 [Eh]
	 Opposite-Spin Energy      =      -1.2613795143435846 [Eh]
	 Correlation Energy        =      -1.6198941929823594 [Eh]
	 Total Energy              =    -310.4715894221404255 [Eh]

	 ================> DF-SCS-MP2 Energies <==================
	-----------------------------------------------------------
	 SCS Same-Spin Scale       =       0.3333333333333333 [-]
	 SCS Opposite-Spin Scale   =       1.2000000000000000 [-]
	 SCS Same-Spin Energy      =      -0.1195048928795916 [Eh]
	 SCS Opposite-Spin Energy  =      -1.5136554172123016 [Eh]
	 SCS Correlation Energy    =      -1.6331603100918932 [Eh]
	 SCS Total Energy          =    -310.4848555392499634 [Eh]
	-----------------------------------------------------------

*** Psi4 exiting successfully. Buy a developer a beer!
