                               Psi4 1.4a2.dev224

  ==> Input File <==

--------------------------------------------------------------------------
#Generated by lconvert.py for cbs job

memory 40 GB

molecule  {
0 1
  N       -0.0508740    -0.9800810     0.0339620
  H       -0.0532220    -1.9906940     0.0498220
  C       -1.3088130    -0.3618760     0.0040260
  O       -2.3272200    -1.0325550    -0.0058290
  C       -1.2368180     1.0880480    -0.0122240
  H       -2.1527390     1.6514600    -0.0547740
  C       -0.0351940     1.6978360     0.0337050
  H        0.0703660     2.7724760     0.0318820
  N        1.1345290     0.9902830     0.0918450
  H        2.0237200     1.4567720     0.1556930
  C        1.1931860    -0.3918330     0.1157750
  O        2.2363980    -1.0111880     0.1941860
--
0 1
  C        0.7103350     0.0051080     2.8133330
  H        1.2274530    -0.8658800     2.4361070
  H        1.3159460     0.7921020     3.2406480
  C       -0.6184420     0.1056980     2.7640860
  H       -1.2304440    -0.6817810     2.3471860
  H       -1.1302670     0.9767680     3.1480860
units angstrom
no_reorient
symmetry c1
}

set {
scf_type DF
mp2_type DF
e_convergence 7
reference rhf
}

energy('mp2/aug-cc-pv[tq]z', bsse_type='cp')
--------------------------------------------------------------------------

    Molecular point group: c1
  Charge       = 0
  Multiplicity = 1
  Basis Set: AUG-CC-PVTZ
    Blend: AUG-CC-PVTZ
  Basis Set: (AUG-CC-PVTZ AUX)
    Blend: AUG-CC-PVTZ-JKFIT
  @DF-RHF Final Energy:   -78.06466122076246
    Total Energy =                        -78.0646612207624599
  Basis Set: (AUG-CC-PVTZ AUX)
    Blend: AUG-CC-PVTZ-RI
	 Reference Energy          =     -78.0646612207624599 [Eh]
	 Singles Energy            =      -0.0000000000000000 [Eh]
	 Same-Spin Energy          =      -0.0765571432423092 [Eh]
	 Opposite-Spin Energy      =      -0.2985941975833525 [Eh]
	 Correlation Energy        =      -0.3751513408256618 [Eh]
	 Total Energy              =     -78.4398125615881270 [Eh]
	 SCS Total Energy          =     -78.4484933056099152 [Eh]
    Molecular point group: c1
  Basis Set: AUG-CC-PVQZ
    Blend: AUG-CC-PVQZ
  Basis Set: (AUG-CC-PVQZ AUX)
    Blend: AUG-CC-PVQZ-JKFIT
  @DF-RHF Final Energy:   -78.06937181098115
    Total Energy =                        -78.0693718109811527
  Basis Set: (AUG-CC-PVQZ AUX)
  @DF-RHF Final Energy:   -78.06480192498753
    Total Energy =                        -78.0648019249875347
  @DF-RHF Final Energy:   -78.06941557774833
    Total Energy =                        -78.0694155777483303
  @DF-RHF Final Energy:  -412.62491085800076
    Total Energy =                       -412.6249108580007601
  @DF-RHF Final Energy:  -412.65018959411469
    Total Energy =                       -412.6501895941146927
  @DF-RHF Final Energy:  -412.62457007983335
    Total Energy =                       -412.6245700798333473
  @DF-RHF Final Energy:  -412.65010468597353
    Total Energy =                       -412.6501046859735311
  Multiplicity = 1
  @DF-RHF Final Energy:  -490.66742017337936
    Total Energy =                       -490.6674201733793552
	 Singles Energy            =      -0.0000000000000000 [Eh]
	 Same-Spin Energy          =      -0.5014585929636498 [Eh]
	 Opposite-Spin Energy      =      -1.5408841340276984 [Eh]
	 Correlation Energy        =      -2.0423427269913481 [Eh]
	 Total Energy              =    -492.7097629003707198 [Eh]
	 SCS Total Energy          =    -492.6836339985338213 [Eh]
    Molecular point group: c1

    Geometry (in Angstrom), charge = 0, multiplicity = 1:

       Center              X                  Y                   Z               Mass
    ------------   -----------------  -----------------  -----------------  -----------------
         N           -0.038338003329    -0.960892814430    -0.571801337579    14.003074004430
         H           -0.040686003329    -1.971505814430    -0.555941337579     1.007825032230
         C           -1.296277003329    -0.342687814430    -0.601737337579    12.000000000000
         O           -2.314684003329    -1.013366814430    -0.611592337579    15.994914619570
         C           -1.224282003329     1.107236185570    -0.617987337579    12.000000000000
         H           -2.140203003329     1.670648185570    -0.660537337579     1.007825032230
         C           -0.022658003329     1.717024185570    -0.572058337579    12.000000000000
         H            0.082901996671     2.791664185570    -0.573881337579     1.007825032230
         N            1.147064996671     1.009471185570    -0.513918337579    14.003074004430
         H            2.036255996671     1.475960185570    -0.450070337579     1.007825032230
         C            1.205721996671    -0.372644814430    -0.489988337579    12.000000000000
         O            2.248933996671    -0.991999814430    -0.411577337579    15.994914619570
         C            0.722870996671     0.024296185570     2.207569662421    12.000000000000
         H            1.239988996671    -0.846691814430     1.830343662421     1.007825032230
         H            1.328481996671     0.811290185570     2.634884662421     1.007825032230
         C           -0.605906003329     0.124886185570     2.158322662421    12.000000000000
         H           -1.217908003329    -0.662592814430     1.741422662421     1.007825032230
         H           -1.117731003329     0.995956185570     2.542322662421     1.007825032230

  Charge       = 0
  Multiplicity = 1
  Basis Set: AUG-CC-PVQZ
    Blend: AUG-CC-PVQZ
  Basis Set: (AUG-CC-PVQZ AUX)
    Blend: AUG-CC-PVQZ-JKFIT

    Orbital Energies [Eh]
    ---------------------

    Doubly Occupied:

       1A    -20.542655     2A    -20.538585     3A    -15.639618
       4A    -15.621158     5A    -11.416407     6A    -11.378833
       7A    -11.335643     8A    -11.251445     9A    -11.230357
      10A    -11.227635    11A     -1.435253    12A     -1.397771
      13A     -1.311363    14A     -1.243969    15A     -1.086298
      16A     -1.040606    17A     -0.931644    18A     -0.900338
      19A     -0.805493    20A     -0.800512    21A     -0.763744
      22A     -0.712304    23A     -0.683915    24A     -0.676806
      25A     -0.651954    26A     -0.639698    27A     -0.613928
      28A     -0.600615    29A     -0.590789    30A     -0.573059
      31A     -0.527228    32A     -0.504353    33A     -0.483240
      34A     -0.449333    35A     -0.439078    36A     -0.381981
      37A     -0.362781

  @DF-RHF Final Energy:  -490.69734172707257

   => Energetics <=

    Nuclear Repulsion Energy =            537.8243743740821401
    One-Electron Energy =               -1735.4626510906859949
    Two-Electron Energy =                 706.9409349895312289
    Total Energy =                       -490.6973417270725122

  Dipole Moment: [D]
     X:     1.2874      Y:     4.8901      Z:     0.0096     Total:     5.0568

  Basis Set: (AUG-CC-PVQZ AUX)
    Blend: AUG-CC-PVQZ-RI
	 Reference Energy          =    -490.6973417270725690 [Eh]
	 Singles Energy            =      -0.0000000000000000 [Eh]
	 Same-Spin Energy          =      -0.5312283603332228 [Eh]
	 Opposite-Spin Energy      =      -1.7353575123909915 [Eh]
	 Correlation Energy        =      -2.2665858727242143 [Eh]
	 Total Energy              =    -492.9639275997967616 [Eh]

	 ================> DF-SCS-MP2 Energies <==================
	-----------------------------------------------------------
	 SCS Same-Spin Scale       =       0.3333333333333333 [-]
	 SCS Opposite-Spin Scale   =       1.2000000000000000 [-]
	 SCS Same-Spin Energy      =      -0.1770761201110743 [Eh]
	 SCS Opposite-Spin Energy  =      -2.0824290148691897 [Eh]
	 SCS Correlation Energy    =      -2.2595051349802642 [Eh]
	 SCS Total Energy          =    -492.9568468620528279 [Eh]
	-----------------------------------------------------------

*** Psi4 exiting successfully. Buy a developer a beer!
