                               Psi4 1.4a2.dev224

  ==> Input File <==

--------------------------------------------------------------------------
#Generated by lconvert.py for cbs job

memory 40 GB

molecule  {
0 1
  N       -0.0508740    -0.9800810     0.0339620
  H       -0.0532220    -1.9906940     0.0498220
  C       -1.3088130    -0.3618760     0.0040260
  O       -2.3272200    -1.0325550    -0.0058290
  C       -1.2368180     1.0880480    -0.0122240
  H       -2.1527390     1.6514600    -0.0547740
  C       -0.0351940     1.6978360     0.0337050
  H        0.0703660     2.7724760     0.0318820
  N        1.1345290     0.9902830     0.0918450
  H        2.0237200     1.4567720     0.1556930
  C        1.1931860    -0.3918330     0.1157750
  O        2.2363980    -1.0111880     0.1941860
--
0 1
  C        0.7183920     0.0153620     3.1140120
  H        1.2355100    -0.8556260     2.7367850
  H        1.3240030     0.8023560     3.5413260
  C       -0.6103840     0.1159520     3.0647650
  H       -1.2223870    -0.6715270     2.6478640
  H       -1.1222090     0.9870220     3.4487640
units angstrom
no_reorient
symmetry c1
}

set {
scf_type DF
mp2_type DF
e_convergence 7
reference rhf
}

energy('mp2/aug-cc-pv[tq]z', bsse_type='cp')
--------------------------------------------------------------------------

    Molecular point group: c1
  Charge       = 0
  Multiplicity = 1
  Basis Set: AUG-CC-PVTZ
    Blend: AUG-CC-PVTZ
  Basis Set: (AUG-CC-PVTZ AUX)
    Blend: AUG-CC-PVTZ-JKFIT
  @DF-RHF Final Energy:   -78.06466126247665
    Total Energy =                        -78.0646612624766476
  Basis Set: (AUG-CC-PVTZ AUX)
    Blend: AUG-CC-PVTZ-RI
	 Reference Energy          =     -78.0646612624766476 [Eh]
	 Singles Energy            =      -0.0000000000000000 [Eh]
	 Same-Spin Energy          =      -0.0765571381967006 [Eh]
	 Opposite-Spin Energy      =      -0.2985941708060683 [Eh]
	 Correlation Energy        =      -0.3751513090027688 [Eh]
	 Total Energy              =     -78.4398125714794219 [Eh]
	 SCS Total Energy          =     -78.4484933135095019 [Eh]
    Molecular point group: c1
  Basis Set: AUG-CC-PVQZ
    Blend: AUG-CC-PVQZ
  Basis Set: (AUG-CC-PVQZ AUX)
    Blend: AUG-CC-PVQZ-JKFIT
  @DF-RHF Final Energy:   -78.06937185393949
    Total Energy =                        -78.0693718539394865
  Basis Set: (AUG-CC-PVQZ AUX)
  @DF-RHF Final Energy:   -78.06477072602030
    Total Energy =                        -78.0647707260202992
  @DF-RHF Final Energy:   -78.06940701113032
    Total Energy =                        -78.0694070111303233
  @DF-RHF Final Energy:  -412.62482743725383
    Total Energy =                       -412.6248274372538276
  @DF-RHF Final Energy:  -412.65017298047189
    Total Energy =                       -412.6501729804718934
  @DF-RHF Final Energy:  -412.62457008134680
    Total Energy =                       -412.6245700813468034
  @DF-RHF Final Energy:  -412.65010467931745
    Total Energy =                       -412.6501046793174510
  Multiplicity = 1
  @DF-RHF Final Energy:  -490.68182928610332
    Total Energy =                       -490.6818292861032660
	 Singles Energy            =      -0.0000000000000000 [Eh]
	 Same-Spin Energy          =      -0.4975371780476918 [Eh]
	 Opposite-Spin Energy      =      -1.5353678292330926 [Eh]
	 Correlation Energy        =      -2.0329050072807844 [Eh]
	 Total Energy              =    -492.7147342933840832 [Eh]
	 SCS Total Energy          =    -492.6901164071989569 [Eh]
    Molecular point group: c1

    Geometry (in Angstrom), charge = 0, multiplicity = 1:

       Center              X                  Y                   Z               Mass
    ------------   -----------------  -----------------  -----------------  -----------------
         N           -0.039950622828    -0.962945048264    -0.631979153249    14.003074004430
         H           -0.042298622828    -1.973558048264    -0.616119153249     1.007825032230
         C           -1.297889622828    -0.344740048264    -0.661915153249    12.000000000000
         O           -2.316296622828    -1.015419048264    -0.671770153249    15.994914619570
         C           -1.225894622828     1.105183951736    -0.678165153249    12.000000000000
         H           -2.141815622828     1.668595951736    -0.720715153249     1.007825032230
         C           -0.024270622828     1.714971951736    -0.632236153249    12.000000000000
         H            0.081289377172     2.789611951736    -0.634059153249     1.007825032230
         N            1.145452377172     1.007418951736    -0.574096153249    14.003074004430
         H            2.034643377172     1.473907951736    -0.510248153249     1.007825032230
         C            1.204109377172    -0.374697048264    -0.550166153249    12.000000000000
         O            2.247321377172    -0.994052048264    -0.471755153249    15.994914619570
         C            0.729315377172     0.032497951736     2.448070846751    12.000000000000
         H            1.246433377172    -0.838490048264     2.070843846751     1.007825032230
         H            1.334926377172     0.819491951736     2.875384846751     1.007825032230
         C           -0.599460622828     0.133087951736     2.398823846751    12.000000000000
         H           -1.211463622828    -0.654391048264     1.981922846751     1.007825032230
         H           -1.111285622828     1.004157951736     2.782822846751     1.007825032230

  Charge       = 0
  Multiplicity = 1
  Basis Set: AUG-CC-PVQZ
    Blend: AUG-CC-PVQZ
  Basis Set: (AUG-CC-PVQZ AUX)
    Blend: AUG-CC-PVQZ-JKFIT

    Orbital Energies [Eh]
    ---------------------

    Doubly Occupied:

       1A    -20.542950     2A    -20.538161     3A    -15.639273
       4A    -15.622464     5A    -11.415936     6A    -11.378214
       7A    -11.336041     8A    -11.250819     9A    -11.232644
      10A    -11.230406    11A     -1.434394    12A     -1.396763
      13A     -1.310801    14A     -1.243583    15A     -1.085443
      16A     -1.039600    17A     -0.931181    18A     -0.899594
      19A     -0.804896    20A     -0.798822    21A     -0.763218
      22A     -0.712155    23A     -0.676412    24A     -0.675162
      25A     -0.651524    26A     -0.643878    27A     -0.613407
      28A     -0.599972    29A     -0.591310    30A     -0.571088
      31A     -0.525689    32A     -0.508959    33A     -0.482910
      34A     -0.448794    35A     -0.437483    36A     -0.383300
      37A     -0.364239

  @DF-RHF Final Energy:  -490.71182045231757

   => Energetics <=

    Nuclear Repulsion Energy =            527.1537428848291711
    One-Electron Energy =               -1714.1681557718738986
    Two-Electron Energy =                 696.3025924347272166
    Total Energy =                       -490.7118204523175109

  Dipole Moment: [D]
     X:     1.3049      Y:     4.8511      Z:     0.0661     Total:     5.0240

  Basis Set: (AUG-CC-PVQZ AUX)
    Blend: AUG-CC-PVQZ-RI
	 Reference Energy          =    -490.7118204523175677 [Eh]
	 Singles Energy            =      -0.0000000000000000 [Eh]
	 Same-Spin Energy          =      -0.5273121535081261 [Eh]
	 Opposite-Spin Energy      =      -1.7305026113929407 [Eh]
	 Correlation Energy        =      -2.2578147649010667 [Eh]
	 Total Energy              =    -492.9696352172186380 [Eh]

	 ================> DF-SCS-MP2 Energies <==================
	-----------------------------------------------------------
	 SCS Same-Spin Scale       =       0.3333333333333333 [-]
	 SCS Opposite-Spin Scale   =       1.2000000000000000 [-]
	 SCS Same-Spin Energy      =      -0.1757707178360420 [Eh]
	 SCS Opposite-Spin Energy  =      -2.0766031336715289 [Eh]
	 SCS Correlation Energy    =      -2.2523738515075711 [Eh]
	 SCS Total Energy          =    -492.9641943038251384 [Eh]
	-----------------------------------------------------------

*** Psi4 exiting successfully. Buy a developer a beer!
