                               Psi4 1.4a2.dev224

  ==> Input File <==

--------------------------------------------------------------------------
#Generated by lconvert.py for cbs job

memory 40 GB

molecule  {
0 1
  N       -0.0508740    -0.9800810     0.0339620
  H       -0.0532220    -1.9906940     0.0498220
  C       -1.3088130    -0.3618760     0.0040260
  O       -2.3272200    -1.0325550    -0.0058290
  C       -1.2368180     1.0880480    -0.0122240
  H       -2.1527390     1.6514600    -0.0547740
  C       -0.0351940     1.6978360     0.0337050
  H        0.0703660     2.7724760     0.0318820
  N        1.1345290     0.9902830     0.0918450
  H        2.0237200     1.4567720     0.1556930
  C        1.1931860    -0.3918330     0.1157750
  O        2.2363980    -1.0111880     0.1941860
--
0 1
  C        0.7345170     0.0358830     3.7157480
  H        1.2516340    -0.8351050     3.3385220
  H        1.3401280     0.8228770     4.1430620
  C       -0.5942600     0.1364740     3.6665010
  H       -1.2062630    -0.6510060     3.2496000
  H       -1.1060850     1.0075430     4.0505010
units angstrom
no_reorient
symmetry c1
}

set {
scf_type DF
mp2_type DF
e_convergence 7
reference rhf
}

energy('mp2/aug-cc-pv[tq]z', bsse_type='cp')
--------------------------------------------------------------------------

    Molecular point group: c1
  Charge       = 0
  Multiplicity = 1
  Basis Set: AUG-CC-PVTZ
    Blend: AUG-CC-PVTZ
  Basis Set: (AUG-CC-PVTZ AUX)
    Blend: AUG-CC-PVTZ-JKFIT
  @DF-RHF Final Energy:   -78.06466121805074
    Total Energy =                        -78.0646612180507447
  Basis Set: (AUG-CC-PVTZ AUX)
    Blend: AUG-CC-PVTZ-RI
	 Reference Energy          =     -78.0646612180507447 [Eh]
	 Singles Energy            =      -0.0000000000000000 [Eh]
	 Same-Spin Energy          =      -0.0765571437002543 [Eh]
	 Opposite-Spin Energy      =      -0.2985941997912889 [Eh]
	 Correlation Energy        =      -0.3751513434915432 [Eh]
	 Total Energy              =     -78.4398125615422828 [Eh]
	 SCS Total Energy          =     -78.4484933057003815 [Eh]
    Molecular point group: c1
  Basis Set: AUG-CC-PVQZ
    Blend: AUG-CC-PVQZ
  Basis Set: (AUG-CC-PVQZ AUX)
    Blend: AUG-CC-PVQZ-JKFIT
  @DF-RHF Final Energy:   -78.06937180805406
    Total Energy =                        -78.0693718080540577
  Basis Set: (AUG-CC-PVQZ AUX)
  @DF-RHF Final Energy:   -78.06473245135089
    Total Energy =                        -78.0647324513508920
  @DF-RHF Final Energy:   -78.06939467218596
    Total Energy =                        -78.0693946721859646
  @DF-RHF Final Energy:  -412.62472292451918
    Total Energy =                       -412.6247229245191761
  @DF-RHF Final Energy:  -412.65014879352537
    Total Energy =                       -412.6501487935253749
  @DF-RHF Final Energy:  -412.62457007713073
    Total Energy =                       -412.6245700771307270
  @DF-RHF Final Energy:  -412.65010467796645
    Total Energy =                       -412.6501046779664534
  Multiplicity = 1
  @DF-RHF Final Energy:  -490.68952297568615
    Total Energy =                       -490.6895229756861454
	 Singles Energy            =      -0.0000000000000000 [Eh]
	 Same-Spin Energy          =      -0.4935328611604618 [Eh]
	 Opposite-Spin Energy      =      -1.5295262924569695 [Eh]
	 Correlation Energy        =      -2.0230591536174312 [Eh]
	 Total Energy              =    -492.7125821293035983 [Eh]
	 SCS Total Energy          =    -492.6894654803546700 [Eh]
    Molecular point group: c1

    Geometry (in Angstrom), charge = 0, multiplicity = 1:

       Center              X                  Y                   Z               Mass
    ------------   -----------------  -----------------  -----------------  -----------------
         N           -0.043177770348    -0.967052203429    -0.752410509403    14.003074004430
         H           -0.045525770348    -1.977665203429    -0.736550509403     1.007825032230
         C           -1.301116770348    -0.348847203429    -0.782346509403    12.000000000000
         O           -2.319523770348    -1.019526203429    -0.792201509403    15.994914619570
         C           -1.229121770348     1.101076796571    -0.798596509403    12.000000000000
         H           -2.145042770348     1.664488796571    -0.841146509403     1.007825032230
         C           -0.027497770348     1.710864796571    -0.752667509403    12.000000000000
         H            0.078062229652     2.785504796571    -0.754490509403     1.007825032230
         N            1.142225229652     1.003311796571    -0.694527509403    14.003074004430
         H            2.031416229652     1.469800796571    -0.630679509403     1.007825032230
         C            1.200882229652    -0.378804203429    -0.670597509403    12.000000000000
         O            2.244094229652    -0.998159203429    -0.592186509403    15.994914619570
         C            0.742213229652     0.048911796571     2.929375490597    12.000000000000
         H            1.259330229652    -0.822076203429     2.552149490597     1.007825032230
         H            1.347824229652     0.835905796571     3.356689490597     1.007825032230
         C           -0.586563770348     0.149502796571     2.880128490597    12.000000000000
         H           -1.198566770348    -0.637977203429     2.463227490597     1.007825032230
         H           -1.098388770348     1.020571796571     3.264128490597     1.007825032230

  Charge       = 0
  Multiplicity = 1
  Basis Set: AUG-CC-PVQZ
    Blend: AUG-CC-PVQZ
  Basis Set: (AUG-CC-PVQZ AUX)
    Blend: AUG-CC-PVQZ-JKFIT

    Orbital Energies [Eh]
    ---------------------

    Doubly Occupied:

       1A    -20.543095     2A    -20.537789     3A    -15.639721
       4A    -15.623513     5A    -11.416004     6A    -11.378149
       7A    -11.336921     8A    -11.251224     9A    -11.233932
      10A    -11.232116    11A     -1.434126    12A     -1.396125
      13A     -1.311039    14A     -1.243766    15A     -1.085654
      16A     -1.038513    17A     -0.931438    18A     -0.899655
      19A     -0.805130    20A     -0.797500    21A     -0.763342
      22A     -0.712524    23A     -0.676179    24A     -0.668512
      25A     -0.651417    26A     -0.647612    27A     -0.613334
      28A     -0.599937    29A     -0.591607    30A     -0.569669
      31A     -0.524194    32A     -0.511715    33A     -0.482724
      34A     -0.448438    35A     -0.436357    36A     -0.382755
      37A     -0.365885

  @DF-RHF Final Energy:  -490.71961282741569

   => Energetics <=

    Nuclear Repulsion Energy =            509.4893863647903345
    One-Electron Energy =               -1678.8547624062307477
    Two-Electron Energy =                 678.6457632140246687
    Total Energy =                       -490.7196128274157445

  Dipole Moment: [D]
     X:     1.3179      Y:     4.8191      Z:     0.1053     Total:     4.9972

  Basis Set: (AUG-CC-PVQZ AUX)
    Blend: AUG-CC-PVQZ-RI
	 Reference Energy          =    -490.7196128274156877 [Eh]
	 Singles Energy            =      -0.0000000000000000 [Eh]
	 Same-Spin Energy          =      -0.5233451129221869 [Eh]
	 Opposite-Spin Energy      =      -1.7255623019261770 [Eh]
	 Correlation Energy        =      -2.2489074148483637 [Eh]
	 Total Energy              =    -492.9685202422640486 [Eh]

	 ================> DF-SCS-MP2 Energies <==================
	-----------------------------------------------------------
	 SCS Same-Spin Scale       =       0.3333333333333333 [-]
	 SCS Opposite-Spin Scale   =       1.2000000000000000 [-]
	 SCS Same-Spin Energy      =      -0.1744483709740623 [Eh]
	 SCS Opposite-Spin Energy  =      -2.0706747623114121 [Eh]
	 SCS Correlation Energy    =      -2.2451231332854746 [Eh]
	 SCS Total Energy          =    -492.9647359607011481 [Eh]
	-----------------------------------------------------------

*** Psi4 exiting successfully. Buy a developer a beer!
