                               Psi4 1.4a2.dev224

  ==> Input File <==

--------------------------------------------------------------------------
#Generated by lconvert.py for cbs job

memory 40 GB

molecule  {
0 1
  N       -0.0508740    -0.9800810     0.0339620
  H       -0.0532220    -1.9906940     0.0498220
  C       -1.3088130    -0.3618760     0.0040260
  O       -2.3272200    -1.0325550    -0.0058290
  C       -1.2368180     1.0880480    -0.0122240
  H       -2.1527390     1.6514600    -0.0547740
  C       -0.0351940     1.6978360     0.0337050
  H        0.0703660     2.7724760     0.0318820
  N        1.1345290     0.9902830     0.0918450
  H        2.0237200     1.4567720     0.1556930
  C        1.1931860    -0.3918330     0.1157750
  O        2.2363980    -1.0111880     0.1941860
--
0 1
  C        0.7264670     0.0256380     3.4153320
  H        1.2435840    -0.8453500     3.0381050
  H        1.3320780     0.8126320     3.8426460
  C       -0.6023100     0.1262290     3.3660850
  H       -1.2143130    -0.6612510     2.9491840
  H       -1.1141350     0.9972980     3.7500850
units angstrom
no_reorient
symmetry c1
}

set {
scf_type DF
mp2_type DF
e_convergence 7
reference rhf
}

energy('mp2/aug-cc-pv[tq]z', bsse_type='cp')
--------------------------------------------------------------------------

    Molecular point group: c1
  Charge       = 0
  Multiplicity = 1
  Basis Set: AUG-CC-PVTZ
    Blend: AUG-CC-PVTZ
  Basis Set: (AUG-CC-PVTZ AUX)
    Blend: AUG-CC-PVTZ-JKFIT
  @DF-RHF Final Energy:   -78.06466121488354
    Total Energy =                        -78.0646612148835430
  Basis Set: (AUG-CC-PVTZ AUX)
    Blend: AUG-CC-PVTZ-RI
	 Reference Energy          =     -78.0646612148835430 [Eh]
	 Singles Energy            =      -0.0000000000000000 [Eh]
	 Same-Spin Energy          =      -0.0765571440230772 [Eh]
	 Opposite-Spin Energy      =      -0.2985942016532013 [Eh]
	 Correlation Energy        =      -0.3751513456762785 [Eh]
	 Total Energy              =     -78.4398125605598153 [Eh]
	 SCS Total Energy          =     -78.4484933048750719 [Eh]
    Molecular point group: c1
  Basis Set: AUG-CC-PVQZ
    Blend: AUG-CC-PVQZ
  Basis Set: (AUG-CC-PVQZ AUX)
    Blend: AUG-CC-PVQZ-JKFIT
  @DF-RHF Final Energy:   -78.06937180467335
    Total Energy =                        -78.0693718046733522
  Basis Set: (AUG-CC-PVQZ AUX)
  @DF-RHF Final Energy:   -78.06474979783853
    Total Energy =                        -78.0647497978385303
  @DF-RHF Final Energy:   -78.06939994768901
    Total Energy =                        -78.0693999476890070
  @DF-RHF Final Energy:  -412.62476669557441
    Total Energy =                       -412.6247666955744080
  @DF-RHF Final Energy:  -412.65016025374160
    Total Energy =                       -412.6501602537416034
  @DF-RHF Final Energy:  -412.62457008140240
    Total Energy =                       -412.6245700814023962
  @DF-RHF Final Energy:  -412.65010468522257
    Total Energy =                       -412.6501046852225727
  Multiplicity = 1
  @DF-RHF Final Energy:  -490.68748436166936
    Total Energy =                       -490.6874843616693624
	 Singles Energy            =      -0.0000000000000000 [Eh]
	 Same-Spin Energy          =      -0.4950763591679841 [Eh]
	 Opposite-Spin Energy      =      -1.5317983271789983 [Eh]
	 Correlation Energy        =      -2.0268746863469822 [Eh]
	 Total Energy              =    -492.7143590480163198 [Eh]
	 SCS Total Energy          =    -492.6906678073401622 [Eh]
    Molecular point group: c1

    Geometry (in Angstrom), charge = 0, multiplicity = 1:

       Center              X                  Y                   Z               Mass
    ------------   -----------------  -----------------  -----------------  -----------------
         N           -0.041566644703    -0.965001770853    -0.692285294530    14.003074004430
         H           -0.043914644703    -1.975614770853    -0.676425294530     1.007825032230
         C           -1.299505644703    -0.346796770853    -0.722221294530    12.000000000000
         O           -2.317912644703    -1.017475770853    -0.732076294530    15.994914619570
         C           -1.227510644703     1.103127229147    -0.738471294530    12.000000000000
         H           -2.143431644703     1.666539229147    -0.781021294530     1.007825032230
         C           -0.025886644703     1.712915229147    -0.692542294530    12.000000000000
         H            0.079673355297     2.787555229147    -0.694365294530     1.007825032230
         N            1.143836355297     1.005362229147    -0.634402294530    14.003074004430
         H            2.033027355297     1.471851229147    -0.570554294530     1.007825032230
         C            1.202493355297    -0.376753770853    -0.610472294530    12.000000000000
         O            2.245705355297    -0.996108770853    -0.532061294530    15.994914619570
         C            0.735774355297     0.040717229147     2.689084705470    12.000000000000
         H            1.252891355297    -0.830270770853     2.311857705470     1.007825032230
         H            1.341385355297     0.827711229147     3.116398705470     1.007825032230
         C           -0.593002644703     0.141308229147     2.639837705470    12.000000000000
         H           -1.205005644703    -0.646171770853     2.222936705470     1.007825032230
         H           -1.104827644703     1.012377229147     3.023837705470     1.007825032230

  Charge       = 0
  Multiplicity = 1
  Basis Set: AUG-CC-PVQZ
    Blend: AUG-CC-PVQZ
  Basis Set: (AUG-CC-PVQZ AUX)
    Blend: AUG-CC-PVQZ-JKFIT

    Orbital Energies [Eh]
    ---------------------

    Doubly Occupied:

       1A    -20.543016     2A    -20.537876     3A    -15.639392
       4A    -15.623110     5A    -11.415880     6A    -11.378073
       7A    -11.336467     8A    -11.250875     9A    -11.233670
      10A    -11.231717    11A     -1.434114    12A     -1.396285
      13A     -1.310793    14A     -1.243581    15A     -1.085380
      16A     -1.039033    17A     -0.931193    18A     -0.899497
      19A     -0.804892    20A     -0.798027    21A     -0.763163
      22A     -0.712273    23A     -0.676173    24A     -0.670531
      25A     -0.651380    26A     -0.646514    27A     -0.613259
      28A     -0.599824    29A     -0.591634    30A     -0.570052
      31A     -0.524574    32A     -0.511058    33A     -0.482736
      34A     -0.448510    35A     -0.436673    36A     -0.383363
      37A     -0.365135

  @DF-RHF Final Energy:  -490.71753187021176

   => Energetics <=

    Nuclear Repulsion Energy =            517.7604427720376634
    One-Electron Energy =               -1695.3964965493400996
    Two-Electron Energy =                 686.9185219070908488
    Total Energy =                       -490.7175318702117011

  Dipole Moment: [D]
     X:     1.3136      Y:     4.8304      Z:     0.0971     Total:     5.0068

  Basis Set: (AUG-CC-PVQZ AUX)
    Blend: AUG-CC-PVQZ-RI
	 Reference Energy          =    -490.7175318702117579 [Eh]
	 Singles Energy            =      -0.0000000000000000 [Eh]
	 Same-Spin Energy          =      -0.5248698173520530 [Eh]
	 Opposite-Spin Energy      =      -1.7274601029749255 [Eh]
	 Correlation Energy        =      -2.2523299203269787 [Eh]
	 Total Energy              =    -492.9698617905387437 [Eh]

	 ================> DF-SCS-MP2 Energies <==================
	-----------------------------------------------------------
	 SCS Same-Spin Scale       =       0.3333333333333333 [-]
	 SCS Opposite-Spin Scale   =       1.2000000000000000 [-]
	 SCS Same-Spin Energy      =      -0.1749566057840176 [Eh]
	 SCS Opposite-Spin Energy  =      -2.0729521235699107 [Eh]
	 SCS Correlation Energy    =      -2.2479087293539282 [Eh]
	 SCS Total Energy          =    -492.9654405995656816 [Eh]
	-----------------------------------------------------------

*** Psi4 exiting successfully. Buy a developer a beer!
