                               Psi4 1.4a2.dev224

  ==> Input File <==

--------------------------------------------------------------------------
#Generated by lconvert.py for cbs job

memory 40 GB

molecule  {
0 1
  N       -0.0508740    -0.9800810     0.0339620
  H       -0.0532220    -1.9906940     0.0498220
  C       -1.3088130    -0.3618760     0.0040260
  O       -2.3272200    -1.0325550    -0.0058290
  C       -1.2368180     1.0880480    -0.0122240
  H       -2.1527390     1.6514600    -0.0547740
  C       -0.0351940     1.6978360     0.0337050
  H        0.0703660     2.7724760     0.0318820
  N        1.1345290     0.9902830     0.0918450
  H        2.0237200     1.4567720     0.1556930
  C        1.1931860    -0.3918330     0.1157750
  O        2.2363980    -1.0111880     0.1941860
--
0 1
  C        0.7022840    -0.0051380     2.5128950
  H        1.2194020    -0.8761260     2.1356690
  H        1.3078950     0.7818560     2.9402100
  C       -0.6264920     0.0954520     2.4636480
  H       -1.2384950    -0.6920270     2.0467480
  H       -1.1383170     0.9665220     2.8476480
units angstrom
no_reorient
symmetry c1
}

set {
scf_type DF
mp2_type DF
e_convergence 7
reference rhf
}

energy('mp2/aug-cc-pv[tq]z', bsse_type='cp')
--------------------------------------------------------------------------

    Molecular point group: c1
  Charge       = 0
  Multiplicity = 1
  Basis Set: AUG-CC-PVTZ
    Blend: AUG-CC-PVTZ
  Basis Set: (AUG-CC-PVTZ AUX)
    Blend: AUG-CC-PVTZ-JKFIT
  @DF-RHF Final Energy:   -78.06466126021787
    Total Energy =                        -78.0646612602178749
  Basis Set: (AUG-CC-PVTZ AUX)
    Blend: AUG-CC-PVTZ-RI
	 Reference Energy          =     -78.0646612602178749 [Eh]
	 Singles Energy            =      -0.0000000000000000 [Eh]
	 Same-Spin Energy          =      -0.0765571382931408 [Eh]
	 Opposite-Spin Energy      =      -0.2985941711373751 [Eh]
	 Correlation Energy        =      -0.3751513094305160 [Eh]
	 Total Energy              =     -78.4398125696483959 [Eh]
	 SCS Total Energy          =     -78.4484933116804370 [Eh]
    Molecular point group: c1
  Basis Set: AUG-CC-PVQZ
    Blend: AUG-CC-PVQZ
  Basis Set: (AUG-CC-PVQZ AUX)
    Blend: AUG-CC-PVQZ-JKFIT
  @DF-RHF Final Energy:   -78.06937185185721
    Total Energy =                        -78.0693718518572126
  Basis Set: (AUG-CC-PVQZ AUX)
  @DF-RHF Final Energy:   -78.06484708975459
    Total Energy =                        -78.0648470897545934
  @DF-RHF Final Energy:   -78.06942456973660
    Total Energy =                        -78.0694245697365972
  @DF-RHF Final Energy:  -412.62501360354156
    Total Energy =                       -412.6250136035415608
  @DF-RHF Final Energy:  -412.65021029077781
    Total Energy =                       -412.6502102907778067
  @DF-RHF Final Energy:  -412.62457007864083
    Total Energy =                       -412.6245700786408293
  @DF-RHF Final Energy:  -412.65010468019119
    Total Energy =                       -412.6501046801911912
  Multiplicity = 1
  @DF-RHF Final Energy:  -490.63262840611975
    Total Energy =                       -490.6326284061196930
	 Singles Energy            =      -0.0000000000000000 [Eh]
	 Same-Spin Energy          =      -0.5077615831504235 [Eh]
	 Opposite-Spin Energy      =      -1.5493542647159779 [Eh]
	 Correlation Energy        =      -2.0571158478664016 [Eh]
	 Total Energy              =    -492.6897442539861345 [Eh]
	 SCS Total Energy          =    -492.6611073848290516 [Eh]
    Molecular point group: c1

    Geometry (in Angstrom), charge = 0, multiplicity = 1:

       Center              X                  Y                   Z               Mass
    ------------   -----------------  -----------------  -----------------  -----------------
         N           -0.036726770419    -0.958842181714    -0.511671726825    14.003074004430
         H           -0.039074770419    -1.969455181714    -0.495811726825     1.007825032230
         C           -1.294665770419    -0.340637181714    -0.541607726825    12.000000000000
         O           -2.313072770419    -1.011316181714    -0.551462726825    15.994914619570
         C           -1.222670770419     1.109286818286    -0.557857726825    12.000000000000
         H           -2.138591770419     1.672698818286    -0.600407726825     1.007825032230
         C           -0.021046770419     1.719074818286    -0.511928726825    12.000000000000
         H            0.084513229581     2.793714818286    -0.513751726825     1.007825032230
         N            1.148676229581     1.011521818286    -0.453788726825    14.003074004430
         H            2.037867229581     1.478010818286    -0.389940726825     1.007825032230
         C            1.207333229581    -0.370594181714    -0.429858726825    12.000000000000
         O            2.250545229581    -0.989949181714    -0.351447726825    15.994914619570
         C            0.716431229581     0.016100818286     1.967261273175    12.000000000000
         H            1.233549229581    -0.854887181714     1.590035273175     1.007825032230
         H            1.322042229581     0.803094818286     2.394576273175     1.007825032230
         C           -0.612344770419     0.116690818286     1.918014273175    12.000000000000
         H           -1.224347770419    -0.670788181714     1.501114273175     1.007825032230
         H           -1.124169770419     0.987760818286     2.302014273175     1.007825032230

  Charge       = 0
  Multiplicity = 1
  Basis Set: AUG-CC-PVQZ
    Blend: AUG-CC-PVQZ
  Basis Set: (AUG-CC-PVQZ AUX)
    Blend: AUG-CC-PVQZ-JKFIT

    Orbital Energies [Eh]
    ---------------------

    Doubly Occupied:

       1A    -20.541340     2A    -20.538670     3A    -15.640918
       4A    -15.618155     5A    -11.417904     6A    -11.380553
       7A    -11.335070     8A    -11.253515     9A    -11.226477
      10A    -11.223127    11A     -1.437325    12A     -1.399637
      13A     -1.313076    14A     -1.245143    15A     -1.088922
      16A     -1.043420    17A     -0.932944    18A     -0.902923
      19A     -0.808145    20A     -0.803981    21A     -0.765168
      22A     -0.713273    23A     -0.697486    24A     -0.677586
      25A     -0.652756    26A     -0.635586    27A     -0.614968
      28A     -0.602115    29A     -0.591450    30A     -0.576038
      31A     -0.526614    32A     -0.495873    33A     -0.483487
      34A     -0.449974    35A     -0.441594    36A     -0.379775
      37A     -0.358820

  @DF-RHF Final Energy:  -490.66248565506555

   => Energetics <=

    Nuclear Repulsion Energy =            550.0254038057985326
    One-Electron Energy =               -1759.7481651453679206
    Two-Electron Energy =                 719.0602756845038357
    Total Energy =                       -490.6624856550655522

  Dipole Moment: [D]
     X:     1.2528      Y:     4.9685      Z:    -0.0525     Total:     5.1242

  Basis Set: (AUG-CC-PVQZ AUX)
    Blend: AUG-CC-PVQZ-RI
	 Reference Energy          =    -490.6624856550655522 [Eh]
	 Singles Energy            =      -0.0000000000000000 [Eh]
	 Same-Spin Energy          =      -0.5375537586816925 [Eh]
	 Opposite-Spin Energy      =      -1.7429713004674663 [Eh]
	 Correlation Energy        =      -2.2805250591491588 [Eh]
	 Total Energy              =    -492.9430107142147222 [Eh]

	 ================> DF-SCS-MP2 Energies <==================
	-----------------------------------------------------------
	 SCS Same-Spin Scale       =       0.3333333333333333 [-]
	 SCS Opposite-Spin Scale   =       1.2000000000000000 [-]
	 SCS Same-Spin Energy      =      -0.1791845862272308 [Eh]
	 SCS Opposite-Spin Energy  =      -2.0915655605609595 [Eh]
	 SCS Correlation Energy    =      -2.2707501467881905 [Eh]
	 SCS Total Energy          =    -492.9332358018537548 [Eh]
	-----------------------------------------------------------

*** Psi4 exiting successfully. Buy a developer a beer!
