                               Psi4 1.4a2.dev224

  ==> Input File <==

--------------------------------------------------------------------------
#Generated by lconvert.py for cbs job

memory 40 GB

molecule  {
0 1
  N       -0.0508740    -0.9800810     0.0339620
  H       -0.0532220    -1.9906940     0.0498220
  C       -1.3088130    -0.3618760     0.0040260
  O       -2.3272200    -1.0325550    -0.0058290
  C       -1.2368180     1.0880480    -0.0122240
  H       -2.1527390     1.6514600    -0.0547740
  C       -0.0351940     1.6978360     0.0337050
  H        0.0703660     2.7724760     0.0318820
  N        1.1345290     0.9902830     0.0918450
  H        2.0237200     1.4567720     0.1556930
  C        1.1931860    -0.3918330     0.1157750
  O        2.2363980    -1.0111880     0.1941860
--
0 1
  C        0.7224350     0.0205070     3.2648820
  H        1.2395530    -0.8504810     2.8876560
  H        1.3280460     0.8075010     3.6921970
  C       -0.6063410     0.1210980     3.2156350
  H       -1.2183440    -0.6663820     2.7987350
  H       -1.1181660     0.9921670     3.5996350
units angstrom
no_reorient
symmetry c1
}

set {
scf_type DF
mp2_type DF
e_convergence 7
reference rhf
}

energy('mp2/aug-cc-pv[tq]z', bsse_type='cp')
--------------------------------------------------------------------------

    Molecular point group: c1
  Charge       = 0
  Multiplicity = 1
  Basis Set: AUG-CC-PVTZ
    Blend: AUG-CC-PVTZ
  Basis Set: (AUG-CC-PVTZ AUX)
    Blend: AUG-CC-PVTZ-JKFIT
  @DF-RHF Final Energy:   -78.06466125682117
    Total Energy =                        -78.0646612568211822
  Basis Set: (AUG-CC-PVTZ AUX)
    Blend: AUG-CC-PVTZ-RI
	 Reference Energy          =     -78.0646612568211680 [Eh]
	 Singles Energy            =      -0.0000000000000000 [Eh]
	 Same-Spin Energy          =      -0.0765571387365609 [Eh]
	 Opposite-Spin Energy      =      -0.2985941730988377 [Eh]
	 Correlation Energy        =      -0.3751513118353986 [Eh]
	 Total Energy              =     -78.4398125686565635 [Eh]
	 SCS Total Energy          =     -78.4484933107852953 [Eh]
    Molecular point group: c1
  Basis Set: AUG-CC-PVQZ
    Blend: AUG-CC-PVQZ
  Basis Set: (AUG-CC-PVQZ AUX)
    Blend: AUG-CC-PVQZ-JKFIT
  @DF-RHF Final Energy:   -78.06937184816287
    Total Energy =                        -78.0693718481628736
  Basis Set: (AUG-CC-PVQZ AUX)
  @DF-RHF Final Energy:   -78.06475960997405
    Total Energy =                        -78.0647596099740468
  @DF-RHF Final Energy:   -78.06940327527364
    Total Energy =                        -78.0694032752736433
  @DF-RHF Final Energy:  -412.62479399715284
    Total Energy =                       -412.6247939971528353
  @DF-RHF Final Energy:  -412.65016633029239
    Total Energy =                       -412.6501663302923930
  @DF-RHF Final Energy:  -412.62457008212510
    Total Energy =                       -412.6245700821251035
  @DF-RHF Final Energy:  -412.65010468528357
    Total Energy =                       -412.6501046852835657
  Multiplicity = 1
  @DF-RHF Final Energy:  -490.68533582098735
    Total Energy =                       -490.6853358209873477
	 Singles Energy            =      -0.0000000000000000 [Eh]
	 Same-Spin Energy          =      -0.4961623271746439 [Eh]
	 Opposite-Spin Energy      =      -1.5333821148307831 [Eh]
	 Correlation Energy        =      -2.0295444420054269 [Eh]
	 Total Energy              =    -492.7148802629927786 [Eh]
	 SCS Total Energy          =    -492.6907818011758309 [Eh]
    Molecular point group: c1

    Geometry (in Angstrom), charge = 0, multiplicity = 1:

       Center              X                  Y                   Z               Mass
    ------------   -----------------  -----------------  -----------------  -----------------
         N           -0.040759788167    -0.963974853377    -0.662174278439    14.003074004430
         H           -0.043107788167    -1.974587853377    -0.646314278439     1.007825032230
         C           -1.298698788167    -0.345769853377    -0.692110278439    12.000000000000
         O           -2.317105788167    -1.016448853377    -0.701965278439    15.994914619570
         C           -1.226703788167     1.104154146623    -0.708360278439    12.000000000000
         H           -2.142624788167     1.667566146623    -0.750910278439     1.007825032230
         C           -0.025079788167     1.713942146623    -0.662431278439    12.000000000000
         H            0.080480211833     2.788582146623    -0.664254278439     1.007825032230
         N            1.144643211833     1.006389146623    -0.604291278439    14.003074004430
         H            2.033834211833     1.472878146623    -0.540443278439     1.007825032230
         C            1.203300211833    -0.375726853377    -0.580361278439    12.000000000000
         O            2.246512211833    -0.995081853377    -0.501950278439    15.994914619570
         C            0.732549211833     0.036613146623     2.568745721561    12.000000000000
         H            1.249667211833    -0.834374853377     2.191519721561     1.007825032230
         H            1.338160211833     0.823607146623     2.996060721561     1.007825032230
         C           -0.596226788167     0.137204146623     2.519498721561    12.000000000000
         H           -1.208229788167    -0.650275853377     2.102598721561     1.007825032230
         H           -1.108051788167     1.008273146623     2.903498721561     1.007825032230

  Charge       = 0
  Multiplicity = 1
  Basis Set: AUG-CC-PVQZ
    Blend: AUG-CC-PVQZ
  Basis Set: (AUG-CC-PVQZ AUX)
    Blend: AUG-CC-PVQZ-JKFIT

    Orbital Energies [Eh]
    ---------------------

    Doubly Occupied:

       1A    -20.542989     2A    -20.537993     3A    -15.639294
       4A    -15.622835     5A    -11.415876     6A    -11.378105
       7A    -11.336249     8A    -11.250792     9A    -11.233282
      10A    -11.231210    11A     -1.434204    12A     -1.396472
      13A     -1.310751    14A     -1.243549    15A     -1.085348
      16A     -1.039299    17A     -0.931145    18A     -0.899497
      19A     -0.804849    20A     -0.798365    21A     -0.763149
      22A     -0.712191    23A     -0.676243    24A     -0.672444
      25A     -0.651423    26A     -0.645415    27A     -0.613296
      28A     -0.599853    29A     -0.591520    30A     -0.570466
      31A     -0.525032    32A     -0.510251    33A     -0.482800
      34A     -0.448620    35A     -0.436997    36A     -0.383455
      37A     -0.364716

  @DF-RHF Final Energy:  -490.71535753197668

   => Energetics <=

    Nuclear Repulsion Energy =            522.3014505303410715
    One-Electron Energy =               -1704.4736579789644111
    Two-Electron Energy =                 691.4568499166466609
    Total Energy =                       -490.7153575319766787

  Dipole Moment: [D]
     X:     1.3100      Y:     4.8392      Z:     0.0849     Total:     5.0141

  Basis Set: (AUG-CC-PVQZ AUX)
    Blend: AUG-CC-PVQZ-RI
	 Reference Energy          =    -490.7153575319766787 [Eh]
	 Singles Energy            =      -0.0000000000000000 [Eh]
	 Same-Spin Energy          =      -0.5259460850086316 [Eh]
	 Opposite-Spin Energy      =      -1.7288015465500131 [Eh]
	 Correlation Energy        =      -2.2547476315586445 [Eh]
	 Total Energy              =    -492.9701051635353224 [Eh]

	 ================> DF-SCS-MP2 Energies <==================
	-----------------------------------------------------------
	 SCS Same-Spin Scale       =       0.3333333333333333 [-]
	 SCS Opposite-Spin Scale   =       1.2000000000000000 [-]
	 SCS Same-Spin Energy      =      -0.1753153616695439 [Eh]
	 SCS Opposite-Spin Energy  =      -2.0745618558600154 [Eh]
	 SCS Correlation Energy    =      -2.2498772175295594 [Eh]
	 SCS Total Energy          =    -492.9652347495062372 [Eh]
	-----------------------------------------------------------

*** Psi4 exiting successfully. Buy a developer a beer!
