                               Psi4 1.4a2.dev224

  ==> Input File <==

--------------------------------------------------------------------------
#Generated by lconvert.py for cbs job

memory 40 GB

molecule  {
0 1
  N       -0.0508740    -0.9800810     0.0339620
  H       -0.0532220    -1.9906940     0.0498220
  C       -1.3088130    -0.3618760     0.0040260
  O       -2.3272200    -1.0325550    -0.0058290
  C       -1.2368180     1.0880480    -0.0122240
  H       -2.1527390     1.6514600    -0.0547740
  C       -0.0351940     1.6978360     0.0337050
  H        0.0703660     2.7724760     0.0318820
  N        1.1345290     0.9902830     0.0918450
  H        2.0237200     1.4567720     0.1556930
  C        1.1931860    -0.3918330     0.1157750
  O        2.2363980    -1.0111880     0.1941860
--
0 1
  C        0.7022840    -0.0051380     2.5128950
  H        1.2194020    -0.8761260     2.1356690
  H        1.3078950     0.7818560     2.9402100
  C       -0.6264920     0.0954520     2.4636480
  H       -1.2384950    -0.6920270     2.0467480
  H       -1.1383170     0.9665220     2.8476480
units angstrom
no_reorient
symmetry c1
}

set {
scf_type DF
mp2_type DF
e_convergence 7
reference rhf
}

energy('mp2/aug-cc-pv[tq]z', bsse_type='cp')
--------------------------------------------------------------------------

    Molecular point group: c1
  Charge       = 0
  Multiplicity = 1
  Basis Set: AUG-CC-PVTZ
    Blend: AUG-CC-PVTZ
  Basis Set: (AUG-CC-PVTZ AUX)
    Blend: AUG-CC-PVTZ-JKFIT
  @DF-RHF Final Energy:   -78.06466126021787
    Total Energy =                        -78.0646612602178749
  Basis Set: (AUG-CC-PVTZ AUX)
    Blend: AUG-CC-PVTZ-RI
	 Reference Energy          =     -78.0646612602178749 [Eh]
	 Singles Energy            =      -0.0000000000000000 [Eh]
	 Same-Spin Energy          =      -0.0765571382931408 [Eh]
	 Opposite-Spin Energy      =      -0.2985941711373751 [Eh]
	 Correlation Energy        =      -0.3751513094305160 [Eh]
	 Total Energy              =     -78.4398125696483959 [Eh]
	 SCS Total Energy          =     -78.4484933116804370 [Eh]
    Molecular point group: c1
  Basis Set: AUG-CC-PVQZ
    Blend: AUG-CC-PVQZ
  Basis Set: (AUG-CC-PVQZ AUX)
    Blend: AUG-CC-PVQZ-JKFIT
  @DF-RHF Final Energy:   -78.06937185185721
    Total Energy =                        -78.0693718518572126
  Basis Set: (AUG-CC-PVQZ AUX)
  @DF-RHF Final Energy:   -78.06484708975459
    Total Energy =                        -78.0648470897545934
  @DF-RHF Final Energy:   -78.06942456973660
    Total Energy =                        -78.0694245697365972
  @DF-RHF Final Energy:  -412.62501360354156
    Total Energy =                       -412.6250136035415608
  @DF-RHF Final Energy:  -412.65021029077781
    Total Energy =                       -412.6502102907778067
  @DF-RHF Final Energy:  -412.62457007864083
    Total Energy =                       -412.6245700786408293
  @DF-RHF Final Energy:  -412.65010468019119
    Total Energy =                       -412.6501046801911912
  @DF-RHF Final Energy:  -490.63262840611975
    Total Energy =                       -490.6326284061196930
  @DF-RHF Final Energy:  -490.66248565506555
    Total Energy =                       -490.6624856550655522
*** Psi4 exiting successfully. Buy a developer a beer!
                               Psi4 1.4a2.dev224
  @DF-RHF Final Energy:   -78.06466122076246
    Total Energy =                        -78.0646612207624599
  @DF-RHF Final Energy:   -78.06937181098115
    Total Energy =                        -78.0693718109811527
  @DF-RHF Final Energy:   -78.06480192498753
    Total Energy =                        -78.0648019249875347
  @DF-RHF Final Energy:   -78.06941557774833
    Total Energy =                        -78.0694155777483303
  @DF-RHF Final Energy:  -412.62491085800076
    Total Energy =                       -412.6249108580007601
  @DF-RHF Final Energy:  -412.65018959411469
    Total Energy =                       -412.6501895941146927
  @DF-RHF Final Energy:  -412.62457007983335
    Total Energy =                       -412.6245700798333473
  @DF-RHF Final Energy:  -412.65010468597353
    Total Energy =                       -412.6501046859735311
  @DF-RHF Final Energy:  -490.66742017337936
    Total Energy =                       -490.6674201733793552
  @DF-RHF Final Energy:  -490.69734172707257
    Total Energy =                       -490.6973417270725122
*** Psi4 exiting successfully. Buy a developer a beer!
                               Psi4 1.4a2.dev224
                               Psi4 1.4a2.dev224
                               Psi4 1.4a2.dev224
                               Psi4 1.4a2.dev224
                               Psi4 1.4a2.dev224
                               Psi4 1.4a2.dev224
                               Psi4 1.4a2.dev224
  @DF-RHF Final Energy:   -78.06466148440622
    Total Energy =                        -78.0646614844062157
  @DF-RHF Final Energy:   -78.06937208437691
    Total Energy =                        -78.0693720843769086
  @DF-RHF Final Energy:   -78.06468011520067
    Total Energy =                        -78.0646801152006731
  @DF-RHF Final Energy:   -78.06938137450886
    Total Energy =                        -78.0693813745088647
  @DF-RHF Final Energy:  -412.62459972543064
    Total Energy =                       -412.6245997254306417
  @DF-RHF Final Energy:  -412.65011700486093
    Total Energy =                       -412.6501170048609310
  @DF-RHF Final Energy:  -412.62457013197542
    Total Energy =                       -412.6245701319754176
  @DF-RHF Final Energy:  -412.65010474525053
    Total Energy =                       -412.6501047452505304
  @DF-RHF Final Energy:  -490.68986542204880
    Total Energy =                       -490.6898654220487970
  @DF-RHF Final Energy:  -490.72008163174741
    Total Energy =                       -490.7200816317474619
*** Psi4 exiting successfully. Buy a developer a beer!
                               Psi4 1.4a2.dev224
  @DF-RHF Final Energy:   -78.06466132525766
    Total Energy =                        -78.0646613252576600
  @DF-RHF Final Energy:   -78.06937191517375
    Total Energy =                        -78.0693719151737469
  @DF-RHF Final Energy:   -78.06467056694889
    Total Energy =                        -78.0646705669488910
  @DF-RHF Final Energy:   -78.06937550595258
    Total Energy =                        -78.0693755059525785
  @DF-RHF Final Energy:  -412.62458172778992
    Total Energy =                       -412.6245817277899164
  @DF-RHF Final Energy:  -412.65010984061661
    Total Energy =                       -412.6501098406166079
  @DF-RHF Final Energy:  -412.62457013377889
    Total Energy =                       -412.6245701337788887
  @DF-RHF Final Energy:  -412.65010474270690
    Total Energy =                       -412.6501047427069011
  Multiplicity = 1
  @DF-RHF Final Energy:  -490.68959612352552
    Total Energy =                       -490.6895961235255754
	 Singles Energy            =      -0.0000000000000000 [Eh]
	 Same-Spin Energy          =      -0.4908331427850457 [Eh]
	 Opposite-Spin Energy      =      -1.5252642970190906 [Eh]
	 Correlation Energy        =      -2.0160974398041365 [Eh]
	 Total Energy              =    -492.7056935633296462 [Eh]
	 SCS Total Energy          =    -492.6835243275434664 [Eh]
    Molecular point group: c1

    Geometry (in Angstrom), charge = 0, multiplicity = 1:

       Center              X                  Y                   Z               Mass
    ------------   -----------------  -----------------  -----------------  -----------------
         N           -0.056065611806    -0.983456615133    -1.233450023813    14.003074004430
         H           -0.058415611806    -1.994066615133    -1.217590023813     1.007825032230
         C           -1.314005611806    -0.365256615133    -1.263380023813    12.000000000000
         O           -2.332415611806    -1.035926615133    -1.273240023813    15.994914619570
         C           -1.242015611806     1.084673384867    -1.279630023813    12.000000000000
         H           -2.157935611806     1.648083384867    -1.322180023813     1.007825032230
         C           -0.040385611806     1.694463384867    -1.233710023813    12.000000000000
         H            0.065174388194     2.769103384867    -1.235530023813     1.007825032230
         N            1.129334388194     0.986903384867    -1.175570023813    14.003074004430
         H            2.018524388194     1.453393384867    -1.111720023813     1.007825032230
         C            1.187994388194    -0.395206615133    -1.151630023813    12.000000000000
         O            2.231204388194    -1.014566615133    -1.073220023813    15.994914619570
         C            0.793724388194     0.114473384867     4.851839976187    12.000000000000
         H            1.310844388194    -0.756516615133     4.474619976187     1.007825032230
         H            1.399344388194     0.901473384867     5.279159976187     1.007825032230
         C           -0.535045611806     0.215063384867     4.802599976187    12.000000000000
         H           -1.147055611806    -0.572416615133     4.385689976187     1.007825032230
         H           -1.046875611806     1.086133384867     5.186599976187     1.007825032230

  Charge       = 0
  Multiplicity = 1
  Basis Set: AUG-CC-PVQZ
    Blend: AUG-CC-PVQZ
  Basis Set: (AUG-CC-PVQZ AUX)
    Blend: AUG-CC-PVQZ-JKFIT

    Orbital Energies [Eh]
    ---------------------

    Doubly Occupied:

       1A    -20.544280     2A    -20.538783     3A    -15.642096
       4A    -15.625132     5A    -11.417441     6A    -11.379456
       7A    -11.339279     8A    -11.253784     9A    -11.231856
      10A    -11.230141    11A     -1.435495    12A     -1.396990
      13A     -1.313144    14A     -1.245466    15A     -1.088011
      16A     -1.035511    17A     -0.933520    18A     -0.901359
      19A     -0.807167    20A     -0.795018    21A     -0.765191
      22A     -0.714405    23A     -0.677368    24A     -0.669153
      25A     -0.652741    26A     -0.645853    27A     -0.614800
      28A     -0.601616    29A     -0.589464    30A     -0.570648
      31A     -0.525948    32A     -0.509936    33A     -0.483813
      34A     -0.449413    35A     -0.437056    36A     -0.378665
      37A     -0.368844

  @DF-RHF Final Energy:  -490.71982764794177

   => Energetics <=

    Nuclear Repulsion Energy =            467.7019307898548846
    One-Electron Energy =               -1595.2258124021723233
    Two-Electron Energy =                 636.8040539643756119
    Total Energy =                       -490.7198276479417700

  Dipole Moment: [D]
     X:     1.3243      Y:     4.8173      Z:     0.0094     Total:     4.9960

  Basis Set: (AUG-CC-PVQZ AUX)
    Blend: AUG-CC-PVQZ-RI
	 Reference Energy          =    -490.7198276479417700 [Eh]
	 Singles Energy            =      -0.0000000000000000 [Eh]
	 Same-Spin Energy          =      -0.5207300869027613 [Eh]
	 Opposite-Spin Energy      =      -1.7223895814570320 [Eh]
	 Correlation Energy        =      -2.2431196683597934 [Eh]
	 Total Energy              =    -492.9629473163015518 [Eh]

	 ================> DF-SCS-MP2 Energies <==================
	-----------------------------------------------------------
	 SCS Same-Spin Scale       =       0.3333333333333333 [-]
	 SCS Opposite-Spin Scale   =       1.2000000000000000 [-]
	 SCS Same-Spin Energy      =      -0.1735766956342538 [Eh]
	 SCS Opposite-Spin Energy  =      -2.0668674977484383 [Eh]
	 SCS Correlation Energy    =      -2.2404441933826922 [Eh]
	 SCS Total Energy          =    -492.9602718413244702 [Eh]
	-----------------------------------------------------------

*** Psi4 exiting successfully. Buy a developer a beer!
