                               Psi4 1.4a2.dev224

  ==> Input File <==

--------------------------------------------------------------------------
#Generated by lconvert.py for cbs job

memory 40 GB

molecule  {
0 1
  N       -0.0508740    -0.9800810     0.0339620
  H       -0.0532220    -1.9906940     0.0498220
  C       -1.3088130    -0.3618760     0.0040260
  O       -2.3272200    -1.0325550    -0.0058290
  C       -1.2368180     1.0880480    -0.0122240
  H       -2.1527390     1.6514600    -0.0547740
  C       -0.0351940     1.6978360     0.0337050
  H        0.0703660     2.7724760     0.0318820
  N        1.1345290     0.9902830     0.0918450
  H        2.0237200     1.4567720     0.1556930
  C        1.1931860    -0.3918330     0.1157750
  O        2.2363980    -1.0111880     0.1941860
--
0 1
  C        0.7304960     0.0307660     3.5657080
  H        1.2476140    -0.8402210     3.1884810
  H        1.3361070     0.8177600     3.9930220
  C       -0.5982800     0.1313570     3.5164610
  H       -1.2102830    -0.6561230     3.0995600
  H       -1.1101050     1.0024260     3.9004600
units angstrom
no_reorient
symmetry c1
}

set {
scf_type DF
mp2_type DF
e_convergence 7
reference rhf
}

energy('mp2/aug-cc-pv[tq]z', bsse_type='cp')
--------------------------------------------------------------------------

    Molecular point group: c1
  Charge       = 0
  Multiplicity = 1
  Basis Set: AUG-CC-PVTZ
    Blend: AUG-CC-PVTZ
  Basis Set: (AUG-CC-PVTZ AUX)
    Blend: AUG-CC-PVTZ-JKFIT
  @DF-RHF Final Energy:   -78.06466126688788
    Total Energy =                        -78.0646612668878817
  Basis Set: (AUG-CC-PVTZ AUX)
    Blend: AUG-CC-PVTZ-RI
	 Reference Energy          =     -78.0646612668878817 [Eh]
	 Singles Energy            =      -0.0000000000000000 [Eh]
	 Same-Spin Energy          =      -0.0765571379843136 [Eh]
	 Opposite-Spin Energy      =      -0.2985941685104730 [Eh]
	 Correlation Energy        =      -0.3751513064947866 [Eh]
	 Total Energy              =     -78.4398125733826674 [Eh]
	 SCS Total Energy          =     -78.4484933150952202 [Eh]
    Molecular point group: c1
  Basis Set: AUG-CC-PVQZ
    Blend: AUG-CC-PVQZ
  Basis Set: (AUG-CC-PVQZ AUX)
    Blend: AUG-CC-PVQZ-JKFIT
  @DF-RHF Final Energy:   -78.06937185880216
    Total Energy =                        -78.0693718588021568
  Basis Set: (AUG-CC-PVQZ AUX)
  @DF-RHF Final Energy:   -78.06474076447890
    Total Energy =                        -78.0647407644788984
  @DF-RHF Final Energy:   -78.06939715467722
    Total Energy =                        -78.0693971546772190
  @DF-RHF Final Energy:  -412.62474370982568
    Total Energy =                       -412.6247437098256796
  @DF-RHF Final Energy:  -412.65015435428387
    Total Energy =                       -412.6501543542838704
  @DF-RHF Final Energy:  -412.62457008152546
    Total Energy =                       -412.6245700815254622
  @DF-RHF Final Energy:  -412.65010468247766
    Total Energy =                       -412.6501046824776608
  Multiplicity = 1
  @DF-RHF Final Energy:  -490.68877501676405
    Total Energy =                       -490.6887750167639979
	 Singles Energy            =      -0.0000000000000000 [Eh]
	 Same-Spin Energy          =      -0.4942154177855441 [Eh]
	 Opposite-Spin Energy      =      -1.5305351477242550 [Eh]
	 Correlation Energy        =      -2.0247505655097990 [Eh]
	 Total Energy              =    -492.7135255822738600 [Eh]
	 SCS Total Energy          =    -492.6901556666283568 [Eh]
    Molecular point group: c1

    Geometry (in Angstrom), charge = 0, multiplicity = 1:

       Center              X                  Y                   Z               Mass
    ------------   -----------------  -----------------  -----------------  -----------------
         N           -0.042373115350    -0.966028095106    -0.722381514665    14.003074004430
         H           -0.044721115350    -1.976641095106    -0.706521514665     1.007825032230
         C           -1.300312115350    -0.347823095106    -0.752317514665    12.000000000000
         O           -2.318719115350    -1.018502095106    -0.762172514665    15.994914619570
         C           -1.228317115350     1.102100904894    -0.768567514665    12.000000000000
         H           -2.144238115350     1.665512904894    -0.811117514665     1.007825032230
         C           -0.026693115350     1.711888904894    -0.722638514665    12.000000000000
         H            0.078866884650     2.786528904894    -0.724461514665     1.007825032230
         N            1.143029884650     1.004335904894    -0.664498514665    14.003074004430
         H            2.032220884650     1.470824904894    -0.600650514665     1.007825032230
         C            1.201686884650    -0.377780095106    -0.640568514665    12.000000000000
         O            2.244898884650    -0.997135095106    -0.562157514665    15.994914619570
         C            0.738996884650     0.044818904894     2.809364485335    12.000000000000
         H            1.256114884650    -0.826168095106     2.432137485335     1.007825032230
         H            1.344607884650     0.831812904894     3.236678485335     1.007825032230
         C           -0.589779115350     0.145409904894     2.760117485335    12.000000000000
         H           -1.201782115350    -0.642070095106     2.343216485335     1.007825032230
         H           -1.101604115350     1.016478904894     3.144116485335     1.007825032230

  Charge       = 0
  Multiplicity = 1
  Basis Set: AUG-CC-PVQZ
    Blend: AUG-CC-PVQZ
  Basis Set: (AUG-CC-PVQZ AUX)
    Blend: AUG-CC-PVQZ-JKFIT

    Orbital Energies [Eh]
    ---------------------

    Doubly Occupied:

       1A    -20.543049     2A    -20.537811     3A    -15.639541
       4A    -15.623329     5A    -11.415928     6A    -11.378094
       7A    -11.336693     8A    -11.251028     9A    -11.233870
      10A    -11.231999    11A     -1.434095    12A     -1.396176
      13A     -1.310897    14A     -1.243659    15A     -1.085493
      16A     -1.038774    17A     -0.931297    18A     -0.899557
      19A     -0.804992    20A     -0.797749    21A     -0.763233
      22A     -0.712388    23A     -0.676156    24A     -0.669274
      25A     -0.651381    26A     -0.647222    27A     -0.613277
      28A     -0.599859    29A     -0.591657    30A     -0.569800
      31A     -0.524306    32A     -0.511511    33A     -0.482713
      34A     -0.448452    35A     -0.436470    36A     -0.383107
      37A     -0.365523

  @DF-RHF Final Energy:  -490.71884467697413

   => Energetics <=

    Nuclear Repulsion Energy =            513.4948764196653883
    One-Electron Energy =               -1686.8667141171265484
    Two-Electron Energy =                 682.6529930204869743
    Total Energy =                       -490.7188446769741859

  Dipole Moment: [D]
     X:     1.3161      Y:     4.8239      Z:     0.1035     Total:     5.0013

  Basis Set: (AUG-CC-PVQZ AUX)
    Blend: AUG-CC-PVQZ-RI
	 Reference Energy          =    -490.7188446769741290 [Eh]
	 Singles Energy            =      -0.0000000000000000 [Eh]
	 Same-Spin Energy          =      -0.5240183813224066 [Eh]
	 Opposite-Spin Energy      =      -1.7263989754742171 [Eh]
	 Correlation Energy        =      -2.2504173567966239 [Eh]
	 Total Energy              =    -492.9692620337707467 [Eh]

	 ================> DF-SCS-MP2 Energies <==================
	-----------------------------------------------------------
	 SCS Same-Spin Scale       =       0.3333333333333333 [-]
	 SCS Opposite-Spin Scale   =       1.2000000000000000 [-]
	 SCS Same-Spin Energy      =      -0.1746727937741355 [Eh]
	 SCS Opposite-Spin Energy  =      -2.0716787705690605 [Eh]
	 SCS Correlation Energy    =      -2.2463515643431959 [Eh]
	 SCS Total Energy          =    -492.9651962413173010 [Eh]
	-----------------------------------------------------------

*** Psi4 exiting successfully. Buy a developer a beer!
