                               Psi4 1.4a2.dev224

  ==> Input File <==

--------------------------------------------------------------------------
#Generated by lconvert.py for cbs job

memory 20 GB

molecule  {
0 1
  N      -0.050870   -0.980080    0.033960
  H      -0.053220   -1.990690    0.049820
  C      -1.308810   -0.361880    0.004030
  O      -2.327220   -1.032550   -0.005830
  C      -1.236820    1.088050   -0.012220
  H      -2.152740    1.651460   -0.054770
  C      -0.035190    1.697840    0.033700
  H       0.070370    2.772480    0.031880
  N       1.134530    0.990280    0.091840
  H       2.023720    1.456770    0.155690
  C       1.193190   -0.391830    0.115780
  O       2.236400   -1.011190    0.194190
--
0 1
  C       0.774770    0.087110    5.217940
  H       1.291890   -0.783870    4.840710
  H       1.380380    0.874110    5.645250
  C      -0.554000    0.187700    5.168690
  H      -1.166010   -0.599780    4.751790
  H      -1.065830    1.058770    5.552690
units angstrom
no_reorient
symmetry c1
}

set {
scf_type DF
mp2_type DF
e_convergence 7
reference rhf
}

energy('mp2/aug-cc-pv[tq]z', bsse_type='cp')
--------------------------------------------------------------------------

    Molecular point group: c1
  Charge       = 0
  Multiplicity = 1
  Basis Set: AUG-CC-PVTZ
    Blend: AUG-CC-PVTZ
  Basis Set: (AUG-CC-PVTZ AUX)
    Blend: AUG-CC-PVTZ-JKFIT
  @DF-RHF Final Energy:   -78.06466148440622
    Total Energy =                        -78.0646614844062157
  Basis Set: (AUG-CC-PVTZ AUX)
    Blend: AUG-CC-PVTZ-RI
	 Reference Energy          =     -78.0646614844062157 [Eh]
	 Singles Energy            =      -0.0000000000000000 [Eh]
	 Same-Spin Energy          =      -0.0765571055752583 [Eh]
	 Opposite-Spin Energy      =      -0.2985940179097416 [Eh]
	 Correlation Energy        =      -0.3751511234849999 [Eh]
	 Total Energy              =     -78.4398126078912128 [Eh]
	 SCS Total Energy          =     -78.4484933410896588 [Eh]
    Molecular point group: c1
  Basis Set: AUG-CC-PVQZ
    Blend: AUG-CC-PVQZ
  Basis Set: (AUG-CC-PVQZ AUX)
    Blend: AUG-CC-PVQZ-JKFIT
  @DF-RHF Final Energy:   -78.06937208437691
    Total Energy =                        -78.0693720843769086
  Basis Set: (AUG-CC-PVQZ AUX)
  @DF-RHF Final Energy:   -78.06468011520067
    Total Energy =                        -78.0646801152006731
  @DF-RHF Final Energy:   -78.06938137450886
    Total Energy =                        -78.0693813745088647
  @DF-RHF Final Energy:  -412.62459972543064
    Total Energy =                       -412.6245997254306417
  @DF-RHF Final Energy:  -412.65011700486093
    Total Energy =                       -412.6501170048609310
  @DF-RHF Final Energy:  -412.62457013197542
    Total Energy =                       -412.6245701319754176
  @DF-RHF Final Energy:  -412.65010474525053
    Total Energy =                       -412.6501047452505304
  Multiplicity = 1
  @DF-RHF Final Energy:  -490.68986542204880
    Total Energy =                       -490.6898654220487970
	 Singles Energy            =      -0.0000000000000000 [Eh]
	 Same-Spin Energy          =      -0.4910822618854137 [Eh]
	 Opposite-Spin Energy      =      -1.5256826978828364 [Eh]
	 Correlation Energy        =      -2.0167649597682500 [Eh]
	 Total Energy              =    -492.7066303818170354 [Eh]
	 SCS Total Energy          =    -492.6843787468033611 [Eh]
    Molecular point group: c1

    Geometry (in Angstrom), charge = 0, multiplicity = 1:

       Center              X                  Y                   Z               Mass
    ------------   -----------------  -----------------  -----------------  -----------------
         N           -0.051232162913    -0.977304388664    -1.053060919455    14.003074004430
         H           -0.053582162913    -1.987914388664    -1.037200919455     1.007825032230
         C           -1.309172162913    -0.359104388664    -1.082990919455    12.000000000000
         O           -2.327582162913    -1.029774388664    -1.092850919455    15.994914619570
         C           -1.237182162913     1.090825611336    -1.099240919455    12.000000000000
         H           -2.153102162913     1.654235611336    -1.141790919455     1.007825032230
         C           -0.035552162913     1.700615611336    -1.053320919455    12.000000000000
         H            0.070007837087     2.775255611336    -1.055140919455     1.007825032230
         N            1.134167837087     0.993055611336    -0.995180919455    14.003074004430
         H            2.023357837087     1.459545611336    -0.931330919455     1.007825032230
         C            1.192827837087    -0.389054388664    -0.971240919455    12.000000000000
         O            2.236037837087    -1.008414388664    -0.892830919455    15.994914619570
         C            0.774407837087     0.089885611336     4.130919080545    12.000000000000
         H            1.291527837087    -0.781094388664     3.753689080545     1.007825032230
         H            1.380017837087     0.876885611336     4.558229080545     1.007825032230
         C           -0.554362162913     0.190475611336     4.081669080545    12.000000000000
         H           -1.166372162913    -0.597004388664     3.664769080545     1.007825032230
         H           -1.066192162913     1.061545611336     4.465669080545     1.007825032230

  Charge       = 0
  Multiplicity = 1
  Basis Set: AUG-CC-PVQZ
    Blend: AUG-CC-PVQZ
  Basis Set: (AUG-CC-PVQZ AUX)
    Blend: AUG-CC-PVQZ-JKFIT

    Orbital Energies [Eh]
    ---------------------

    Doubly Occupied:

       1A    -20.543906     2A    -20.538430     3A    -15.641504
       4A    -15.624733     5A    -11.417032     6A    -11.379078
       7A    -11.338715     8A    -11.253161     9A    -11.232504
      10A    -11.230788    11A     -1.435081    12A     -1.396661
      13A     -1.312607    14A     -1.245016    15A     -1.087421
      16A     -1.036235    17A     -0.932985    18A     -0.900902
      19A     -0.806641    20A     -0.795621    21A     -0.764696
      22A     -0.713914    23A     -0.676996    24A     -0.668615
      25A     -0.652336    26A     -0.646514    27A     -0.614377
      28A     -0.601148    29A     -0.590072    30A     -0.570259
      31A     -0.525383    32A     -0.510520    33A     -0.483453
      34A     -0.449074    35A     -0.436749    36A     -0.379522
      37A     -0.368232

  @DF-RHF Final Energy:  -490.72008163174741

   => Energetics <=

    Nuclear Repulsion Energy =            479.6342061799520025
    One-Electron Energy =               -1619.1067936592355636
    Two-Electron Energy =                 648.7525058475359856
    Total Energy =                       -490.7200816317474619

  Dipole Moment: [D]
     X:     1.3230      Y:     4.8117      Z:     0.0394     Total:     4.9904

  Basis Set: (AUG-CC-PVQZ AUX)
    Blend: AUG-CC-PVQZ-RI
	 Reference Energy          =    -490.7200816317474050 [Eh]
	 Singles Energy            =      -0.0000000000000000 [Eh]
	 Same-Spin Energy          =      -0.5209669197694371 [Eh]
	 Opposite-Spin Energy      =      -1.7226634564830943 [Eh]
	 Correlation Energy        =      -2.2436303762525314 [Eh]
	 Total Energy              =    -492.9637120079999590 [Eh]

	 ================> DF-SCS-MP2 Energies <==================
	-----------------------------------------------------------
	 SCS Same-Spin Scale       =       0.3333333333333333 [-]
	 SCS Opposite-Spin Scale   =       1.2000000000000000 [-]
	 SCS Same-Spin Energy      =      -0.1736556399231457 [Eh]
	 SCS Opposite-Spin Energy  =      -2.0671961477797129 [Eh]
	 SCS Correlation Energy    =      -2.2408517877028586 [Eh]
	 SCS Total Energy          =    -492.9609334194502708 [Eh]
	-----------------------------------------------------------

*** Psi4 exiting successfully. Buy a developer a beer!
