                               Psi4 1.4a2.dev224

  ==> Input File <==

--------------------------------------------------------------------------
#Generated by lconvert.py for cbs job

memory 20 GB

molecule  {
0 1
  N      -0.050870   -0.980080    0.033960
  H      -0.053220   -1.990690    0.049820
  C      -1.308810   -0.361880    0.004030
  O      -2.327220   -1.032550   -0.005830
  C      -1.236820    1.088050   -0.012220
  H      -2.152740    1.651460   -0.054770
  C      -0.035190    1.697840    0.033700
  H       0.070370    2.772480    0.031880
  N       1.134530    0.990280    0.091840
  H       2.023720    1.456770    0.155690
  C       1.193190   -0.391830    0.115780
  O       2.236400   -1.011190    0.194190
--
0 1
  C       0.750620    0.056380    4.316620
  H       1.267740   -0.814610    3.939400
  H       1.356230    0.843370    4.743940
  C      -0.578160    0.156970    4.267380
  H      -1.190160   -0.630510    3.850480
  H      -1.089980    1.028040    4.651380
units angstrom
no_reorient
symmetry c1
}

set {
scf_type DF
mp2_type DF
e_convergence 7
reference rhf
}

energy('mp2/aug-cc-pv[tq]z', bsse_type='cp')
--------------------------------------------------------------------------

    Molecular point group: c1
  Charge       = 0
  Multiplicity = 1
  Basis Set: AUG-CC-PVTZ
    Blend: AUG-CC-PVTZ
  Basis Set: (AUG-CC-PVTZ AUX)
    Blend: AUG-CC-PVTZ-JKFIT
  @DF-RHF Final Energy:   -78.06466112513803
    Total Energy =                        -78.0646611251380307
  Basis Set: (AUG-CC-PVTZ AUX)
    Blend: AUG-CC-PVTZ-RI
	 Reference Energy          =     -78.0646611251380307 [Eh]
	 Singles Energy            =      -0.0000000000000000 [Eh]
	 Same-Spin Energy          =      -0.0765571572419344 [Eh]
	 Opposite-Spin Energy      =      -0.2985942611310022 [Eh]
	 Correlation Energy        =      -0.3751514183729367 [Eh]
	 Total Energy              =     -78.4398125435109677 [Eh]
	 SCS Total Energy          =     -78.4484932909092123 [Eh]
    Molecular point group: c1
  Basis Set: AUG-CC-PVQZ
    Blend: AUG-CC-PVQZ
  Basis Set: (AUG-CC-PVQZ AUX)
    Blend: AUG-CC-PVQZ-JKFIT
  @DF-RHF Final Energy:   -78.06937171207225
    Total Energy =                        -78.0693717120722397
  Basis Set: (AUG-CC-PVQZ AUX)
  @DF-RHF Final Energy:   -78.06470891187226
    Total Energy =                        -78.0647089118722590
  @DF-RHF Final Energy:   -78.06938717411538
    Total Energy =                        -78.0693871741153771
  @DF-RHF Final Energy:  -412.62465408480142
    Total Energy =                       -412.6246540848014206
  @DF-RHF Final Energy:  -412.65013207135644
    Total Energy =                       -412.6501320713564382
  @DF-RHF Final Energy:  -412.62457013530701
    Total Energy =                       -412.6245701353070103
  @DF-RHF Final Energy:  -412.65010474289420
    Total Energy =                       -412.6501047428942002
  Multiplicity = 1
  @DF-RHF Final Energy:  -490.69022371091893
    Total Energy =                       -490.6902237109188718
	 Singles Energy            =      -0.0000000000000000 [Eh]
	 Same-Spin Energy          =      -0.4919255153799055 [Eh]
	 Opposite-Spin Energy      =      -1.5270572130394626 [Eh]
	 Correlation Energy        =      -2.0189827284193682 [Eh]
	 Total Energy              =    -492.7092064393382884 [Eh]
	 SCS Total Energy          =    -492.6866675383595862 [Eh]
    Molecular point group: c1

    Geometry (in Angstrom), charge = 0, multiplicity = 1:

       Center              X                  Y                   Z               Mass
    ------------   -----------------  -----------------  -----------------  -----------------
         N           -0.046397929194    -0.971153947721    -0.872672030969    14.003074004430
         H           -0.048747929194    -1.981763947721    -0.856812030969     1.007825032230
         C           -1.304337929194    -0.352953947721    -0.902602030969    12.000000000000
         O           -2.322747929194    -1.023623947721    -0.912462030969    15.994914619570
         C           -1.232347929194     1.096976052279    -0.918852030969    12.000000000000
         H           -2.148267929194     1.660386052279    -0.961402030969     1.007825032230
         C           -0.030717929194     1.706766052279    -0.872932030969    12.000000000000
         H            0.074842070806     2.781406052279    -0.874752030969     1.007825032230
         N            1.139002070806     0.999206052279    -0.814792030969    14.003074004430
         H            2.028192070806     1.465696052279    -0.750942030969     1.007825032230
         C            1.197662070806    -0.382903947721    -0.790852030969    12.000000000000
         O            2.240872070806    -1.002263947721    -0.712442030969    15.994914619570
         C            0.755092070806     0.065306052279     3.409987969031    12.000000000000
         H            1.272212070806    -0.805683947721     3.032767969031     1.007825032230
         H            1.360702070806     0.852296052279     3.837307969031     1.007825032230
         C           -0.573687929194     0.165896052279     3.360747969031    12.000000000000
         H           -1.185687929194    -0.621583947721     2.943847969031     1.007825032230
         H           -1.085507929194     1.036966052279     3.744747969031     1.007825032230

  Charge       = 0
  Multiplicity = 1
  Basis Set: AUG-CC-PVQZ
    Blend: AUG-CC-PVQZ
  Basis Set: (AUG-CC-PVQZ AUX)
    Blend: AUG-CC-PVQZ-JKFIT

    Orbital Energies [Eh]
    ---------------------

    Doubly Occupied:

       1A    -20.543395     2A    -20.537968     3A    -15.640532
       4A    -15.624102     5A    -11.416429     6A    -11.378522
       7A    -11.337779     8A    -11.252115     9A    -11.233493
      10A    -11.231762    11A     -1.434481    12A     -1.396245
      13A     -1.311736    14A     -1.244309    15A     -1.086448
      16A     -1.037462    17A     -0.932125    18A     -0.900189
      19A     -0.805799    20A     -0.796621    21A     -0.763923
      22A     -0.713142    23A     -0.676472    24A     -0.667915
      25A     -0.651756    26A     -0.647531    27A     -0.613748
      28A     -0.600435    29A     -0.591024    30A     -0.569747
      31A     -0.524528    32A     -0.511430    33A     -0.482968
      34A     -0.448626    35A     -0.436375    36A     -0.381165
      37A     -0.367098

  @DF-RHF Final Energy:  -490.72037963036280

   => Energetics <=

    Nuclear Repulsion Energy =            495.5902394313981176
    One-Electron Energy =               -1651.0424365899918939
    Two-Electron Energy =                 664.7318175282308630
    Total Energy =                       -490.7203796303627996

  Dipole Moment: [D]
     X:     1.3213      Y:     4.8104      Z:     0.0852     Total:     4.9893

  Basis Set: (AUG-CC-PVQZ AUX)
    Blend: AUG-CC-PVQZ-RI
	 Reference Energy          =    -490.7203796303627996 [Eh]
	 Singles Energy            =      -0.0000000000000000 [Eh]
	 Same-Spin Energy          =      -0.5217758083825887 [Eh]
	 Opposite-Spin Energy      =      -1.7236365540484730 [Eh]
	 Correlation Energy        =      -2.2454123624310620 [Eh]
	 Total Energy              =    -492.9657919927938678 [Eh]

	 ================> DF-SCS-MP2 Energies <==================
	-----------------------------------------------------------
	 SCS Same-Spin Scale       =       0.3333333333333333 [-]
	 SCS Opposite-Spin Scale   =       1.2000000000000000 [-]
	 SCS Same-Spin Energy      =      -0.1739252694608629 [Eh]
	 SCS Opposite-Spin Energy  =      -2.0683638648581675 [Eh]
	 SCS Correlation Energy    =      -2.2422891343190305 [Eh]
	 SCS Total Energy          =    -492.9626687646818368 [Eh]
	-----------------------------------------------------------

*** Psi4 exiting successfully. Buy a developer a beer!
