                               Psi4 1.4a2.dev224

  ==> Input File <==

--------------------------------------------------------------------------
#Generated by lconvert.py for cbs job

memory 40 GB

molecule  {
0 1
  N        1.3813820    -0.0002330     0.1314640
  C        0.6793510    -1.1402390     0.0920800
  H        1.2587200    -2.0549620     0.1258840
  C       -0.7097220    -1.1931140     0.0066640
  H       -1.2140880    -2.1485620    -0.0253090
  C       -1.4216140     0.0001330    -0.0408170
  H       -2.5006960     0.0002580    -0.1091700
  C       -0.7094010     1.1931750     0.0065220
  H       -1.2135120     2.1487480    -0.0255280
  C        0.6796520     1.1399560     0.0918930
  H        1.2592610     2.0545110     0.1255020
--
0 1
  C        0.0205970     0.6664440     3.5975530
  H        0.9310710     1.2259300     3.4384390
  H       -0.8889500     1.2288480     3.7545140
  C        0.0209300    -0.6662430     3.5976860
  H        0.9316650    -1.2253260     3.4386750
  H       -0.8883580    -1.2290680     3.7547750
units angstrom
no_reorient
symmetry c1
}

set {
scf_type DF
mp2_type DF
e_convergence 7
reference rhf
}

energy('mp2/aug-cc-pv[tq]z', bsse_type='cp')
--------------------------------------------------------------------------

    Molecular point group: c1
  Charge       = 0
  Multiplicity = 1
  Basis Set: AUG-CC-PVTZ
    Blend: AUG-CC-PVTZ
  Basis Set: (AUG-CC-PVTZ AUX)
    Blend: AUG-CC-PVTZ-JKFIT
  @DF-RHF Final Energy:   -78.06470377454350
    Total Energy =                        -78.0647037745434886
  Basis Set: (AUG-CC-PVTZ AUX)
    Blend: AUG-CC-PVTZ-RI
	 Reference Energy          =     -78.0647037745435028 [Eh]
	 Singles Energy            =      -0.0000000000000000 [Eh]
	 Same-Spin Energy          =      -0.0765609901601157 [Eh]
	 Opposite-Spin Energy      =      -0.2985733210529528 [Eh]
	 Correlation Energy        =      -0.3751343112130685 [Eh]
	 Total Energy              =     -78.4398380857565769 [Eh]
	 SCS Total Energy          =     -78.4485120898604151 [Eh]
    Molecular point group: c1
  Basis Set: AUG-CC-PVQZ
    Blend: AUG-CC-PVQZ
  Basis Set: (AUG-CC-PVQZ AUX)
    Blend: AUG-CC-PVQZ-JKFIT
  @DF-RHF Final Energy:   -78.06941661876418
    Total Energy =                        -78.0694166187641940
  Basis Set: (AUG-CC-PVQZ AUX)
  @DF-RHF Final Energy:   -78.06477572200508
    Total Energy =                        -78.0647757220050806
  @DF-RHF Final Energy:   -78.06944028666221
    Total Energy =                        -78.0694402866622141
  @DF-RHF Final Energy:  -246.77885864732045
    Total Energy =                       -246.7788586473204191
  @DF-RHF Final Energy:  -246.79292704905538
    Total Energy =                       -246.7929270490553790
  @DF-RHF Final Energy:  -246.77875530093098
    Total Energy =                       -246.7787553009309818
  @DF-RHF Final Energy:  -246.79289973524013
    Total Energy =                       -246.7928997352400984
  Multiplicity = 1
  @DF-RHF Final Energy:  -324.84043688410139
    Total Energy =                       -324.8404368841013934
	 Singles Energy            =      -0.0000000000000000 [Eh]
	 Same-Spin Energy          =      -0.3489306710667888 [Eh]
	 Opposite-Spin Energy      =      -1.1428618620890250 [Eh]
	 Correlation Energy        =      -1.4917925331558137 [Eh]
	 Total Energy              =    -326.3322294172572242 [Eh]
	 SCS Total Energy          =    -326.3281813422971709 [Eh]
    Molecular point group: c1

    Geometry (in Angstrom), charge = 0, multiplicity = 1:

       Center              X                  Y                   Z               Mass
    ------------   -----------------  -----------------  -----------------  -----------------
         N            1.384015414834    -0.000218628879    -0.845910830572    14.003074004430
         C            0.681984414834    -1.140224628879    -0.885294830572    12.000000000000
         H            1.261353414834    -2.054947628879    -0.851490830572     1.007825032230
         C           -0.707088585166    -1.193099628879    -0.970710830572    12.000000000000
         H           -1.211454585166    -2.148547628879    -1.002683830572     1.007825032230
         C           -1.418980585166     0.000147371121    -1.018191830572    12.000000000000
         H           -2.498062585166     0.000272371121    -1.086544830572     1.007825032230
         C           -0.706767585166     1.193189371121    -0.970852830572    12.000000000000
         H           -1.210878585166     2.148762371121    -1.002902830572     1.007825032230
         C            0.682285414834     1.139970371121    -0.885481830572    12.000000000000
         H            1.261894414834     2.054525371121    -0.851872830572     1.007825032230
         C            0.023230414834     0.666458371121     2.620178169428    12.000000000000
         H            0.933704414834     1.225944371121     2.461064169428     1.007825032230
         H           -0.886316585166     1.228862371121     2.777139169428     1.007825032230
         C            0.023563414834    -0.666228628879     2.620311169428    12.000000000000
         H            0.934298414834    -1.225311628879     2.461300169428     1.007825032230
         H           -0.885724585166    -1.229053628879     2.777400169428     1.007825032230

  Charge       = 0
  Multiplicity = 1
  Basis Set: AUG-CC-PVQZ
    Blend: AUG-CC-PVQZ
  Basis Set: (AUG-CC-PVQZ AUX)
    Blend: AUG-CC-PVQZ-JKFIT

    Orbital Energies [Eh]
    ---------------------

    Doubly Occupied:

       1A    -15.562341     2A    -11.271989     3A    -11.271972
       4A    -11.256404     5A    -11.238711     6A    -11.238657
       7A    -11.222314     8A    -11.220590     9A     -1.254170
      10A     -1.087366    11A     -1.031062    12A     -1.027055
      13A     -0.857155    14A     -0.853770    15A     -0.786616
      16A     -0.720087    17A     -0.658544    18A     -0.652482
      19A     -0.638173    20A     -0.596119    21A     -0.580681
      22A     -0.575292    23A     -0.539853    24A     -0.518115
      25A     -0.502181    26A     -0.417979    27A     -0.382493
      28A     -0.367834    29A     -0.345361

  @DF-RHF Final Energy:  -324.85917625931313

   => Energetics <=

    Nuclear Repulsion Energy =            329.7614005619651039
    One-Electron Energy =               -1091.8904134181673271
    Two-Electron Energy =                 437.2698365968891494
    Total Energy =                       -324.8591762593131307

  Dipole Moment: [D]
     X:    -2.3009      Y:     0.0003      Z:    -0.2070     Total:     2.3102

  Basis Set: (AUG-CC-PVQZ AUX)
    Blend: AUG-CC-PVQZ-RI
	 Reference Energy          =    -324.8591762593131307 [Eh]
	 Singles Energy            =      -0.0000000000000000 [Eh]
	 Same-Spin Energy          =      -0.3690716431068071 [Eh]
	 Opposite-Spin Energy      =      -1.2808121900392933 [Eh]
	 Correlation Energy        =      -1.6498838331461003 [Eh]
	 Total Energy              =    -326.5090600924592081 [Eh]

	 ================> DF-SCS-MP2 Energies <==================
	-----------------------------------------------------------
	 SCS Same-Spin Scale       =       0.3333333333333333 [-]
	 SCS Opposite-Spin Scale   =       1.2000000000000000 [-]
	 SCS Same-Spin Energy      =      -0.1230238810356024 [Eh]
	 SCS Opposite-Spin Energy  =      -1.5369746280471519 [Eh]
	 SCS Correlation Energy    =      -1.6599985090827543 [Eh]
	 SCS Total Energy          =    -326.5191747683958852 [Eh]
	-----------------------------------------------------------

*** Psi4 exiting successfully. Buy a developer a beer!
