                               Psi4 1.4a2.dev224

  ==> Input File <==

--------------------------------------------------------------------------
#Generated by lconvert.py for cbs job

memory 40 GB

molecule  {
0 1
  N        1.3813820    -0.0002330     0.1314640
  C        0.6793510    -1.1402390     0.0920800
  H        1.2587200    -2.0549620     0.1258840
  C       -0.7097220    -1.1931140     0.0066640
  H       -1.2140880    -2.1485620    -0.0253090
  C       -1.4216140     0.0001330    -0.0408170
  H       -2.5006960     0.0002580    -0.1091700
  C       -0.7094010     1.1931750     0.0065220
  H       -1.2135120     2.1487480    -0.0255280
  C        0.6796520     1.1399560     0.0918930
  H        1.2592610     2.0545110     0.1255020
--
0 1
  C        0.0191540     0.6664370     3.4371830
  H        0.9296280     1.2259230     3.2780680
  H       -0.8903940     1.2288410     3.5941430
  C        0.0194860    -0.6662500     3.4373150
  H        0.9302220    -1.2253330     3.2783040
  H       -0.8898020    -1.2290750     3.5944040
units angstrom
no_reorient
symmetry c1
}

set {
scf_type DF
mp2_type DF
e_convergence 7
reference rhf
}

energy('mp2/aug-cc-pv[tq]z', bsse_type='cp')
--------------------------------------------------------------------------

    Molecular point group: c1
  Charge       = 0
  Multiplicity = 1
  Basis Set: AUG-CC-PVTZ
    Blend: AUG-CC-PVTZ
  Basis Set: (AUG-CC-PVTZ AUX)
    Blend: AUG-CC-PVTZ-JKFIT
  @DF-RHF Final Energy:   -78.06470375714285
    Total Energy =                        -78.0647037571428370
  Basis Set: (AUG-CC-PVTZ AUX)
    Blend: AUG-CC-PVTZ-RI
	 Reference Energy          =     -78.0647037571428513 [Eh]
	 Singles Energy            =      -0.0000000000000000 [Eh]
	 Same-Spin Energy          =      -0.0765609916784386 [Eh]
	 Opposite-Spin Energy      =      -0.2985733301645255 [Eh]
	 Correlation Energy        =      -0.3751343218429640 [Eh]
	 Total Energy              =     -78.4398380789858152 [Eh]
	 SCS Total Energy          =     -78.4485120838997574 [Eh]
    Molecular point group: c1
  Basis Set: AUG-CC-PVQZ
    Blend: AUG-CC-PVQZ
  Basis Set: (AUG-CC-PVQZ AUX)
    Blend: AUG-CC-PVQZ-JKFIT
  @DF-RHF Final Energy:   -78.06941660045365
    Total Energy =                        -78.0694166004536498
  Basis Set: (AUG-CC-PVQZ AUX)
  @DF-RHF Final Energy:   -78.06478429877764
    Total Energy =                        -78.0647842987776386
  @DF-RHF Final Energy:   -78.06944319709203
    Total Energy =                        -78.0694431970920277
  @DF-RHF Final Energy:  -246.77887220373668
    Total Energy =                       -246.7788722037366824
  @DF-RHF Final Energy:  -246.79293078868184
    Total Energy =                       -246.7929307886818151
  @DF-RHF Final Energy:  -246.77875530101520
    Total Energy =                       -246.7787553010151669
  @DF-RHF Final Energy:  -246.79289973519352
    Total Energy =                       -246.7928997351935436
  Multiplicity = 1
  @DF-RHF Final Energy:  -324.83889256396378
    Total Energy =                       -324.8388925639637819
	 Singles Energy            =      -0.0000000000000000 [Eh]
	 Same-Spin Energy          =      -0.3498548636463440 [Eh]
	 Opposite-Spin Energy      =      -1.1441757516946245 [Eh]
	 Correlation Energy        =      -1.4940306153409684 [Eh]
	 Total Energy              =    -326.3329231793047711 [Eh]
	 SCS Total Energy          =    -326.3285217538794427 [Eh]
    Molecular point group: c1

    Geometry (in Angstrom), charge = 0, multiplicity = 1:

       Center              X                  Y                   Z               Mass
    ------------   -----------------  -----------------  -----------------  -----------------
         N            1.384393315827    -0.000216796315    -0.803926626613    14.003074004430
         C            0.682362315827    -1.140222796315    -0.843310626613    12.000000000000
         H            1.261731315827    -2.054945796315    -0.809506626613     1.007825032230
         C           -0.706710684173    -1.193097796315    -0.928726626613    12.000000000000
         H           -1.211076684173    -2.148545796315    -0.960699626613     1.007825032230
         C           -1.418602684173     0.000149203685    -0.976207626613    12.000000000000
         H           -2.497684684173     0.000274203685    -1.044560626613     1.007825032230
         C           -0.706389684173     1.193191203685    -0.928868626613    12.000000000000
         H           -1.210500684173     2.148764203685    -0.960918626613     1.007825032230
         C            0.682663315827     1.139972203685    -0.843497626613    12.000000000000
         H            1.262272315827     2.054527203685    -0.809888626613     1.007825032230
         C            0.022165315827     0.666453203685     2.501792373387    12.000000000000
         H            0.932639315827     1.225939203685     2.342677373387     1.007825032230
         H           -0.887382684173     1.228857203685     2.658752373387     1.007825032230
         C            0.022497315827    -0.666233796315     2.501924373387    12.000000000000
         H            0.933233315827    -1.225316796315     2.342913373387     1.007825032230
         H           -0.886790684173    -1.229058796315     2.659013373387     1.007825032230

  Charge       = 0
  Multiplicity = 1
  Basis Set: AUG-CC-PVQZ
    Blend: AUG-CC-PVQZ
  Basis Set: (AUG-CC-PVQZ AUX)
    Blend: AUG-CC-PVQZ-JKFIT

    Orbital Energies [Eh]
    ---------------------

    Doubly Occupied:

       1A    -15.562142     2A    -11.272048     3A    -11.272032
       4A    -11.256210     5A    -11.238684     6A    -11.238630
       7A    -11.221259     8A    -11.219534     9A     -1.254171
      10A     -1.087328    11A     -1.031145    12A     -1.026328
      13A     -0.857200    14A     -0.853810    15A     -0.786040
      16A     -0.720135    17A     -0.658541    18A     -0.652613
      19A     -0.637536    20A     -0.596193    21A     -0.580080
      22A     -0.575236    23A     -0.540304    24A     -0.518176
      25A     -0.501537    26A     -0.417981    27A     -0.382742
      28A     -0.366104    29A     -0.345437

  @DF-RHF Final Energy:  -324.85761819202861

   => Energetics <=

    Nuclear Repulsion Energy =            333.2187168624086553
    One-Electron Energy =               -1098.8143105509368525
    Two-Electron Energy =                 440.7379754964995868
    Total Energy =                       -324.8576181920286103

  Dipole Moment: [D]
     X:    -2.3021      Y:     0.0003      Z:    -0.2296     Total:     2.3135

  Basis Set: (AUG-CC-PVQZ AUX)
    Blend: AUG-CC-PVQZ-RI
	 Reference Energy          =    -324.8576181920286103 [Eh]
	 Singles Energy            =      -0.0000000000000000 [Eh]
	 Same-Spin Energy          =      -0.3699886265988666 [Eh]
	 Opposite-Spin Energy      =      -1.2819827546377753 [Eh]
	 Correlation Energy        =      -1.6519713812366419 [Eh]
	 Total Energy              =    -326.5095895732652593 [Eh]

	 ================> DF-SCS-MP2 Energies <==================
	-----------------------------------------------------------
	 SCS Same-Spin Scale       =       0.3333333333333333 [-]
	 SCS Opposite-Spin Scale   =       1.2000000000000000 [-]
	 SCS Same-Spin Energy      =      -0.1233295421996222 [Eh]
	 SCS Opposite-Spin Energy  =      -1.5383793055653303 [Eh]
	 SCS Correlation Energy    =      -1.6617088477649524 [Eh]
	 SCS Total Energy          =    -326.5193270397935521 [Eh]
	-----------------------------------------------------------

*** Psi4 exiting successfully. Buy a developer a beer!
