                               Psi4 1.4a2.dev224

  ==> Input File <==

--------------------------------------------------------------------------
#Generated by lconvert.py for cbs job

memory 40 GB

molecule  {
0 1
  N        1.3813820    -0.0002330     0.1314640
  C        0.6793510    -1.1402390     0.0920800
  H        1.2587200    -2.0549620     0.1258840
  C       -0.7097220    -1.1931140     0.0066640
  H       -1.2140880    -2.1485620    -0.0253090
  C       -1.4216140     0.0001330    -0.0408170
  H       -2.5006960     0.0002580    -0.1091700
  C       -0.7094010     1.1931750     0.0065220
  H       -1.2135120     2.1487480    -0.0255280
  C        0.6796520     1.1399560     0.0918930
  H        1.2592610     2.0545110     0.1255020
--
0 1
  C        0.0104880     0.6663950     2.4743070
  H        0.9209620     1.2258810     2.3151920
  H       -0.8990590     1.2287990     2.6312680
  C        0.0108210    -0.6662920     2.4744390
  H        0.9215570    -1.2253750     2.3154290
  H       -0.8984670    -1.2291170     2.6315280
units angstrom
no_reorient
symmetry c1
}

set {
scf_type DF
mp2_type DF
e_convergence 7
reference rhf
}

energy('mp2/aug-cc-pv[tq]z', bsse_type='cp')
--------------------------------------------------------------------------

    Molecular point group: c1
  Charge       = 0
  Multiplicity = 1
  Basis Set: AUG-CC-PVTZ
    Blend: AUG-CC-PVTZ
  Basis Set: (AUG-CC-PVTZ AUX)
    Blend: AUG-CC-PVTZ-JKFIT
  @DF-RHF Final Energy:   -78.06470376621103
    Total Energy =                        -78.0647037662110108
  Basis Set: (AUG-CC-PVTZ AUX)
    Blend: AUG-CC-PVTZ-RI
	 Reference Energy          =     -78.0647037662110250 [Eh]
	 Singles Energy            =      -0.0000000000000000 [Eh]
	 Same-Spin Energy          =      -0.0765609909140164 [Eh]
	 Opposite-Spin Energy      =      -0.2985733256116195 [Eh]
	 Correlation Energy        =      -0.3751343165256359 [Eh]
	 Total Energy              =     -78.4398380827366566 [Eh]
	 SCS Total Energy          =     -78.4485120872496395 [Eh]
    Molecular point group: c1
  Basis Set: AUG-CC-PVQZ
    Blend: AUG-CC-PVQZ
  Basis Set: (AUG-CC-PVQZ AUX)
    Blend: AUG-CC-PVQZ-JKFIT
  @DF-RHF Final Energy:   -78.06941660995201
    Total Energy =                        -78.0694166099520146
  Basis Set: (AUG-CC-PVQZ AUX)
  @DF-RHF Final Energy:   -78.06487749972115
    Total Energy =                        -78.0648774997211490
  @DF-RHF Final Energy:   -78.06946806031783
    Total Energy =                        -78.0694680603178313
  @DF-RHF Final Energy:  -246.77904841726803
    Total Energy =                       -246.7790484172680294
  @DF-RHF Final Energy:  -246.79296543009272
    Total Energy =                       -246.7929654300927496
  @DF-RHF Final Energy:  -246.77875530117228
    Total Energy =                       -246.7787553011722821
  @DF-RHF Final Energy:  -246.79289973662574
    Total Energy =                       -246.7928997366257136
  Multiplicity = 1
  @DF-RHF Final Energy:  -324.78185848193391
    Total Energy =                       -324.7818584819339094
	 Singles Energy            =      -0.0000000000000000 [Eh]
	 Same-Spin Energy          =      -0.3645105276944338 [Eh]
	 Opposite-Spin Energy      =      -1.1642586376412623 [Eh]
	 Correlation Energy        =      -1.5287691653356961 [Eh]
	 Total Energy              =    -326.3106276472695981 [Eh]
	 SCS Total Energy          =    -326.3004723563349216 [Eh]
    Molecular point group: c1

    Geometry (in Angstrom), charge = 0, multiplicity = 1:

       Center              X                  Y                   Z               Mass
    ------------   -----------------  -----------------  -----------------  -----------------
         N            1.386661890451    -0.000205800927    -0.551850582539    14.003074004430
         C            0.684630890451    -1.140211800927    -0.591234582539    12.000000000000
         H            1.263999890451    -2.054934800927    -0.557430582539     1.007825032230
         C           -0.704442109549    -1.193086800927    -0.676650582539    12.000000000000
         H           -1.208808109549    -2.148534800927    -0.708623582539     1.007825032230
         C           -1.416334109549     0.000160199073    -0.724131582539    12.000000000000
         H           -2.495416109549     0.000285199073    -0.792484582539     1.007825032230
         C           -0.704121109549     1.193202199073    -0.676792582539    12.000000000000
         H           -1.208232109549     2.148775199073    -0.708842582539     1.007825032230
         C            0.684931890451     1.139983199073    -0.591421582539    12.000000000000
         H            1.264540890451     2.054538199073    -0.557812582539     1.007825032230
         C            0.015767890451     0.666422199073     1.790992417461    12.000000000000
         H            0.926241890451     1.225908199073     1.631877417461     1.007825032230
         H           -0.893779109549     1.228826199073     1.947953417461     1.007825032230
         C            0.016100890451    -0.666264800927     1.791124417461    12.000000000000
         H            0.926836890451    -1.225347800927     1.632114417461     1.007825032230
         H           -0.893187109549    -1.229089800927     1.948213417461     1.007825032230

  Charge       = 0
  Multiplicity = 1
  Basis Set: AUG-CC-PVQZ
    Blend: AUG-CC-PVQZ
  Basis Set: (AUG-CC-PVQZ AUX)
    Blend: AUG-CC-PVQZ-JKFIT

    Orbital Energies [Eh]
    ---------------------

    Doubly Occupied:

       1A    -15.556100     2A    -11.276878     3A    -11.276862
       4A    -11.252214     5A    -11.239875     6A    -11.239802
       7A    -11.208366     8A    -11.206639     9A     -1.258740
      10A     -1.089965    11A     -1.038249    12A     -1.022487
      13A     -0.860804    14A     -0.857318    15A     -0.785048
      16A     -0.724208    17A     -0.660465    18A     -0.658933
      19A     -0.636996    20A     -0.600746    21A     -0.581521
      22A     -0.575622    23A     -0.544216    24A     -0.521056
      25A     -0.498876    26A     -0.418261    27A     -0.384702
      28A     -0.346772    29A     -0.333534

  @DF-RHF Final Energy:  -324.80043942589498

   => Energetics <=

    Nuclear Repulsion Energy =            360.2487111917704397
    One-Electron Energy =               -1152.7877902649829593
    Two-Electron Energy =                 467.7386396473175409
    Total Energy =                       -324.8004394258949787

  Dipole Moment: [D]
     X:    -2.2919      Y:     0.0003      Z:    -0.4768     Total:     2.3409

  Basis Set: (AUG-CC-PVQZ AUX)
    Blend: AUG-CC-PVQZ-RI
	 Reference Energy          =    -324.8004394258949787 [Eh]
	 Singles Energy            =      -0.0000000000000000 [Eh]
	 Same-Spin Energy          =      -0.3846221054320342 [Eh]
	 Opposite-Spin Energy      =      -1.3000108118327502 [Eh]
	 Correlation Energy        =      -1.6846329172647845 [Eh]
	 Total Energy              =    -326.4850723431597430 [Eh]

	 ================> DF-SCS-MP2 Energies <==================
	-----------------------------------------------------------
	 SCS Same-Spin Scale       =       0.3333333333333333 [-]
	 SCS Opposite-Spin Scale   =       1.2000000000000000 [-]
	 SCS Same-Spin Energy      =      -0.1282073684773447 [Eh]
	 SCS Opposite-Spin Energy  =      -1.5600129741993003 [Eh]
	 SCS Correlation Energy    =      -1.6882203426766451 [Eh]
	 SCS Total Energy          =    -326.4886597685716083 [Eh]
	-----------------------------------------------------------

*** Psi4 exiting successfully. Buy a developer a beer!
