                               Psi4 1.4a2.dev224

  ==> Input File <==

--------------------------------------------------------------------------
#Generated by lconvert.py for cbs job

memory 20 GB

molecule  {
0 1
  N       1.381380   -0.000230    0.131460
  C       0.679350   -1.140240    0.092080
  H       1.258720   -2.054960    0.125880
  C      -0.709720   -1.193110    0.006660
  H      -1.214090   -2.148560   -0.025310
  C      -1.421610    0.000130   -0.040820
  H      -2.500700    0.000260   -0.109170
  C      -0.709400    1.193180    0.006520
  H      -1.213510    2.148750   -0.025530
  C       0.679650    1.139960    0.091890
  H       1.259260    2.054510    0.125500
--
0 1
  C       0.027820    0.666480    4.400330
  H       0.938300    1.225960    4.241220
  H      -0.881720    1.228880    4.557290
  C       0.028160   -0.666210    4.400460
  H       0.938890   -1.225290    4.241450
  H      -0.881130   -1.229030    4.557550
units angstrom
no_reorient
symmetry c1
}

set {
scf_type DF
mp2_type DF
e_convergence 7
reference rhf
}

energy('mp2/aug-cc-pv[tq]z', bsse_type='cp')
--------------------------------------------------------------------------

    Molecular point group: c1
  Charge       = 0
  Multiplicity = 1
  Basis Set: AUG-CC-PVTZ
    Blend: AUG-CC-PVTZ
  Basis Set: (AUG-CC-PVTZ AUX)
    Blend: AUG-CC-PVTZ-JKFIT
  @DF-RHF Final Energy:   -78.06470375754448
    Total Energy =                        -78.0647037575444926
  Basis Set: (AUG-CC-PVTZ AUX)
    Blend: AUG-CC-PVTZ-RI
	 Reference Energy          =     -78.0647037575444784 [Eh]
	 Singles Energy            =      -0.0000000000000000 [Eh]
	 Same-Spin Energy          =      -0.0765610076039505 [Eh]
	 Opposite-Spin Energy      =      -0.2985733511987593 [Eh]
	 Correlation Energy        =      -0.3751343588027097 [Eh]
	 Total Energy              =     -78.4398381163471896 [Eh]
	 SCS Total Energy          =     -78.4485121148509705 [Eh]
    Molecular point group: c1
  Basis Set: AUG-CC-PVQZ
    Blend: AUG-CC-PVQZ
  Basis Set: (AUG-CC-PVQZ AUX)
    Blend: AUG-CC-PVQZ-JKFIT
  @DF-RHF Final Energy:   -78.06941660420152
    Total Energy =                        -78.0694166042015212
  Basis Set: (AUG-CC-PVQZ AUX)
  @DF-RHF Final Energy:   -78.06474468004554
    Total Energy =                        -78.0647446800455356
  @DF-RHF Final Energy:   -78.06943102999293
    Total Energy =                        -78.0694310299929271
  @DF-RHF Final Energy:  -246.77880079752066
    Total Energy =                       -246.7788007975206597
  @DF-RHF Final Energy:  -246.79291391237268
    Total Energy =                       -246.7929139123726827
  @DF-RHF Final Energy:  -246.77875531363705
    Total Energy =                       -246.7787553136370207
  @DF-RHF Final Energy:  -246.79289974446436
    Total Energy =                       -246.7928997444643642
  Multiplicity = 1
  @DF-RHF Final Energy:  -324.84287349006070
    Total Energy =                       -324.8428734900606969
	 Singles Energy            =      -0.0000000000000000 [Eh]
	 Same-Spin Energy          =      -0.3465619501354045 [Eh]
	 Opposite-Spin Energy      =      -1.1394117827805488 [Eh]
	 Correlation Energy        =      -1.4859737329159532 [Eh]
	 Total Energy              =    -326.3288472229766626 [Eh]
	 SCS Total Energy          =    -326.3256882794424882 [Eh]
    Molecular point group: c1

    Geometry (in Angstrom), charge = 0, multiplicity = 1:

       Center              X                  Y                   Z               Mass
    ------------   -----------------  -----------------  -----------------  -----------------
         N            1.382121357570    -0.000226108860    -1.056075487329    14.003074004430
         C            0.680091357570    -1.140236108860    -1.095455487329    12.000000000000
         H            1.259461357570    -2.054956108860    -1.061655487329     1.007825032230
         C           -0.708978642430    -1.193106108860    -1.180875487329    12.000000000000
         H           -1.213348642430    -2.148556108860    -1.212845487329     1.007825032230
         C           -1.420868642430     0.000133891140    -1.228355487329    12.000000000000
         H           -2.499958642430     0.000263891140    -1.296705487329     1.007825032230
         C           -0.708658642430     1.193183891140    -1.181015487329    12.000000000000
         H           -1.212768642430     2.148753891140    -1.213065487329     1.007825032230
         C            0.680391357570     1.139963891140    -1.095645487329    12.000000000000
         H            1.260001357570     2.054513891140    -1.062035487329     1.007825032230
         C            0.028561357570     0.666483891140     3.212794512671    12.000000000000
         H            0.939041357570     1.225963891140     3.053684512671     1.007825032230
         H           -0.880978642430     1.228883891140     3.369754512671     1.007825032230
         C            0.028901357570    -0.666206108860     3.212924512671    12.000000000000
         H            0.939631357570    -1.225286108860     3.053914512671     1.007825032230
         H           -0.880388642430    -1.229026108860     3.370014512671     1.007825032230

  Charge       = 0
  Multiplicity = 1
  Basis Set: AUG-CC-PVQZ
    Blend: AUG-CC-PVQZ
  Basis Set: (AUG-CC-PVQZ AUX)
    Blend: AUG-CC-PVQZ-JKFIT

    Orbital Energies [Eh]
    ---------------------

    Doubly Occupied:

       1A    -15.563021     2A    -11.272257     3A    -11.272240
       4A    -11.257185     5A    -11.239157     6A    -11.239104
       7A    -11.225373     8A    -11.223650     9A     -1.254654
      10A     -1.087932    11A     -1.031374    12A     -1.029621
      13A     -0.857477    14A     -0.854075    15A     -0.788792
      16A     -0.720384    17A     -0.658948    18A     -0.652576
      19A     -0.640559    20A     -0.596352    21A     -0.582972
      22A     -0.575764    23A     -0.539487    24A     -0.518338
      25A     -0.504466    26A     -0.418268    27A     -0.382402
      28A     -0.372065    29A     -0.345702

  @DF-RHF Final Energy:  -324.86167771232368

   => Energetics <=

    Nuclear Repulsion Energy =            315.5050078124289712
    One-Electron Energy =               -1063.3249682645557641
    Two-Electron Energy =                 422.9582827398031100
    Total Energy =                       -324.8616777123236830

  Dipole Moment: [D]
     X:    -2.2999      Y:     0.0003      Z:    -0.1543     Total:     2.3050

  Basis Set: (AUG-CC-PVQZ AUX)
    Blend: AUG-CC-PVQZ-RI
	 Reference Energy          =    -324.8616777123236830 [Eh]
	 Singles Energy            =      -0.0000000000000000 [Eh]
	 Same-Spin Energy          =      -0.3667268858084288 [Eh]
	 Opposite-Spin Energy      =      -1.2778210131500680 [Eh]
	 Correlation Energy        =      -1.6445478989584967 [Eh]
	 Total Energy              =    -326.5062256112821615 [Eh]

	 ================> DF-SCS-MP2 Energies <==================
	-----------------------------------------------------------
	 SCS Same-Spin Scale       =       0.3333333333333333 [-]
	 SCS Opposite-Spin Scale   =       1.2000000000000000 [-]
	 SCS Same-Spin Energy      =      -0.1222422952694763 [Eh]
	 SCS Opposite-Spin Energy  =      -1.5333852157800816 [Eh]
	 SCS Correlation Energy    =      -1.6556275110495577 [Eh]
	 SCS Total Energy          =    -326.5173052233732278 [Eh]
	-----------------------------------------------------------

*** Psi4 exiting successfully. Buy a developer a beer!
