                               Psi4 1.4a2.dev224

  ==> Input File <==

--------------------------------------------------------------------------
#Generated by lconvert.py for cbs job

memory 20 GB

molecule  {
0 1
  N       1.381380   -0.000230    0.131460
  C       0.679350   -1.140240    0.092080
  H       1.258720   -2.054960    0.125880
  C      -0.709720   -1.193110    0.006660
  H      -1.214090   -2.148560   -0.025310
  C      -1.421610    0.000130   -0.040820
  H      -2.500700    0.000260   -0.109170
  C      -0.709400    1.193180    0.006520
  H      -1.213510    2.148750   -0.025530
  C       0.679650    1.139960    0.091890
  H       1.259260    2.054510    0.125500
--
0 1
  C       0.036500    0.666520    5.364150
  H       0.946970    1.226010    5.205030
  H      -0.873050    1.228930    5.521110
  C       0.036830   -0.666170    5.364280
  H       0.947570   -1.225250    5.205270
  H      -0.872460   -1.228990    5.521370
units angstrom
no_reorient
symmetry c1
}

set {
scf_type DF
mp2_type DF
e_convergence 7
reference rhf
}

energy('mp2/aug-cc-pv[tq]z', bsse_type='cp')
--------------------------------------------------------------------------

    Molecular point group: c1
  Charge       = 0
  Multiplicity = 1
  Basis Set: AUG-CC-PVTZ
    Blend: AUG-CC-PVTZ
  Basis Set: (AUG-CC-PVTZ AUX)
    Blend: AUG-CC-PVTZ-JKFIT
  @DF-RHF Final Energy:   -78.06470357924132
    Total Energy =                        -78.0647035792413249
  Basis Set: (AUG-CC-PVTZ AUX)
    Blend: AUG-CC-PVTZ-RI
	 Reference Energy          =     -78.0647035792413249 [Eh]
	 Singles Energy            =      -0.0000000000000000 [Eh]
	 Same-Spin Energy          =      -0.0765610084464004 [Eh]
	 Opposite-Spin Energy      =      -0.2985734419300190 [Eh]
	 Correlation Energy        =      -0.3751344503764195 [Eh]
	 Total Energy              =     -78.4398380296177464 [Eh]
	 SCS Total Energy          =     -78.4485120457061527 [Eh]
    Molecular point group: c1
  Basis Set: AUG-CC-PVQZ
    Blend: AUG-CC-PVQZ
  Basis Set: (AUG-CC-PVQZ AUX)
    Blend: AUG-CC-PVQZ-JKFIT
  @DF-RHF Final Energy:   -78.06941641402622
    Total Energy =                        -78.0694164140262217
  Basis Set: (AUG-CC-PVQZ AUX)
  @DF-RHF Final Energy:   -78.06471781621498
    Total Energy =                        -78.0647178162149800
  @DF-RHF Final Energy:   -78.06942470942856
    Total Energy =                        -78.0694247094285600
  @DF-RHF Final Energy:  -246.77877444933372
    Total Energy =                       -246.7787744493336959
  @DF-RHF Final Energy:  -246.79290663141876
    Total Energy =                       -246.7929066314187594
  @DF-RHF Final Energy:  -246.77875531170682
    Total Energy =                       -246.7787553117068455
  @DF-RHF Final Energy:  -246.79289974337652
    Total Energy =                       -246.7928997433764948
  Multiplicity = 1
  @DF-RHF Final Energy:  -324.84323002261635
    Total Energy =                       -324.8432300226163534
	 Singles Energy            =      -0.0000000000000000 [Eh]
	 Same-Spin Energy          =      -0.3457289385432452 [Eh]
	 Opposite-Spin Energy      =      -1.1380673352046213 [Eh]
	 Correlation Energy        =      -1.4837962737478665 [Eh]
	 Total Energy              =    -326.3270262963642381 [Eh]
	 SCS Total Energy          =    -326.3241538043762944 [Eh]
    Molecular point group: c1

    Geometry (in Angstrom), charge = 0, multiplicity = 1:

       Center              X                  Y                   Z               Mass
    ------------   -----------------  -----------------  -----------------  -----------------
         N            1.379850380606    -0.000236768906    -1.308398590525    14.003074004430
         C            0.677820380606    -1.140246768906    -1.347778590525    12.000000000000
         H            1.257190380606    -2.054966768906    -1.313978590525     1.007825032230
         C           -0.711249619394    -1.193116768906    -1.433198590525    12.000000000000
         H           -1.215619619394    -2.148566768906    -1.465168590525     1.007825032230
         C           -1.423139619394     0.000123231094    -1.480678590525    12.000000000000
         H           -2.502229619394     0.000253231094    -1.549028590525     1.007825032230
         C           -0.710929619394     1.193173231094    -1.433338590525    12.000000000000
         H           -1.215039619394     2.148743231094    -1.465388590525     1.007825032230
         C            0.678120380606     1.139953231094    -1.347968590525    12.000000000000
         H            1.257730380606     2.054503231094    -1.314358590525     1.007825032230
         C            0.034970380606     0.666513231094     3.924291409475    12.000000000000
         H            0.945440380606     1.226003231094     3.765171409475     1.007825032230
         H           -0.874579619394     1.228923231094     4.081251409475     1.007825032230
         C            0.035300380606    -0.666176768906     3.924421409475    12.000000000000
         H            0.946040380606    -1.225256768906     3.765411409475     1.007825032230
         H           -0.873989619394    -1.228996768906     4.081511409475     1.007825032230

  Charge       = 0
  Multiplicity = 1
  Basis Set: AUG-CC-PVQZ
    Blend: AUG-CC-PVQZ
  Basis Set: (AUG-CC-PVQZ AUX)
    Blend: AUG-CC-PVQZ-JKFIT

    Orbital Energies [Eh]
    ---------------------

    Doubly Occupied:

       1A    -15.563657     2A    -11.272825     3A    -11.272808
       4A    -11.257899     5A    -11.239797     6A    -11.239744
       7A    -11.227027     8A    -11.225304     9A     -1.255353
      10A     -1.088658    11A     -1.032017    12A     -1.031275
      13A     -0.858087    14A     -0.854663    15A     -0.790277
      16A     -0.720961    17A     -0.659573    18A     -0.653074
      19A     -0.642151    20A     -0.596906    21A     -0.584494
      22A     -0.576379    23A     -0.540165    24A     -0.518870
      25A     -0.505968    26A     -0.418795    27A     -0.383062
      28A     -0.373942    29A     -0.346436

  @DF-RHF Final Energy:  -324.86207324292127

   => Energetics <=

    Nuclear Repulsion Energy =            303.1820986805748248
    One-Electron Energy =               -1038.6279942198273147
    Two-Electron Energy =                 410.5838222963311637
    Total Energy =                       -324.8620732429212694

  Dipole Moment: [D]
     X:    -2.3045      Y:     0.0003      Z:    -0.1451     Total:     2.3091

  Basis Set: (AUG-CC-PVQZ AUX)
    Blend: AUG-CC-PVQZ-RI
	 Reference Energy          =    -324.8620732429212694 [Eh]
	 Singles Energy            =      -0.0000000000000000 [Eh]
	 Same-Spin Energy          =      -0.3659204570328247 [Eh]
	 Opposite-Spin Energy      =      -1.2767738818749779 [Eh]
	 Correlation Energy        =      -1.6426943389078026 [Eh]
	 Total Energy              =    -326.5047675818290713 [Eh]

	 ================> DF-SCS-MP2 Energies <==================
	-----------------------------------------------------------
	 SCS Same-Spin Scale       =       0.3333333333333333 [-]
	 SCS Opposite-Spin Scale   =       1.2000000000000000 [-]
	 SCS Same-Spin Energy      =      -0.1219734856776082 [Eh]
	 SCS Opposite-Spin Energy  =      -1.5321286582499734 [Eh]
	 SCS Correlation Energy    =      -1.6541021439275816 [Eh]
	 SCS Total Energy          =    -326.5161753868488290 [Eh]
	-----------------------------------------------------------

*** Psi4 exiting successfully. Buy a developer a beer!
