                               Psi4 1.4a2.dev224

  ==> Input File <==

--------------------------------------------------------------------------
#Generated by lconvert.py for cbs job

memory 40 GB

molecule  {
0 1
  N        1.3813820    -0.0002330     0.1314640
  C        0.6793510    -1.1402390     0.0920800
  H        1.2587200    -2.0549620     0.1258840
  C       -0.7097220    -1.1931140     0.0066640
  H       -1.2140880    -2.1485620    -0.0253090
  C       -1.4216140     0.0001330    -0.0408170
  H       -2.5006960     0.0002580    -0.1091700
  C       -0.7094010     1.1931750     0.0065220
  H       -1.2135120     2.1487480    -0.0255280
  C        0.6796520     1.1399560     0.0918930
  H        1.2592610     2.0545110     0.1255020
--
0 1
  C        0.0162690     0.6664230     3.1166000
  H        0.9267430     1.2259090     2.9574850
  H       -0.8932790     1.2288270     3.2735600
  C        0.0166010    -0.6662640     3.1167320
  H        0.9273370    -1.2253470     2.9577220
  H       -0.8926870    -1.2290890     3.2738210
units angstrom
no_reorient
symmetry c1
}

set {
scf_type DF
mp2_type DF
e_convergence 7
reference rhf
}

energy('mp2/aug-cc-pv[tq]z', bsse_type='cp')
--------------------------------------------------------------------------

    Molecular point group: c1
  Charge       = 0
  Multiplicity = 1
  Basis Set: AUG-CC-PVTZ
    Blend: AUG-CC-PVTZ
  Basis Set: (AUG-CC-PVTZ AUX)
    Blend: AUG-CC-PVTZ-JKFIT
  @DF-RHF Final Energy:   -78.06470375863182
    Total Energy =                        -78.0647037586318220
  Basis Set: (AUG-CC-PVTZ AUX)
    Blend: AUG-CC-PVTZ-RI
	 Reference Energy          =     -78.0647037586318220 [Eh]
	 Singles Energy            =      -0.0000000000000000 [Eh]
	 Same-Spin Energy          =      -0.0765609915413538 [Eh]
	 Opposite-Spin Energy      =      -0.2985733293524943 [Eh]
	 Correlation Energy        =      -0.3751343208938481 [Eh]
	 Total Energy              =     -78.4398380795256713 [Eh]
	 SCS Total Energy          =     -78.4485120843686019 [Eh]
    Molecular point group: c1
  Basis Set: AUG-CC-PVQZ
    Blend: AUG-CC-PVQZ
  Basis Set: (AUG-CC-PVQZ AUX)
    Blend: AUG-CC-PVQZ-JKFIT
  @DF-RHF Final Energy:   -78.06941660216441
    Total Energy =                        -78.0694166021644094
  Basis Set: (AUG-CC-PVQZ AUX)
  @DF-RHF Final Energy:   -78.06480308557869
    Total Energy =                        -78.0648030855786885
  @DF-RHF Final Energy:   -78.06945056980987
    Total Energy =                        -78.0694505698098737
  @DF-RHF Final Energy:  -246.77890776759949
    Total Energy =                       -246.7789077675994918
  @DF-RHF Final Energy:  -246.79293925715098
    Total Energy =                       -246.7929392571509766
  @DF-RHF Final Energy:  -246.77875530295486
    Total Energy =                       -246.7787553029548917
  @DF-RHF Final Energy:  -246.79289973539790
    Total Energy =                       -246.7928997353978957
  Multiplicity = 1
  @DF-RHF Final Energy:  -324.83267585012027
    Total Energy =                       -324.8326758501202676
	 Singles Energy            =      -0.0000000000000000 [Eh]
	 Same-Spin Energy          =      -0.3525597607572032 [Eh]
	 Opposite-Spin Energy      =      -1.1480249095061030 [Eh]
	 Correlation Energy        =      -1.5005846702633063 [Eh]
	 Total Energy              =    -326.3332605203835897 [Eh]
	 SCS Total Energy          =    -326.3278256617799684 [Eh]
    Molecular point group: c1

    Geometry (in Angstrom), charge = 0, multiplicity = 1:

       Center              X                  Y                   Z               Mass
    ------------   -----------------  -----------------  -----------------  -----------------
         N            1.385148594223    -0.000213131185    -0.719999629358    14.003074004430
         C            0.683117594223    -1.140219131185    -0.759383629358    12.000000000000
         H            1.262486594223    -2.054942131185    -0.725579629358     1.007825032230
         C           -0.705955405777    -1.193094131185    -0.844799629358    12.000000000000
         H           -1.210321405777    -2.148542131185    -0.876772629358     1.007825032230
         C           -1.417847405777     0.000152868815    -0.892280629358    12.000000000000
         H           -2.496929405777     0.000277868815    -0.960633629358     1.007825032230
         C           -0.705634405777     1.193194868815    -0.844941629358    12.000000000000
         H           -1.209745405777     2.148767868815    -0.876991629358     1.007825032230
         C            0.683418594223     1.139975868815    -0.759570629358    12.000000000000
         H            1.263027594223     2.054530868815    -0.725961629358     1.007825032230
         C            0.020035594223     0.666442868815     2.265136370642    12.000000000000
         H            0.930509594223     1.225928868815     2.106021370642     1.007825032230
         H           -0.889512405777     1.228846868815     2.422096370642     1.007825032230
         C            0.020367594223    -0.666244131185     2.265268370642    12.000000000000
         H            0.931103594223    -1.225327131185     2.106258370642     1.007825032230
         H           -0.888920405777    -1.229069131185     2.422357370642     1.007825032230

  Charge       = 0
  Multiplicity = 1
  Basis Set: AUG-CC-PVQZ
    Blend: AUG-CC-PVQZ
  Basis Set: (AUG-CC-PVQZ AUX)
    Blend: AUG-CC-PVQZ-JKFIT

    Orbital Energies [Eh]
    ---------------------

    Doubly Occupied:

       1A    -15.561497     2A    -11.272463     3A    -11.272447
       4A    -11.255694     5A    -11.238756     6A    -11.238701
       7A    -11.218363     8A    -11.216638     9A     -1.254459
      10A     -1.087455    11A     -1.031719    12A     -1.024688
      13A     -0.857555    14A     -0.854134    15A     -0.784853
      16A     -0.720500    17A     -0.658707    18A     -0.653250
      19A     -0.636238    20A     -0.596640    21A     -0.578961
      22A     -0.575178    23A     -0.541816    24A     -0.518531
      25A     -0.500090    26A     -0.418069    27A     -0.383560
      28A     -0.360695    29A     -0.345841

  @DF-RHF Final Energy:  -324.85136782782672

   => Energetics <=

    Nuclear Repulsion Energy =            340.9060001810844938
    One-Electron Energy =               -1114.1997412254359006
    Two-Electron Energy =                 448.4423732165247429
    Total Energy =                       -324.8513678278267207

  Dipole Moment: [D]
     X:    -2.3050      Y:     0.0003      Z:    -0.2930     Total:     2.3235

  Basis Set: (AUG-CC-PVQZ AUX)
    Blend: AUG-CC-PVQZ-RI
	 Reference Energy          =    -324.8513678278267207 [Eh]
	 Singles Energy            =      -0.0000000000000000 [Eh]
	 Same-Spin Energy          =      -0.3726719148132617 [Eh]
	 Opposite-Spin Energy      =      -1.2853790526888380 [Eh]
	 Correlation Energy        =      -1.6580509675020996 [Eh]
	 Total Energy              =    -326.5094187953288269 [Eh]

	 ================> DF-SCS-MP2 Energies <==================
	-----------------------------------------------------------
	 SCS Same-Spin Scale       =       0.3333333333333333 [-]
	 SCS Opposite-Spin Scale   =       1.2000000000000000 [-]
	 SCS Same-Spin Energy      =      -0.1242239716044206 [Eh]
	 SCS Opposite-Spin Energy  =      -1.5424548632266055 [Eh]
	 SCS Correlation Energy    =      -1.6666788348310262 [Eh]
	 SCS Total Energy          =    -326.5180466626577527 [Eh]
	-----------------------------------------------------------

*** Psi4 exiting successfully. Buy a developer a beer!
