                               Psi4 1.4a2.dev224

  ==> Input File <==

--------------------------------------------------------------------------
#Generated by lconvert.py for cbs job

memory 40 GB

molecule  {
0 1
  N        1.3813820    -0.0002330     0.1314640
  C        0.6793510    -1.1402390     0.0920800
  H        1.2587200    -2.0549620     0.1258840
  C       -0.7097220    -1.1931140     0.0066640
  H       -1.2140880    -2.1485620    -0.0253090
  C       -1.4216140     0.0001330    -0.0408170
  H       -2.5006960     0.0002580    -0.1091700
  C       -0.7094010     1.1931750     0.0065220
  H       -1.2135120     2.1487480    -0.0255280
  C        0.6796520     1.1399560     0.0918930
  H        1.2592610     2.0545110     0.1255020
--
0 1
  C        0.0104880     0.6663950     2.4743070
  H        0.9209620     1.2258810     2.3151920
  H       -0.8990590     1.2287990     2.6312680
  C        0.0108210    -0.6662920     2.4744390
  H        0.9215570    -1.2253750     2.3154290
  H       -0.8984670    -1.2291170     2.6315280
units angstrom
no_reorient
symmetry c1
}

set {
scf_type DF
mp2_type DF
e_convergence 7
reference rhf
}

energy('mp2/aug-cc-pv[tq]z', bsse_type='cp')
--------------------------------------------------------------------------

    Molecular point group: c1
  Charge       = 0
  Multiplicity = 1
  Basis Set: AUG-CC-PVTZ
    Blend: AUG-CC-PVTZ
  Basis Set: (AUG-CC-PVTZ AUX)
    Blend: AUG-CC-PVTZ-JKFIT
  @DF-RHF Final Energy:   -78.06470376621103
    Total Energy =                        -78.0647037662110108
  Basis Set: (AUG-CC-PVTZ AUX)
    Blend: AUG-CC-PVTZ-RI
	 Reference Energy          =     -78.0647037662110250 [Eh]
	 Singles Energy            =      -0.0000000000000000 [Eh]
	 Same-Spin Energy          =      -0.0765609909140164 [Eh]
	 Opposite-Spin Energy      =      -0.2985733256116195 [Eh]
	 Correlation Energy        =      -0.3751343165256359 [Eh]
	 Total Energy              =     -78.4398380827366566 [Eh]
	 SCS Total Energy          =     -78.4485120872496395 [Eh]
    Molecular point group: c1
  Basis Set: AUG-CC-PVQZ
    Blend: AUG-CC-PVQZ
  Basis Set: (AUG-CC-PVQZ AUX)
    Blend: AUG-CC-PVQZ-JKFIT
  @DF-RHF Final Energy:   -78.06941660995201
    Total Energy =                        -78.0694166099520146
  Basis Set: (AUG-CC-PVQZ AUX)
  @DF-RHF Final Energy:   -78.06487749972115
    Total Energy =                        -78.0648774997211490
  @DF-RHF Final Energy:   -78.06946806031783
    Total Energy =                        -78.0694680603178313
  @DF-RHF Final Energy:  -246.77904841726803
    Total Energy =                       -246.7790484172680294
  @DF-RHF Final Energy:  -246.79296543009272
    Total Energy =                       -246.7929654300927496
  @DF-RHF Final Energy:  -246.77875530117228
    Total Energy =                       -246.7787553011722821
  @DF-RHF Final Energy:  -246.79289973662574
    Total Energy =                       -246.7928997366257136
  @DF-RHF Final Energy:  -324.78185848193391
    Total Energy =                       -324.7818584819339094
  @DF-RHF Final Energy:  -324.80043942589498
    Total Energy =                       -324.8004394258949787
*** Psi4 exiting successfully. Buy a developer a beer!
                               Psi4 1.4a2.dev224
  @DF-RHF Final Energy:   -78.06470375713583
    Total Energy =                        -78.0647037571358311
  @DF-RHF Final Energy:   -78.06941660080683
    Total Energy =                        -78.0694166008068322
  @DF-RHF Final Energy:   -78.06483094249674
    Total Energy =                        -78.0648309424967408
  @DF-RHF Final Energy:   -78.06945888000664
    Total Energy =                        -78.0694588800066356
  @DF-RHF Final Energy:  -246.77896645998712
    Total Energy =                       -246.7789664599871458
  @DF-RHF Final Energy:  -246.79295048954032
    Total Energy =                       -246.7929504895403170
  @DF-RHF Final Energy:  -246.77875530112095
    Total Energy =                       -246.7787553011209525
  @DF-RHF Final Energy:  -246.79289973509114
    Total Energy =                       -246.7928997350911686
  @DF-RHF Final Energy:  -324.81756258414936
    Total Energy =                       -324.8175625841493570
  @DF-RHF Final Energy:  -324.83620527446396
    Total Energy =                       -324.8362052744639641
*** Psi4 exiting successfully. Buy a developer a beer!
                               Psi4 1.4a2.dev224
                               Psi4 1.4a2.dev224
                               Psi4 1.4a2.dev224
                               Psi4 1.4a2.dev224
                               Psi4 1.4a2.dev224
                               Psi4 1.4a2.dev224
                               Psi4 1.4a2.dev224
  @DF-RHF Final Energy:   -78.06470357924132
    Total Energy =                        -78.0647035792413249
  @DF-RHF Final Energy:   -78.06941641402622
    Total Energy =                        -78.0694164140262217
  @DF-RHF Final Energy:   -78.06471781621498
    Total Energy =                        -78.0647178162149800
  @DF-RHF Final Energy:   -78.06942470942856
    Total Energy =                        -78.0694247094285600
  @DF-RHF Final Energy:  -246.77877444933372
    Total Energy =                       -246.7787744493336959
  @DF-RHF Final Energy:  -246.79290663141876
    Total Energy =                       -246.7929066314187594
  @DF-RHF Final Energy:  -246.77875531170682
    Total Energy =                       -246.7787553117068455
  @DF-RHF Final Energy:  -246.79289974337652
    Total Energy =                       -246.7928997433764948
  @DF-RHF Final Energy:  -324.84323002261635
    Total Energy =                       -324.8432300226163534
  @DF-RHF Final Energy:  -324.86207324292127
    Total Energy =                       -324.8620732429212694
*** Psi4 exiting successfully. Buy a developer a beer!
                               Psi4 1.4a2.dev224
  @DF-RHF Final Energy:   -78.06470403347504
    Total Energy =                        -78.0647040334750386
  @DF-RHF Final Energy:   -78.06941688688529
    Total Energy =                        -78.0694168868852927
  @DF-RHF Final Energy:   -78.06471105144192
    Total Energy =                        -78.0647110514419182
  @DF-RHF Final Energy:   -78.06941941709569
    Total Energy =                        -78.0694194170956735
  @DF-RHF Final Energy:  -246.77876267469873
    Total Energy =                       -246.7787626746987257
  @DF-RHF Final Energy:  -246.79290332161966
    Total Energy =                       -246.7929033216196331
  @DF-RHF Final Energy:  -246.77875531350975
    Total Energy =                       -246.7787553135097482
  @DF-RHF Final Energy:  -246.79289974714956
    Total Energy =                       -246.7928997471495904
  Multiplicity = 1
  @DF-RHF Final Energy:  -324.84333602728861
    Total Energy =                       -324.8433360272886148
	 Singles Energy            =      -0.0000000000000000 [Eh]
	 Same-Spin Energy          =      -0.3454881583301702 [Eh]
	 Opposite-Spin Energy      =      -1.1376501757017472 [Eh]
	 Correlation Energy        =      -1.4831383340319173 [Eh]
	 Total Energy              =    -326.3264743613205496 [Eh]
	 SCS Total Energy          =    -326.3236789575740886 [Eh]
    Molecular point group: c1

    Geometry (in Angstrom), charge = 0, multiplicity = 1:

       Center              X                  Y                   Z               Mass
    ------------   -----------------  -----------------  -----------------  -----------------
         N            1.377579215393    -0.000248361429    -1.560719264020    14.003074004430
         C            0.675549215393    -1.140258361429    -1.600099264020    12.000000000000
         H            1.254919215393    -2.054978361429    -1.566299264020     1.007825032230
         C           -0.713520784607    -1.193128361429    -1.685519264020    12.000000000000
         H           -1.217890784607    -2.148578361429    -1.717489264020     1.007825032230
         C           -1.425410784607     0.000111638571    -1.732999264020    12.000000000000
         H           -2.504500784607     0.000241638571    -1.801349264020     1.007825032230
         C           -0.713200784607     1.193161638571    -1.685659264020    12.000000000000
         H           -1.217310784607     2.148731638571    -1.717709264020     1.007825032230
         C            0.675849215393     1.139941638571    -1.600289264020    12.000000000000
         H            1.255459215393     2.054491638571    -1.566679264020     1.007825032230
         C            0.041369215393     0.666541638571     4.635780735980    12.000000000000
         H            0.951849215393     1.226031638571     4.476670735980     1.007825032230
         H           -0.868170784607     1.228951638571     4.792740735980     1.007825032230
         C            0.041709215393    -0.666138361429     4.635910735980    12.000000000000
         H            0.952439215393    -1.225228361429     4.476900735980     1.007825032230
         H           -0.867580784607    -1.228968361429     4.793000735980     1.007825032230

  Charge       = 0
  Multiplicity = 1
  Basis Set: AUG-CC-PVQZ
    Blend: AUG-CC-PVQZ
  Basis Set: (AUG-CC-PVQZ AUX)
    Blend: AUG-CC-PVQZ-JKFIT

    Orbital Energies [Eh]
    ---------------------

    Doubly Occupied:

       1A    -15.564118     2A    -11.273265     3A    -11.273248
       4A    -11.258387     5A    -11.240270     6A    -11.240217
       7A    -11.227983     8A    -11.226260     9A     -1.255853
      10A     -1.089167    11A     -1.032496    12A     -1.032268
      13A     -0.858548    14A     -0.855114    15A     -0.791193
      16A     -0.721403    17A     -0.660039    18A     -0.653485
      19A     -0.643115    20A     -0.597339    21A     -0.585421
      22A     -0.576833    23A     -0.540714    24A     -0.519292
      25A     -0.506887    26A     -0.419216    27A     -0.383592
      28A     -0.374978    29A     -0.346971

  @DF-RHF Final Energy:  -324.86218626798166

   => Energetics <=

    Nuclear Repulsion Energy =            294.1918950637090120
    One-Electron Energy =               -1020.6128014049746753
    Two-Electron Energy =                 401.5587200732840074
    Total Energy =                       -324.8621862679816559

  Dipole Moment: [D]
     X:    -2.3098      Y:     0.0003      Z:    -0.1454     Total:     2.3144

  Basis Set: (AUG-CC-PVQZ AUX)
    Blend: AUG-CC-PVQZ-RI
	 Reference Energy          =    -324.8621862679816559 [Eh]
	 Singles Energy            =      -0.0000000000000000 [Eh]
	 Same-Spin Energy          =      -0.3656885738863399 [Eh]
	 Opposite-Spin Energy      =      -1.2764530369868647 [Eh]
	 Correlation Energy        =      -1.6421416108732045 [Eh]
	 Total Energy              =    -326.5043278788548378 [Eh]

	 ================> DF-SCS-MP2 Energies <==================
	-----------------------------------------------------------
	 SCS Same-Spin Scale       =       0.3333333333333333 [-]
	 SCS Opposite-Spin Scale   =       1.2000000000000000 [-]
	 SCS Same-Spin Energy      =      -0.1218961912954466 [Eh]
	 SCS Opposite-Spin Energy  =      -1.5317436443842376 [Eh]
	 SCS Correlation Energy    =      -1.6536398356796842 [Eh]
	 SCS Total Energy          =    -326.5158261036613681 [Eh]
	-----------------------------------------------------------

*** Psi4 exiting successfully. Buy a developer a beer!
