                               Psi4 1.4a2.dev224

  ==> Input File <==

--------------------------------------------------------------------------
#Generated by lconvert.py for cbs job

memory 40 GB

molecule  {
0 1
  N        1.3813820    -0.0002330     0.1314640
  C        0.6793510    -1.1402390     0.0920800
  H        1.2587200    -2.0549620     0.1258840
  C       -0.7097220    -1.1931140     0.0066640
  H       -1.2140880    -2.1485620    -0.0253090
  C       -1.4216140     0.0001330    -0.0408170
  H       -2.5006960     0.0002580    -0.1091700
  C       -0.7094010     1.1931750     0.0065220
  H       -1.2135120     2.1487480    -0.0255280
  C        0.6796520     1.1399560     0.0918930
  H        1.2592610     2.0545110     0.1255020
--
0 1
  C        0.0220390     0.6664510     3.7577860
  H        0.9325130     1.2259370     3.5986710
  H       -0.8875080     1.2288550     3.9147460
  C        0.0223720    -0.6662360     3.7579180
  H        0.9331070    -1.2253190     3.5989080
  H       -0.8869160    -1.2290610     3.9150070
units angstrom
no_reorient
symmetry c1
}

set {
scf_type DF
mp2_type DF
e_convergence 7
reference rhf
}

energy('mp2/aug-cc-pv[tq]z', bsse_type='cp')
--------------------------------------------------------------------------

    Molecular point group: c1
  Charge       = 0
  Multiplicity = 1
  Basis Set: AUG-CC-PVTZ
    Blend: AUG-CC-PVTZ
  Basis Set: (AUG-CC-PVTZ AUX)
    Blend: AUG-CC-PVTZ-JKFIT
  @DF-RHF Final Energy:   -78.06470377600708
    Total Energy =                        -78.0647037760070646
  Basis Set: (AUG-CC-PVTZ AUX)
    Blend: AUG-CC-PVTZ-RI
	 Reference Energy          =     -78.0647037760070788 [Eh]
	 Singles Energy            =      -0.0000000000000000 [Eh]
	 Same-Spin Energy          =      -0.0765609900350562 [Eh]
	 Opposite-Spin Energy      =      -0.2985733202816537 [Eh]
	 Correlation Energy        =      -0.3751343103167099 [Eh]
	 Total Energy              =     -78.4398380863237890 [Eh]
	 SCS Total Energy          =     -78.4485120903567434 [Eh]
    Molecular point group: c1
  Basis Set: AUG-CC-PVQZ
    Blend: AUG-CC-PVQZ
  Basis Set: (AUG-CC-PVQZ AUX)
    Blend: AUG-CC-PVQZ-JKFIT
  @DF-RHF Final Energy:   -78.06941662056883
    Total Energy =                        -78.0694166205688305
  Basis Set: (AUG-CC-PVQZ AUX)
  @DF-RHF Final Energy:   -78.06476776918169
    Total Energy =                        -78.0647677691816853
  @DF-RHF Final Energy:   -78.06943791169735
    Total Energy =                        -78.0694379116973494
  @DF-RHF Final Energy:  -246.77884517258778
    Total Energy =                       -246.7788451725878076
  @DF-RHF Final Energy:  -246.79292379705487
    Total Energy =                       -246.7929237970548684
  @DF-RHF Final Energy:  -246.77875530060709
    Total Energy =                       -246.7787553006070880
  @DF-RHF Final Energy:  -246.79289973391681
    Total Energy =                       -246.7928997339168404
  Multiplicity = 1
  @DF-RHF Final Energy:  -324.84141785116697
    Total Energy =                       -324.8414178511669661
	 Singles Energy            =      -0.0000000000000000 [Eh]
	 Same-Spin Energy          =      -0.3482092909198246 [Eh]
	 Opposite-Spin Energy      =      -1.1418351579933630 [Eh]
	 Correlation Energy        =      -1.4900444489131877 [Eh]
	 Total Energy              =    -326.3314623000801475 [Eh]
	 SCS Total Energy          =    -326.3276898043989149 [Eh]
    Molecular point group: c1

    Geometry (in Angstrom), charge = 0, multiplicity = 1:

       Center              X                  Y                   Z               Mass
    ------------   -----------------  -----------------  -----------------  -----------------
         N            1.383637906533    -0.000220461444    -0.887858878592    14.003074004430
         C            0.681606906533    -1.140226461444    -0.927242878592    12.000000000000
         H            1.260975906533    -2.054949461444    -0.893438878592     1.007825032230
         C           -0.707466093467    -1.193101461444    -1.012658878592    12.000000000000
         H           -1.211832093467    -2.148549461444    -1.044631878592     1.007825032230
         C           -1.419358093467     0.000145538556    -1.060139878592    12.000000000000
         H           -2.498440093467     0.000270538556    -1.128492878592     1.007825032230
         C           -0.707145093467     1.193187538556    -1.012800878592    12.000000000000
         H           -1.211256093467     2.148760538556    -1.044850878592     1.007825032230
         C            0.681907906533     1.139968538556    -0.927429878592    12.000000000000
         H            1.261516906533     2.054523538556    -0.893820878592     1.007825032230
         C            0.024294906533     0.666463538556     2.738463121408    12.000000000000
         H            0.934768906533     1.225949538556     2.579348121408     1.007825032230
         H           -0.885252093467     1.228867538556     2.895423121408     1.007825032230
         C            0.024627906533    -0.666223461444     2.738595121408    12.000000000000
         H            0.935362906533    -1.225306461444     2.579585121408     1.007825032230
         H           -0.884660093467    -1.229048461444     2.895684121408     1.007825032230

  Charge       = 0
  Multiplicity = 1
  Basis Set: AUG-CC-PVQZ
    Blend: AUG-CC-PVQZ
  Basis Set: (AUG-CC-PVQZ AUX)
    Blend: AUG-CC-PVQZ-JKFIT

    Orbital Energies [Eh]
    ---------------------

    Doubly Occupied:

       1A    -15.562502     2A    -11.271987     3A    -11.271970
       4A    -11.256578     5A    -11.238768     6A    -11.238714
       7A    -11.223173     8A    -11.221449     9A     -1.254220
      10A     -1.087444    11A     -1.031055    12A     -1.027704
      13A     -0.857165    14A     -0.853779    15A     -0.787147
      16A     -0.720094    17A     -0.658585    18A     -0.652426
      19A     -0.638760    20A     -0.596105    21A     -0.581244
      22A     -0.575366    23A     -0.539576    24A     -0.518105
      25A     -0.502755    26A     -0.418003    27A     -0.382343
      28A     -0.369141    29A     -0.345353

  @DF-RHF Final Energy:  -324.86017156391716

   => Energetics <=

    Nuclear Repulsion Energy =            326.5346055808508368
    One-Electron Energy =               -1085.4265203599982215
    Two-Electron Energy =                 434.0317432152301649
    Total Energy =                       -324.8601715639171630

  Dipole Moment: [D]
     X:    -2.3000      Y:     0.0003      Z:    -0.1895     Total:     2.3078

  Basis Set: (AUG-CC-PVQZ AUX)
    Blend: AUG-CC-PVQZ-RI
	 Reference Energy          =    -324.8601715639171630 [Eh]
	 Singles Energy            =      -0.0000000000000000 [Eh]
	 Same-Spin Energy          =      -0.3683550580069135 [Eh]
	 Opposite-Spin Energy      =      -1.2798955519052519 [Eh]
	 Correlation Energy        =      -1.6482506099121654 [Eh]
	 Total Energy              =    -326.5084221738293309 [Eh]

	 ================> DF-SCS-MP2 Energies <==================
	-----------------------------------------------------------
	 SCS Same-Spin Scale       =       0.3333333333333333 [-]
	 SCS Opposite-Spin Scale   =       1.2000000000000000 [-]
	 SCS Same-Spin Energy      =      -0.1227850193356378 [Eh]
	 SCS Opposite-Spin Energy  =      -1.5358746622863022 [Eh]
	 SCS Correlation Energy    =      -1.6586596816219401 [Eh]
	 SCS Total Energy          =    -326.5188312455391042 [Eh]
	-----------------------------------------------------------

*** Psi4 exiting successfully. Buy a developer a beer!
