                               Psi4 1.4a2.dev224

  ==> Input File <==

--------------------------------------------------------------------------
#Generated by lconvert.py for cbs job

memory 40 GB

molecule  {
0 1
  N        1.3813820    -0.0002330     0.1314640
  C        0.6793510    -1.1402390     0.0920800
  H        1.2587200    -2.0549620     0.1258840
  C       -0.7097220    -1.1931140     0.0066640
  H       -1.2140880    -2.1485620    -0.0253090
  C       -1.4216140     0.0001330    -0.0408170
  H       -2.5006960     0.0002580    -0.1091700
  C       -0.7094010     1.1931750     0.0065220
  H       -1.2135120     2.1487480    -0.0255280
  C        0.6796520     1.1399560     0.0918930
  H        1.2592610     2.0545110     0.1255020
--
0 1
  C        0.0177120     0.6664300     3.2769670
  H        0.9281860     1.2259160     3.1178520
  H       -0.8918360     1.2288340     3.4339280
  C        0.0180450    -0.6662570     3.2770990
  H        0.9287800    -1.2253400     3.1180890
  H       -0.8912430    -1.2290820     3.4341890
units angstrom
no_reorient
symmetry c1
}

set {
scf_type DF
mp2_type DF
e_convergence 7
reference rhf
}

energy('mp2/aug-cc-pv[tq]z', bsse_type='cp')
--------------------------------------------------------------------------

    Molecular point group: c1
  Charge       = 0
  Multiplicity = 1
  Basis Set: AUG-CC-PVTZ
    Blend: AUG-CC-PVTZ
  Basis Set: (AUG-CC-PVTZ AUX)
    Blend: AUG-CC-PVTZ-JKFIT
  @DF-RHF Final Energy:   -78.06470376424230
    Total Energy =                        -78.0647037642422958
  Basis Set: (AUG-CC-PVTZ AUX)
    Blend: AUG-CC-PVTZ-RI
	 Reference Energy          =     -78.0647037642422958 [Eh]
	 Singles Energy            =      -0.0000000000000000 [Eh]
	 Same-Spin Energy          =      -0.0765609910398878 [Eh]
	 Opposite-Spin Energy      =      -0.2985733263403094 [Eh]
	 Correlation Energy        =      -0.3751343173801973 [Eh]
	 Total Energy              =     -78.4398380816224972 [Eh]
	 SCS Total Energy          =     -78.4485120861972973 [Eh]
    Molecular point group: c1
  Basis Set: AUG-CC-PVQZ
    Blend: AUG-CC-PVQZ
  Basis Set: (AUG-CC-PVQZ AUX)
    Blend: AUG-CC-PVQZ-JKFIT
  @DF-RHF Final Energy:   -78.06941660819818
    Total Energy =                        -78.0694166081981820
  Basis Set: (AUG-CC-PVQZ AUX)
  @DF-RHF Final Energy:   -78.06479328804716
    Total Energy =                        -78.0647932880471558
  @DF-RHF Final Energy:   -78.06944668739058
    Total Energy =                        -78.0694466873905810
  @DF-RHF Final Energy:  -246.77888773879081
    Total Energy =                       -246.7788877387907860
  @DF-RHF Final Energy:  -246.79293487347672
    Total Energy =                       -246.7929348734767245
  @DF-RHF Final Energy:  -246.77875530143407
    Total Energy =                       -246.7787553014341029
  @DF-RHF Final Energy:  -246.79289973234427
    Total Energy =                       -246.7928997323442672
  Multiplicity = 1
  @DF-RHF Final Energy:  -324.83647058839585
    Total Energy =                       -324.8364705883958550
	 Singles Energy            =      -0.0000000000000000 [Eh]
	 Same-Spin Energy          =      -0.3510387829091098 [Eh]
	 Opposite-Spin Energy      =      -1.1458618054732357 [Eh]
	 Correlation Energy        =      -1.4969005883823456 [Eh]
	 Total Energy              =    -326.3333711767782006 [Eh]
	 SCS Total Energy          =    -326.3285176826001361 [Eh]
    Molecular point group: c1

    Geometry (in Angstrom), charge = 0, multiplicity = 1:

       Center              X                  Y                   Z               Mass
    ------------   -----------------  -----------------  -----------------  -----------------
         N            1.384770702643    -0.000214963750    -0.761982917034    14.003074004430
         C            0.682739702643    -1.140220963750    -0.801366917034    12.000000000000
         H            1.262108702643    -2.054943963750    -0.767562917034     1.007825032230
         C           -0.706333297357    -1.193095963750    -0.886782917034    12.000000000000
         H           -1.210699297357    -2.148543963750    -0.918755917034     1.007825032230
         C           -1.418225297357     0.000151036250    -0.934263917034    12.000000000000
         H           -2.497307297357     0.000276036250    -1.002616917034     1.007825032230
         C           -0.706012297357     1.193193036250    -0.886924917034    12.000000000000
         H           -1.210123297357     2.148766036250    -0.918974917034     1.007825032230
         C            0.683040702643     1.139974036250    -0.801553917034    12.000000000000
         H            1.262649702643     2.054529036250    -0.767944917034     1.007825032230
         C            0.021100702643     0.666448036250     2.383520082966    12.000000000000
         H            0.931574702643     1.225934036250     2.224405082966     1.007825032230
         H           -0.888447297357     1.228852036250     2.540481082966     1.007825032230
         C            0.021433702643    -0.666238963750     2.383652082966    12.000000000000
         H            0.932168702643    -1.225321963750     2.224642082966     1.007825032230
         H           -0.887854297357    -1.229063963750     2.540742082966     1.007825032230

  Charge       = 0
  Multiplicity = 1
  Basis Set: AUG-CC-PVQZ
    Blend: AUG-CC-PVQZ
  Basis Set: (AUG-CC-PVQZ AUX)
    Blend: AUG-CC-PVQZ-JKFIT

    Orbital Energies [Eh]
    ---------------------

    Doubly Occupied:

       1A    -15.561878     2A    -11.272192     3A    -11.272176
       4A    -11.255983     5A    -11.238696     6A    -11.238641
       7A    -11.219960     8A    -11.218236     9A     -1.254254
      10A     -1.087348    11A     -1.031343    12A     -1.025532
      13A     -0.857323    14A     -0.853922    15A     -0.785439
      16A     -0.720261    17A     -0.658589    18A     -0.652852
      19A     -0.636874    20A     -0.596354    21A     -0.579480
      22A     -0.575198    23A     -0.540958    24A     -0.518307
      25A     -0.500832    26A     -0.418011    27A     -0.383099
      28A     -0.363796    29A     -0.345595

  @DF-RHF Final Energy:  -324.85518119687822

   => Energetics <=

    Nuclear Repulsion Energy =            336.9227893256737616
    One-Electron Energy =               -1106.2296793626126146
    Two-Electron Energy =                 444.4517088400606326
    Total Energy =                       -324.8551811968782204

  Dipole Moment: [D]
     X:    -2.3035      Y:     0.0003      Z:    -0.2581     Total:     2.3180

  Basis Set: (AUG-CC-PVQZ AUX)
    Blend: AUG-CC-PVQZ-RI
	 Reference Energy          =    -324.8551811968782204 [Eh]
	 Singles Energy            =      -0.0000000000000000 [Eh]
	 Same-Spin Energy          =      -0.3711625745770195 [Eh]
	 Opposite-Spin Energy      =      -1.2834740338523578 [Eh]
	 Correlation Energy        =      -1.6546366084293773 [Eh]
	 Total Energy              =    -326.5098178053075912 [Eh]

	 ================> DF-SCS-MP2 Energies <==================
	-----------------------------------------------------------
	 SCS Same-Spin Scale       =       0.3333333333333333 [-]
	 SCS Opposite-Spin Scale   =       1.2000000000000000 [-]
	 SCS Same-Spin Energy      =      -0.1237208581923398 [Eh]
	 SCS Opposite-Spin Energy  =      -1.5401688406228293 [Eh]
	 SCS Correlation Energy    =      -1.6638896988151692 [Eh]
	 SCS Total Energy          =    -326.5190708956934031 [Eh]
	-----------------------------------------------------------

*** Psi4 exiting successfully. Buy a developer a beer!
