                               Psi4 1.4a2.dev224

  ==> Input File <==

--------------------------------------------------------------------------
#Generated by lconvert.py for cbs job

memory 40 GB

molecule  {
0 1
  N        1.3813820    -0.0002330     0.1314640
  C        0.6793510    -1.1402390     0.0920800
  H        1.2587200    -2.0549620     0.1258840
  C       -0.7097220    -1.1931140     0.0066640
  H       -1.2140880    -2.1485620    -0.0253090
  C       -1.4216140     0.0001330    -0.0408170
  H       -2.5006960     0.0002580    -0.1091700
  C       -0.7094010     1.1931750     0.0065220
  H       -1.2135120     2.1487480    -0.0255280
  C        0.6796520     1.1399560     0.0918930
  H        1.2592610     2.0545110     0.1255020
--
0 1
  C        0.0133800     0.6664090     2.7955790
  H        0.9238540     1.2258950     2.6364650
  H       -0.8961680     1.2288130     2.9525400
  C        0.0137120    -0.6662780     2.7957120
  H        0.9244480    -1.2253610     2.6367010
  H       -0.8955760    -1.2291030     2.9528010
units angstrom
no_reorient
symmetry c1
}

set {
scf_type DF
mp2_type DF
e_convergence 7
reference rhf
}

energy('mp2/aug-cc-pv[tq]z', bsse_type='cp')
--------------------------------------------------------------------------

    Molecular point group: c1
  Charge       = 0
  Multiplicity = 1
  Basis Set: AUG-CC-PVTZ
    Blend: AUG-CC-PVTZ
  Basis Set: (AUG-CC-PVTZ AUX)
    Blend: AUG-CC-PVTZ-JKFIT
  @DF-RHF Final Energy:   -78.06470375713583
    Total Energy =                        -78.0647037571358311
  Basis Set: (AUG-CC-PVTZ AUX)
    Blend: AUG-CC-PVTZ-RI
	 Reference Energy          =     -78.0647037571358311 [Eh]
	 Singles Energy            =      -0.0000000000000000 [Eh]
	 Same-Spin Energy          =      -0.0765609916671098 [Eh]
	 Opposite-Spin Energy      =      -0.2985733301286021 [Eh]
	 Correlation Energy        =      -0.3751343217957119 [Eh]
	 Total Energy              =     -78.4398380789315439 [Eh]
	 SCS Total Energy          =     -78.4485120838458556 [Eh]
    Molecular point group: c1
  Basis Set: AUG-CC-PVQZ
    Blend: AUG-CC-PVQZ
  Basis Set: (AUG-CC-PVQZ AUX)
    Blend: AUG-CC-PVQZ-JKFIT
  @DF-RHF Final Energy:   -78.06941660080683
    Total Energy =                        -78.0694166008068322
  Basis Set: (AUG-CC-PVQZ AUX)
  @DF-RHF Final Energy:   -78.06483094249674
    Total Energy =                        -78.0648309424967408
  @DF-RHF Final Energy:   -78.06945888000664
    Total Energy =                        -78.0694588800066356
  @DF-RHF Final Energy:  -246.77896645998712
    Total Energy =                       -246.7789664599871458
  @DF-RHF Final Energy:  -246.79295048954032
    Total Energy =                       -246.7929504895403170
  @DF-RHF Final Energy:  -246.77875530112095
    Total Energy =                       -246.7787553011209525
  @DF-RHF Final Energy:  -246.79289973509114
    Total Energy =                       -246.7928997350911686
  Multiplicity = 1
  @DF-RHF Final Energy:  -324.81756258414936
    Total Energy =                       -324.8175625841493570
	 Singles Energy            =      -0.0000000000000000 [Eh]
	 Same-Spin Energy          =      -0.3570359407790691 [Eh]
	 Opposite-Spin Energy      =      -1.1542804778708153 [Eh]
	 Correlation Energy        =      -1.5113164186498844 [Eh]
	 Total Energy              =    -326.3288790027992263 [Eh]
	 SCS Total Energy          =    -326.3217111378540380 [Eh]
    Molecular point group: c1

    Geometry (in Angstrom), charge = 0, multiplicity = 1:

       Center              X                  Y                   Z               Mass
    ------------   -----------------  -----------------  -----------------  -----------------
         N            1.385904919800    -0.000209466056    -0.635958096817    14.003074004430
         C            0.683873919800    -1.140215466056    -0.675342096817    12.000000000000
         H            1.263242919800    -2.054938466056    -0.641538096817     1.007825032230
         C           -0.705199080200    -1.193090466056    -0.760758096817    12.000000000000
         H           -1.209565080200    -2.148538466056    -0.792731096817     1.007825032230
         C           -1.417091080200     0.000156533944    -0.808239096817    12.000000000000
         H           -2.496173080200     0.000281533944    -0.876592096817     1.007825032230
         C           -0.704878080200     1.193198533944    -0.760900096817    12.000000000000
         H           -1.208989080200     2.148771533944    -0.792950096817     1.007825032230
         C            0.684174919800     1.139979533944    -0.675529096817    12.000000000000
         H            1.263783919800     2.054534533944    -0.641920096817     1.007825032230
         C            0.017902919800     0.666432533944     2.028156903183    12.000000000000
         H            0.928376919800     1.225918533944     1.869042903183     1.007825032230
         H           -0.891645080200     1.228836533944     2.185117903183     1.007825032230
         C            0.018234919800    -0.666254466056     2.028289903183    12.000000000000
         H            0.928970919800    -1.225337466056     1.869278903183     1.007825032230
         H           -0.891053080200    -1.229079466056     2.185378903183     1.007825032230

  Charge       = 0
  Multiplicity = 1
  Basis Set: AUG-CC-PVQZ
    Blend: AUG-CC-PVQZ
  Basis Set: (AUG-CC-PVQZ AUX)
    Blend: AUG-CC-PVQZ-JKFIT

    Orbital Energies [Eh]
    ---------------------

    Doubly Occupied:

       1A    -15.560003     2A    -11.273688     3A    -11.273672
       4A    -11.254706     5A    -11.239078     6A    -11.239018
       7A    -11.214074     8A    -11.212347     9A     -1.255557
      10A     -1.088108    11A     -1.033458    12A     -1.023095
      13A     -0.858542    14A     -0.855057    15A     -0.784075
      16A     -0.721563    17A     -0.659252    18A     -0.654880
      19A     -0.635497    20A     -0.597847    21A     -0.578795
      22A     -0.575249    23A     -0.543752    24A     -0.519384
      25A     -0.498767    26A     -0.418243    27A     -0.384601
      28A     -0.350910    29A     -0.346514

  @DF-RHF Final Energy:  -324.83620527446396

   => Energetics <=

    Nuclear Repulsion Energy =            349.8254979189872529
    One-Electron Energy =               -1132.0239377679367863
    Two-Electron Energy =                 457.3622345744855693
    Total Energy =                       -324.8362052744639641

  Dipole Moment: [D]
     X:    -2.3053      Y:     0.0003      Z:    -0.3814     Total:     2.3367

  Basis Set: (AUG-CC-PVQZ AUX)
    Blend: AUG-CC-PVQZ-RI
	 Reference Energy          =    -324.8362052744639641 [Eh]
	 Singles Energy            =      -0.0000000000000000 [Eh]
	 Same-Spin Energy          =      -0.3771317987414395 [Eh]
	 Opposite-Spin Energy      =      -1.2909418298491895 [Eh]
	 Correlation Energy        =      -1.6680736285906290 [Eh]
	 Total Energy              =    -326.5042789030545691 [Eh]

	 ================> DF-SCS-MP2 Energies <==================
	-----------------------------------------------------------
	 SCS Same-Spin Scale       =       0.3333333333333333 [-]
	 SCS Opposite-Spin Scale   =       1.2000000000000000 [-]
	 SCS Same-Spin Energy      =      -0.1257105995804798 [Eh]
	 SCS Opposite-Spin Energy  =      -1.5491301958190273 [Eh]
	 SCS Correlation Energy    =      -1.6748407953995073 [Eh]
	 SCS Total Energy          =    -326.5110460698634824 [Eh]
	-----------------------------------------------------------

*** Psi4 exiting successfully. Buy a developer a beer!
