                               Psi4 1.4a2.dev224

  ==> Input File <==

--------------------------------------------------------------------------
#Generated by lconvert.py for cbs job

memory 40 GB

molecule  {
0 1
  C       -2.5333090    -0.2948790     0.7131490
  H       -2.5636270    -0.9770820    -0.1364230
  H       -2.5669780    -0.8958760     1.6217320
  H       -3.4344260     0.3159570     0.6841040
  C       -1.2718850     0.5576550     0.6743550
  H       -1.2710260     1.2565660     1.5143190
  H       -1.2666330     1.1678960    -0.2318270
  C       -0.0001350    -0.2784180     0.7196030
  H       -0.0001590    -0.8872300     1.6286370
  H       -0.0003650    -0.9807140    -0.1194040
  C        1.2718950     0.5573820     0.6740610
  H        1.2709720     1.2566330     1.5137050
  H        1.2666360     1.1671830    -0.2323870
  C        2.5334040    -0.2949420     0.7132800
  H        2.5639190    -0.9777740    -0.1357780
  H        3.4343100     0.3162540     0.6835990
  H        2.5675580    -0.8952090     1.6223290
--
0 1
  C        2.5335560     0.2887730     4.8198280
  H        2.5681410     0.8885790     3.9105030
  H        2.5640600     0.9719790     5.6685730
  H        3.4342370    -0.3227250     4.8500370
  C        1.2717300    -0.5631150     4.8591320
  H        1.2662860    -1.1728420     5.7656290
  H        1.2706000    -1.2624680     4.0195510
  C       -0.0000450     0.2729840     4.8135160
  H       -0.0002000     0.9752940     5.6525000
  H        0.0000320     0.8817610     3.9044460
  C       -1.2718060    -0.5631580     4.8587870
  H       -1.2664230    -1.1732670     5.7650380
  H       -1.2706990    -1.2621800     4.0189240
  C       -2.5335250     0.2888890     4.8198100
  H       -2.5677180     0.8894220     3.9109330
  H       -3.4343270    -0.3224100     4.8493230
  H       -2.5640640     0.9714750     5.6690710
units angstrom
no_reorient
symmetry c1
}

set {
scf_type DF
mp2_type DF
e_convergence 7
reference rhf
}

energy('mp2/aug-cc-pv[tq]z', bsse_type='cp')
--------------------------------------------------------------------------

    Molecular point group: c1
  Charge       = 0
  Multiplicity = 1
  Basis Set: AUG-CC-PVTZ
    Blend: AUG-CC-PVTZ
  Basis Set: (AUG-CC-PVTZ AUX)
    Blend: AUG-CC-PVTZ-JKFIT
  @DF-RHF Final Energy:  -196.40438182389065
    Total Energy =                       -196.4043818238906454
  Basis Set: (AUG-CC-PVTZ AUX)
    Blend: AUG-CC-PVTZ-RI
	 Reference Energy          =    -196.4043818238906454 [Eh]
	 Singles Energy            =      -0.0000000000000000 [Eh]
	 Same-Spin Energy          =      -0.2078833717280166 [Eh]
	 Opposite-Spin Energy      =      -0.7930658507615109 [Eh]
	 Correlation Energy        =      -1.0009492224895276 [Eh]
	 Total Energy              =    -197.4053310463801836 [Eh]
	 SCS Total Energy          =    -197.4253553020471372 [Eh]
    Molecular point group: c1
  Basis Set: AUG-CC-PVQZ
    Blend: AUG-CC-PVQZ
  Basis Set: (AUG-CC-PVQZ AUX)
    Blend: AUG-CC-PVQZ-JKFIT
  @DF-RHF Final Energy:  -196.41620403420018
    Total Energy =                       -196.4162040342001774
  Basis Set: (AUG-CC-PVQZ AUX)
  @DF-RHF Final Energy:  -196.40443231908262
    Total Energy =                       -196.4044323190826162
  @DF-RHF Final Energy:  -196.41622420682512
    Total Energy =                       -196.4162242068251203
  @DF-RHF Final Energy:  -196.40443127494535
    Total Energy =                       -196.4044312749453525
  @DF-RHF Final Energy:  -196.41622315309471
    Total Energy =                       -196.4162231530947054
  @DF-RHF Final Energy:  -196.40438077218974
    Total Energy =                       -196.4043807721897394
  @DF-RHF Final Energy:  -196.41620297482078
    Total Energy =                       -196.4162029748207772
  Multiplicity = 1
  @DF-RHF Final Energy:  -392.80679095739026
    Total Energy =                       -392.8067909573902625
	 Singles Energy            =      -0.0000000000000000 [Eh]
	 Same-Spin Energy          =      -0.4198120761981821 [Eh]
	 Opposite-Spin Energy      =      -1.5931894218588318 [Eh]
	 Correlation Energy        =      -2.0130014980570139 [Eh]
	 Total Energy              =    -394.8197924554472706 [Eh]
	 SCS Total Energy          =    -394.8585556223536059 [Eh]
    Molecular point group: c1

    Geometry (in Angstrom), charge = 0, multiplicity = 1:

       Center              X                  Y                   Z               Mass
    ------------   -----------------  -----------------  -----------------  -----------------
         C           -2.533299753930    -0.291984997609    -2.053402286403    12.000000000000
         H           -2.563617753930    -0.974187997609    -2.902974286403     1.007825032230
         H           -2.566968753930    -0.892981997609    -1.144819286403     1.007825032230
         H           -3.434416753930     0.318851002391    -2.082447286403     1.007825032230
         C           -1.271875753930     0.560549002391    -2.092196286403    12.000000000000
         H           -1.271016753930     1.259460002391    -1.252232286403     1.007825032230
         H           -1.266623753930     1.170790002391    -2.998378286403     1.007825032230
         C           -0.000125753930    -0.275523997609    -2.046948286403    12.000000000000
         H           -0.000149753930    -0.884335997609    -1.137914286403     1.007825032230
         H           -0.000355753930    -0.977819997609    -2.885955286403     1.007825032230
         C            1.271904246070     0.560276002391    -2.092490286403    12.000000000000
         H            1.270981246070     1.259527002391    -1.252846286403     1.007825032230
         H            1.266645246070     1.170077002391    -2.998938286403     1.007825032230
         C            2.533413246070    -0.292047997609    -2.053271286403    12.000000000000
         H            2.563928246070    -0.974879997609    -2.902329286403     1.007825032230
         H            3.434319246070     0.319148002391    -2.082952286403     1.007825032230
         H            2.567567246070    -0.892314997609    -1.144222286403     1.007825032230
         C            2.533565246070     0.291667002391     2.053276713597    12.000000000000
         H            2.568150246070     0.891473002391     1.143951713597     1.007825032230
         H            2.564069246070     0.974873002391     2.902021713597     1.007825032230
         H            3.434246246070    -0.319830997609     2.083485713597     1.007825032230
         C            1.271739246070    -0.560220997609     2.092580713597    12.000000000000
         H            1.266295246070    -1.169947997609     2.999077713597     1.007825032230
         H            1.270609246070    -1.259573997609     1.252999713597     1.007825032230
         C           -0.000035753930     0.275878002391     2.046964713597    12.000000000000
         H           -0.000190753930     0.978188002391     2.885948713597     1.007825032230
         H            0.000041246070     0.884655002391     1.137894713597     1.007825032230
         C           -1.271796753930    -0.560263997609     2.092235713597    12.000000000000
         H           -1.266413753930    -1.170372997609     2.998486713597     1.007825032230
         H           -1.270689753930    -1.259285997609     1.252372713597     1.007825032230
         C           -2.533515753930     0.291783002391     2.053258713597    12.000000000000
         H           -2.567708753930     0.892316002391     1.144381713597     1.007825032230
         H           -3.434317753930    -0.319515997609     2.082771713597     1.007825032230
         H           -2.564054753930     0.974369002391     2.902519713597     1.007825032230

  Charge       = 0
  Multiplicity = 1
  Basis Set: AUG-CC-PVQZ
    Blend: AUG-CC-PVQZ
  Basis Set: (AUG-CC-PVQZ AUX)
    Blend: AUG-CC-PVQZ-JKFIT

    Orbital Energies [Eh]
    ---------------------

    Doubly Occupied:

       1A    -11.212173     2A    -11.212171     3A    -11.212103
       4A    -11.212101     5A    -11.209663     6A    -11.209661
       7A    -11.206279     8A    -11.206276     9A    -11.206275
      10A    -11.206273    11A     -1.082972    12A     -1.080514
      13A     -1.016911    14A     -1.014629    15A     -0.920497
      16A     -0.918249    17A     -0.820366    18A     -0.820351
      19A     -0.787465    20A     -0.784154    21A     -0.656701
      22A     -0.640082    23A     -0.600755    24A     -0.600060
      25A     -0.598079    26A     -0.586797    27A     -0.555179
      28A     -0.554021    29A     -0.548047    30A     -0.547784
      31A     -0.531640    32A     -0.521467    33A     -0.496028
      34A     -0.494232    35A     -0.478377    36A     -0.475203
      37A     -0.466422    38A     -0.465901    39A     -0.459009
      40A     -0.453856    41A     -0.447790    42A     -0.447098

  @DF-RHF Final Energy:  -392.83037736313611

   => Energetics <=

    Nuclear Repulsion Energy =            566.0185640712442137
    One-Electron Energy =               -1651.7706478620120834
    Two-Electron Energy =                 692.9217064276316478
    Total Energy =                       -392.8303773631361082

  Dipole Moment: [D]
     X:    -0.0000      Y:    -0.0000      Z:     0.0000     Total:     0.0000

  Basis Set: (AUG-CC-PVQZ AUX)
    Blend: AUG-CC-PVQZ-RI
	 Reference Energy          =    -392.8303773631361082 [Eh]
	 Singles Energy            =      -0.0000000000000000 [Eh]
	 Same-Spin Energy          =      -0.4430912345093931 [Eh]
	 Opposite-Spin Energy      =      -1.7619895619463055 [Eh]
	 Correlation Energy        =      -2.2050807964556984 [Eh]
	 Total Energy              =    -395.0354581595918262 [Eh]

	 ================> DF-SCS-MP2 Energies <==================
	-----------------------------------------------------------
	 SCS Same-Spin Scale       =       0.3333333333333333 [-]
	 SCS Opposite-Spin Scale   =       1.2000000000000000 [-]
	 SCS Same-Spin Energy      =      -0.1476970781697977 [Eh]
	 SCS Opposite-Spin Energy  =      -2.1143874743355666 [Eh]
	 SCS Correlation Energy    =      -2.2620845525053643 [Eh]
	 SCS Total Energy          =    -395.0924619156414792 [Eh]
	-----------------------------------------------------------

*** Psi4 exiting successfully. Buy a developer a beer!
