                               Psi4 1.4a2.dev224

  ==> Input File <==

--------------------------------------------------------------------------
#Generated by lconvert.py for cbs job

memory 40 GB

molecule  {
0 1
  C       -2.5333090    -0.2948790     0.7131490
  H       -2.5636270    -0.9770820    -0.1364230
  H       -2.5669780    -0.8958760     1.6217320
  H       -3.4344260     0.3159570     0.6841040
  C       -1.2718850     0.5576550     0.6743550
  H       -1.2710260     1.2565660     1.5143190
  H       -1.2666330     1.1678960    -0.2318270
  C       -0.0001350    -0.2784180     0.7196030
  H       -0.0001590    -0.8872300     1.6286370
  H       -0.0003650    -0.9807140    -0.1194040
  C        1.2718950     0.5573820     0.6740610
  H        1.2709720     1.2566330     1.5137050
  H        1.2666360     1.1671830    -0.2323870
  C        2.5334040    -0.2949420     0.7132800
  H        2.5639190    -0.9777740    -0.1357780
  H        3.4343100     0.3162540     0.6835990
  H        2.5675580    -0.8952090     1.6223290
--
0 1
  C        2.5335590     0.3071920     3.9156900
  H        2.5681440     0.9069990     3.0063640
  H        2.5640630     0.9903980     4.7644350
  H        3.4342400    -0.3043050     3.9458990
  C        1.2717330    -0.5446950     3.9549940
  H        1.2662890    -1.1544230     4.8614910
  H        1.2706030    -1.2440490     3.1154130
  C       -0.0000420     0.2914040     3.9093780
  H       -0.0001970     0.9937140     4.7483620
  H        0.0000350     0.9001800     3.0003080
  C       -1.2718030    -0.5447380     3.9546490
  H       -1.2664210    -1.1548480     4.8608990
  H       -1.2706960    -1.2437610     3.1147860
  C       -2.5335220     0.3073080     3.9156720
  H       -2.5677150     0.9078420     3.0067950
  H       -3.4343240    -0.3039900     3.9451850
  H       -2.5640620     0.9898940     4.7649330
units angstrom
no_reorient
symmetry c1
}

set {
scf_type DF
mp2_type DF
e_convergence 7
reference rhf
}

energy('mp2/aug-cc-pv[tq]z', bsse_type='cp')
--------------------------------------------------------------------------

    Molecular point group: c1
  Charge       = 0
  Multiplicity = 1
  Basis Set: AUG-CC-PVTZ
    Blend: AUG-CC-PVTZ
  Basis Set: (AUG-CC-PVTZ AUX)
    Blend: AUG-CC-PVTZ-JKFIT
  @DF-RHF Final Energy:  -196.40438181496492
    Total Energy =                       -196.4043818149649212
  Basis Set: (AUG-CC-PVTZ AUX)
    Blend: AUG-CC-PVTZ-RI
	 Reference Energy          =    -196.4043818149649212 [Eh]
	 Singles Energy            =      -0.0000000000000000 [Eh]
	 Same-Spin Energy          =      -0.2078833758552719 [Eh]
	 Opposite-Spin Energy      =      -0.7930658546844088 [Eh]
	 Correlation Energy        =      -1.0009492305396808 [Eh]
	 Total Energy              =    -197.4053310455045960 [Eh]
	 SCS Total Energy          =    -197.4253552992046252 [Eh]
    Molecular point group: c1
  Basis Set: AUG-CC-PVQZ
    Blend: AUG-CC-PVQZ
  Basis Set: (AUG-CC-PVQZ AUX)
    Blend: AUG-CC-PVQZ-JKFIT
  @DF-RHF Final Energy:  -196.41620402081270
    Total Energy =                       -196.4162040208126996
  Basis Set: (AUG-CC-PVQZ AUX)
  @DF-RHF Final Energy:  -196.40450409947073
    Total Energy =                       -196.4045040994707279
  @DF-RHF Final Energy:  -196.41624351285830
    Total Energy =                       -196.4162435128583013
  @DF-RHF Final Energy:  -196.40450306420814
    Total Energy =                       -196.4045030642081429
  @DF-RHF Final Energy:  -196.41624247040082
    Total Energy =                       -196.4162424704008174
  @DF-RHF Final Energy:  -196.40438077106216
    Total Energy =                       -196.4043807710621650
  @DF-RHF Final Energy:  -196.41620297613312
    Total Energy =                       -196.4162029761331212
  Multiplicity = 1
  @DF-RHF Final Energy:  -392.77700829811141
    Total Energy =                       -392.7770082981114683
	 Singles Energy            =      -0.0000000000000000 [Eh]
	 Same-Spin Energy          =      -0.4301252711248725 [Eh]
	 Opposite-Spin Energy      =      -1.6077067187399290 [Eh]
	 Correlation Energy        =      -2.0378319898648014 [Eh]
	 Total Energy              =    -394.8148402879762102 [Eh]
	 SCS Total Energy          =    -394.8496314509743002 [Eh]
    Molecular point group: c1

    Geometry (in Angstrom), charge = 0, multiplicity = 1:

       Center              X                  Y                   Z               Mass
    ------------   -----------------  -----------------  -----------------  -----------------
         C           -2.533301239950    -0.301194782232    -1.601333272423    12.000000000000
         H           -2.563619239950    -0.983397782232    -2.450905272423     1.007825032230
         H           -2.566970239950    -0.902191782232    -0.692750272423     1.007825032230
         H           -3.434418239950     0.309641217768    -1.630378272423     1.007825032230
         C           -1.271877239950     0.551339217768    -1.640127272423    12.000000000000
         H           -1.271018239950     1.250250217768    -0.800163272423     1.007825032230
         H           -1.266625239950     1.161580217768    -2.546309272423     1.007825032230
         C           -0.000127239950    -0.284733782232    -1.594879272423    12.000000000000
         H           -0.000151239950    -0.893545782232    -0.685845272423     1.007825032230
         H           -0.000357239950    -0.987029782232    -2.433886272423     1.007825032230
         C            1.271902760050     0.551066217768    -1.640421272423    12.000000000000
         H            1.270979760050     1.250317217768    -0.800777272423     1.007825032230
         H            1.266643760050     1.160867217768    -2.546869272423     1.007825032230
         C            2.533411760050    -0.301257782232    -1.601202272423    12.000000000000
         H            2.563926760050    -0.984089782232    -2.450260272423     1.007825032230
         H            3.434317760050     0.309938217768    -1.630883272423     1.007825032230
         H            2.567565760050    -0.901524782232    -0.692153272423     1.007825032230
         C            2.533566760050     0.300876217768     1.601207727577    12.000000000000
         H            2.568151760050     0.900683217768     0.691881727577     1.007825032230
         H            2.564070760050     0.984082217768     2.449952727577     1.007825032230
         H            3.434247760050    -0.310620782232     1.631416727577     1.007825032230
         C            1.271740760050    -0.551010782232     1.640511727577    12.000000000000
         H            1.266296760050    -1.160738782232     2.547008727577     1.007825032230
         H            1.270610760050    -1.250364782232     0.800930727577     1.007825032230
         C           -0.000034239950     0.285088217768     1.594895727577    12.000000000000
         H           -0.000189239950     0.987398217768     2.433879727577     1.007825032230
         H            0.000042760050     0.893864217768     0.685825727577     1.007825032230
         C           -1.271795239950    -0.551053782232     1.640166727577    12.000000000000
         H           -1.266413239950    -1.161163782232     2.546416727577     1.007825032230
         H           -1.270688239950    -1.250076782232     0.800303727577     1.007825032230
         C           -2.533514239950     0.300992217768     1.601189727577    12.000000000000
         H           -2.567707239950     0.901526217768     0.692312727577     1.007825032230
         H           -3.434316239950    -0.310305782232     1.630702727577     1.007825032230
         H           -2.564054239950     0.983578217768     2.450450727577     1.007825032230

  Charge       = 0
  Multiplicity = 1
  Basis Set: AUG-CC-PVQZ
    Blend: AUG-CC-PVQZ
  Basis Set: (AUG-CC-PVQZ AUX)
    Blend: AUG-CC-PVQZ-JKFIT

    Orbital Energies [Eh]
    ---------------------

    Doubly Occupied:

       1A    -11.210771     2A    -11.210769     3A    -11.210728
       4A    -11.210726     5A    -11.207068     6A    -11.207067
       7A    -11.204187     8A    -11.204184     9A    -11.204182
      10A    -11.204181    11A     -1.091278    12A     -1.073826
      13A     -1.024379    14A     -1.008337    15A     -0.927567
      16A     -0.911751    17A     -0.821343    18A     -0.820307
      19A     -0.796668    20A     -0.777733    21A     -0.682639
      22A     -0.622261    23A     -0.615129    24A     -0.605292
      25A     -0.594724    26A     -0.565981    27A     -0.560968
      28A     -0.553055    29A     -0.547789    30A     -0.547488
      31A     -0.544572    32A     -0.505928    33A     -0.495768
      34A     -0.493363    35A     -0.482371    36A     -0.481510
      37A     -0.471197    38A     -0.470997    39A     -0.450598
      40A     -0.449314    41A     -0.444227    42A     -0.436097

  @DF-RHF Final Energy:  -392.80052332315029

   => Energetics <=

    Nuclear Repulsion Energy =            605.4898778936944836
    One-Electron Energy =               -1730.6841501104702274
    Two-Electron Energy =                 732.3937488936254567
    Total Energy =                       -392.8005233231502871

  Dipole Moment: [D]
     X:    -0.0000      Y:    -0.0000      Z:    -0.0001     Total:     0.0001

  Basis Set: (AUG-CC-PVQZ AUX)
    Blend: AUG-CC-PVQZ-RI
	 Reference Energy          =    -392.8005233231502871 [Eh]
	 Singles Energy            =      -0.0000000000000000 [Eh]
	 Same-Spin Energy          =      -0.4532960481778618 [Eh]
	 Opposite-Spin Energy      =      -1.7746369099852624 [Eh]
	 Correlation Energy        =      -2.2279329581631240 [Eh]
	 Total Energy              =    -395.0284562813134244 [Eh]

	 ================> DF-SCS-MP2 Energies <==================
	-----------------------------------------------------------
	 SCS Same-Spin Scale       =       0.3333333333333333 [-]
	 SCS Opposite-Spin Scale   =       1.2000000000000000 [-]
	 SCS Same-Spin Energy      =      -0.1510986827259539 [Eh]
	 SCS Opposite-Spin Energy  =      -2.1295642919823146 [Eh]
	 SCS Correlation Energy    =      -2.2806629747082683 [Eh]
	 SCS Total Energy          =    -395.0811862978585509 [Eh]
	-----------------------------------------------------------

*** Psi4 exiting successfully. Buy a developer a beer!
