                               Psi4 1.4a2.dev224

  ==> Input File <==

--------------------------------------------------------------------------
#Generated by lconvert.py for cbs job

memory 40 GB

molecule  {
0 1
  C       -2.5333090    -0.2948790     0.7131490
  H       -2.5636270    -0.9770820    -0.1364230
  H       -2.5669780    -0.8958760     1.6217320
  H       -3.4344260     0.3159570     0.6841040
  C       -1.2718850     0.5576550     0.6743550
  H       -1.2710260     1.2565660     1.5143190
  H       -1.2666330     1.1678960    -0.2318270
  C       -0.0001350    -0.2784180     0.7196030
  H       -0.0001590    -0.8872300     1.6286370
  H       -0.0003650    -0.9807140    -0.1194040
  C        1.2718950     0.5573820     0.6740610
  H        1.2709720     1.2566330     1.5137050
  H        1.2666360     1.1671830    -0.2323870
  C        2.5334040    -0.2949420     0.7132800
  H        2.5639190    -0.9777740    -0.1357780
  H        3.4343100     0.3162540     0.6835990
  H        2.5675580    -0.8952090     1.6223290
--
0 1
  C        2.5335600     0.3143480     3.5644120
  H        2.5681450     0.9141550     2.6550860
  H        2.5640640     0.9975550     4.4131570
  H        3.4342410    -0.2971490     3.5946210
  C        1.2717340    -0.5375390     3.6037160
  H        1.2662900    -1.1472670     4.5102130
  H        1.2706040    -1.2368930     2.7641350
  C       -0.0000410     0.2985600     3.5581000
  H       -0.0001960     1.0008700     4.3970840
  H        0.0000360     0.9073360     2.6490300
  C       -1.2718020    -0.5375820     3.6033710
  H       -1.2664190    -1.1476920     4.5096210
  H       -1.2706950    -1.2366050     2.7635080
  C       -2.5335210     0.3144640     3.5643940
  H       -2.5677140     0.9149980     2.6555170
  H       -3.4343230    -0.2968340     3.5939070
  H       -2.5640600     0.9970500     4.4136550
units angstrom
no_reorient
symmetry c1
}

set {
scf_type DF
mp2_type DF
e_convergence 7
reference rhf
}

energy('mp2/aug-cc-pv[tq]z', bsse_type='cp')
--------------------------------------------------------------------------

    Molecular point group: c1
  Charge       = 0
  Multiplicity = 1
  Basis Set: AUG-CC-PVTZ
    Blend: AUG-CC-PVTZ
  Basis Set: (AUG-CC-PVTZ AUX)
    Blend: AUG-CC-PVTZ-JKFIT
  @DF-RHF Final Energy:  -196.40438180846908
    Total Energy =                       -196.4043818084690827
  Basis Set: (AUG-CC-PVTZ AUX)
    Blend: AUG-CC-PVTZ-RI
	 Reference Energy          =    -196.4043818084690827 [Eh]
	 Singles Energy            =      -0.0000000000000000 [Eh]
	 Same-Spin Energy          =      -0.2078833766175110 [Eh]
	 Opposite-Spin Energy      =      -0.7930658594762587 [Eh]
	 Correlation Energy        =      -1.0009492360937697 [Eh]
	 Total Energy              =    -197.4053310445628426 [Eh]
	 SCS Total Energy          =    -197.4253552987131002 [Eh]
    Molecular point group: c1
  Basis Set: AUG-CC-PVQZ
    Blend: AUG-CC-PVQZ
  Basis Set: (AUG-CC-PVQZ AUX)
    Blend: AUG-CC-PVQZ-JKFIT
  @DF-RHF Final Energy:  -196.41620401667512
    Total Energy =                       -196.4162040166751240
  Basis Set: (AUG-CC-PVQZ AUX)
  @DF-RHF Final Energy:  -196.40454650883098
    Total Energy =                       -196.4045465088309754
  @DF-RHF Final Energy:  -196.41625481135128
    Total Energy =                       -196.4162548113512798
  @DF-RHF Final Energy:  -196.40454548299124
    Total Energy =                       -196.4045454829912387
  @DF-RHF Final Energy:  -196.41625377448446
    Total Energy =                       -196.4162537744844599
  @DF-RHF Final Energy:  -196.40438077252628
    Total Energy =                       -196.4043807725262809
  @DF-RHF Final Energy:  -196.41620297655447
    Total Energy =                       -196.4162029765544730
  Multiplicity = 1
  @DF-RHF Final Energy:  -392.72306043727508
    Total Energy =                       -392.7230604372750804
	 Singles Energy            =      -0.0000000000000000 [Eh]
	 Same-Spin Energy          =      -0.4395439968031338 [Eh]
	 Opposite-Spin Energy      =      -1.6200997999958480 [Eh]
	 Correlation Energy        =      -2.0596437967989818 [Eh]
	 Total Energy              =    -394.7827042340740604 [Eh]
	 SCS Total Energy          =    -394.8136948628711593 [Eh]
    Molecular point group: c1

    Geometry (in Angstrom), charge = 0, multiplicity = 1:

       Center              X                  Y                   Z               Mass
    ------------   -----------------  -----------------  -----------------  -----------------
         C           -2.533301753930    -0.304772789222    -1.425694272423    12.000000000000
         H           -2.563619753930    -0.986975789222    -2.275266272423     1.007825032230
         H           -2.566970753930    -0.905769789222    -0.517111272423     1.007825032230
         H           -3.434418753930     0.306063210778    -1.454739272423     1.007825032230
         C           -1.271877753930     0.547761210778    -1.464488272423    12.000000000000
         H           -1.271018753930     1.246672210778    -0.624524272423     1.007825032230
         H           -1.266625753930     1.158002210778    -2.370670272423     1.007825032230
         C           -0.000127753930    -0.288311789222    -1.419240272423    12.000000000000
         H           -0.000151753930    -0.897123789222    -0.510206272423     1.007825032230
         H           -0.000357753930    -0.990607789222    -2.258247272423     1.007825032230
         C            1.271902246070     0.547488210778    -1.464782272423    12.000000000000
         H            1.270979246070     1.246739210778    -0.625138272423     1.007825032230
         H            1.266643246070     1.157289210778    -2.371230272423     1.007825032230
         C            2.533411246070    -0.304835789222    -1.425563272423    12.000000000000
         H            2.563926246070    -0.987667789222    -2.274621272423     1.007825032230
         H            3.434317246070     0.306360210778    -1.455244272423     1.007825032230
         H            2.567565246070    -0.905102789222    -0.516514272423     1.007825032230
         C            2.533567246070     0.304454210778     1.425568727577    12.000000000000
         H            2.568152246070     0.904261210778     0.516242727577     1.007825032230
         H            2.564071246070     0.987661210778     2.274313727577     1.007825032230
         H            3.434248246070    -0.307042789222     1.455777727577     1.007825032230
         C            1.271741246070    -0.547432789222     1.464872727577    12.000000000000
         H            1.266297246070    -1.157160789222     2.371369727577     1.007825032230
         H            1.270611246070    -1.246786789222     0.625291727577     1.007825032230
         C           -0.000033753930     0.288666210778     1.419256727577    12.000000000000
         H           -0.000188753930     0.990976210778     2.258240727577     1.007825032230
         H            0.000043246070     0.897442210778     0.510186727577     1.007825032230
         C           -1.271794753930    -0.547475789222     1.464527727577    12.000000000000
         H           -1.266411753930    -1.157585789222     2.370777727577     1.007825032230
         H           -1.270687753930    -1.246498789222     0.624664727577     1.007825032230
         C           -2.533513753930     0.304570210778     1.425550727577    12.000000000000
         H           -2.567706753930     0.905104210778     0.516673727577     1.007825032230
         H           -3.434315753930    -0.306727789222     1.455063727577     1.007825032230
         H           -2.564052753930     0.987156210778     2.274811727577     1.007825032230

  Charge       = 0
  Multiplicity = 1
  Basis Set: AUG-CC-PVQZ
    Blend: AUG-CC-PVQZ
  Basis Set: (AUG-CC-PVQZ AUX)
    Blend: AUG-CC-PVQZ-JKFIT

    Orbital Energies [Eh]
    ---------------------

    Doubly Occupied:

       1A    -11.208965     2A    -11.208963     3A    -11.208939
       4A    -11.208936     5A    -11.203584     6A    -11.203581
       7A    -11.201603     8A    -11.201601     9A    -11.201594
      10A    -11.201593    11A     -1.102717    12A     -1.066649
      13A     -1.034634    14A     -1.001561    15A     -0.937399
      16A     -0.904610    17A     -0.823789    18A     -0.820775
      19A     -0.807747    20A     -0.772100    21A     -0.701555
      22A     -0.638233    23A     -0.612205    24A     -0.594432
      25A     -0.592835    26A     -0.570263    27A     -0.561833
      28A     -0.555079    29A     -0.548776    30A     -0.547160
      31A     -0.537825    32A     -0.495303    33A     -0.495187
      34A     -0.494399    35A     -0.485585    36A     -0.483097
      37A     -0.474394    38A     -0.467823    39A     -0.451537
      40A     -0.443940    41A     -0.440780    42A     -0.421353

  @DF-RHF Final Energy:  -392.74657383957992

   => Energetics <=

    Nuclear Repulsion Energy =            625.0044026181556092
    One-Electron Energy =               -1769.6320776364357243
    Two-Electron Energy =                 751.8811011787001917
    Total Energy =                       -392.7465738395799235

  Dipole Moment: [D]
     X:    -0.0000      Y:    -0.0000      Z:    -0.0001     Total:     0.0001

  Basis Set: (AUG-CC-PVQZ AUX)
    Blend: AUG-CC-PVQZ-RI
	 Reference Energy          =    -392.7465738395799235 [Eh]
	 Singles Energy            =      -0.0000000000000000 [Eh]
	 Same-Spin Energy          =      -0.4627510277944219 [Eh]
	 Opposite-Spin Energy      =      -1.7863620358570556 [Eh]
	 Correlation Energy        =      -2.2491130636514773 [Eh]
	 Total Energy              =    -394.9956869032313875 [Eh]

	 ================> DF-SCS-MP2 Energies <==================
	-----------------------------------------------------------
	 SCS Same-Spin Scale       =       0.3333333333333333 [-]
	 SCS Opposite-Spin Scale   =       1.2000000000000000 [-]
	 SCS Same-Spin Energy      =      -0.1542503425981406 [Eh]
	 SCS Opposite-Spin Energy  =      -2.1436344430284664 [Eh]
	 SCS Correlation Energy    =      -2.2978847856266071 [Eh]
	 SCS Total Energy          =    -395.0444586252065164 [Eh]
	-----------------------------------------------------------

*** Psi4 exiting successfully. Buy a developer a beer!
