                               Psi4 1.4a2.dev224

  ==> Input File <==

--------------------------------------------------------------------------
#Generated by lconvert.py for cbs job

memory 20 GB

molecule  {
0 1
  C      -2.533310   -0.294880    0.713150
  H      -2.563630   -0.977080   -0.136420
  H      -2.566980   -0.895880    1.621730
  H      -3.434430    0.315960    0.684100
  C      -1.271880    0.557660    0.674360
  H      -1.271030    1.256570    1.514320
  H      -1.266630    1.167900   -0.231830
  C      -0.000140   -0.278420    0.719600
  H      -0.000160   -0.887230    1.628640
  H      -0.000360   -0.980710   -0.119400
  C       1.271890    0.557380    0.674060
  H       1.270970    1.256630    1.513710
  H       1.266640    1.167180   -0.232390
  C       2.533400   -0.294940    0.713280
  H       2.563920   -0.977770   -0.135780
  H       3.434310    0.316250    0.683600
  H       2.567560   -0.895210    1.622330
--
0 1
  C       2.533550    0.252990    6.576220
  H       2.568140    0.852800    5.666890
  H       2.564060    0.936200    7.424960
  H       3.434230   -0.358510    6.606430
  C       1.271720   -0.598890    6.615520
  H       1.266280   -1.208620    7.522020
  H       1.270590   -1.298250    5.775940
  C      -0.000050    0.237200    6.569910
  H      -0.000200    0.939510    7.408890
  H       0.000030    0.845980    5.660840
  C      -1.271810   -0.598940    6.615180
  H      -1.266430   -1.209050    7.521430
  H      -1.270700   -1.297960    5.775310
  C      -2.533530    0.253110    6.576200
  H      -2.567720    0.853640    5.667320
  H      -3.434330   -0.358190    6.605710
  H      -2.564070    0.935700    7.425460
units angstrom
no_reorient
symmetry c1
}

set {
scf_type DF
mp2_type DF
e_convergence 7
reference rhf
}

energy('mp2/aug-cc-pv[tq]z', bsse_type='cp')
--------------------------------------------------------------------------

    Molecular point group: c1
  Charge       = 0
  Multiplicity = 1
  Basis Set: AUG-CC-PVTZ
    Blend: AUG-CC-PVTZ
  Basis Set: (AUG-CC-PVTZ AUX)
    Blend: AUG-CC-PVTZ-JKFIT
  @DF-RHF Final Energy:  -196.40438170908865
    Total Energy =                       -196.4043817090886535
  Basis Set: (AUG-CC-PVTZ AUX)
    Blend: AUG-CC-PVTZ-RI
	 Reference Energy          =    -196.4043817090886535 [Eh]
	 Singles Energy            =      -0.0000000000000000 [Eh]
	 Same-Spin Energy          =      -0.2078834271931696 [Eh]
	 Opposite-Spin Energy      =      -0.7930659381641922 [Eh]
	 Correlation Energy        =      -1.0009493653573618 [Eh]
	 Total Energy              =    -197.4053310744460248 [Eh]
	 SCS Total Energy          =    -197.4253553106167374 [Eh]
    Molecular point group: c1
  Basis Set: AUG-CC-PVQZ
    Blend: AUG-CC-PVQZ
  Basis Set: (AUG-CC-PVQZ AUX)
    Blend: AUG-CC-PVQZ-JKFIT
  @DF-RHF Final Energy:  -196.41620391154666
    Total Energy =                       -196.4162039115466598
  Basis Set: (AUG-CC-PVQZ AUX)
  @DF-RHF Final Energy:  -196.40439295877835
    Total Energy =                       -196.4043929587783452
  @DF-RHF Final Energy:  -196.41621049436134
    Total Energy =                       -196.4162104943613372
  @DF-RHF Final Energy:  -196.40439198882748
    Total Energy =                       -196.4043919888274843
  @DF-RHF Final Energy:  -196.41620952346631
    Total Energy =                       -196.4162095234663070
  @DF-RHF Final Energy:  -196.40438073795747
    Total Energy =                       -196.4043807379574673
  @DF-RHF Final Energy:  -196.41620293774793
    Total Energy =                       -196.4162029377479257
  Multiplicity = 1
  @DF-RHF Final Energy:  -392.80876306785882
    Total Energy =                       -392.8087630678587630
	 Singles Energy            =      -0.0000000000000000 [Eh]
	 Same-Spin Energy          =      -0.4162841985816639 [Eh]
	 Opposite-Spin Energy      =      -1.5872968162393308 [Eh]
	 Correlation Energy        =      -2.0035810148209947 [Eh]
	 Total Energy              =    -394.8123440826798287 [Eh]
	 SCS Total Energy          =    -394.8522806468732256 [Eh]
    Molecular point group: c1

    Geometry (in Angstrom), charge = 0, multiplicity = 1:

       Center              X                  Y                   Z               Mass
    ------------   -----------------  -----------------  -----------------  -----------------
         C           -2.533297103413    -0.274095900405    -2.931597007467    12.000000000000
         H           -2.563617103413    -0.956295900405    -3.781167007467     1.007825032230
         H           -2.566967103413    -0.875095900405    -2.023017007467     1.007825032230
         H           -3.434417103413     0.336744099595    -2.960647007467     1.007825032230
         C           -1.271867103413     0.578444099595    -2.970387007467    12.000000000000
         H           -1.271017103413     1.277354099595    -2.130427007467     1.007825032230
         H           -1.266617103413     1.188684099595    -3.876577007467     1.007825032230
         C           -0.000127103413    -0.257635900405    -2.925147007467    12.000000000000
         H           -0.000147103413    -0.866445900405    -2.016107007467     1.007825032230
         H           -0.000347103413    -0.959925900405    -3.764147007467     1.007825032230
         C            1.271902896587     0.578164099595    -2.970687007467    12.000000000000
         H            1.270982896587     1.277414099595    -2.131037007467     1.007825032230
         H            1.266652896587     1.187964099595    -3.877137007467     1.007825032230
         C            2.533412896587    -0.274155900405    -2.931467007467    12.000000000000
         H            2.563932896587    -0.956985900405    -3.780527007467     1.007825032230
         H            3.434322896587     0.337034099595    -2.961147007467     1.007825032230
         H            2.567572896587    -0.874425900405    -2.022417007467     1.007825032230
         C            2.533562896587     0.273774099595     2.931472992533    12.000000000000
         H            2.568152896587     0.873584099595     2.022142992533     1.007825032230
         H            2.564072896587     0.956984099595     3.780212992533     1.007825032230
         H            3.434242896587    -0.337725900405     2.961682992533     1.007825032230
         C            1.271732896587    -0.578105900405     2.970772992533    12.000000000000
         H            1.266292896587    -1.187835900405     3.877272992533     1.007825032230
         H            1.270602896587    -1.277465900405     2.131192992533     1.007825032230
         C           -0.000037103413     0.257984099595     2.925162992533    12.000000000000
         H           -0.000187103413     0.960294099595     3.764142992533     1.007825032230
         H            0.000042896587     0.866764099595     2.016092992533     1.007825032230
         C           -1.271797103413    -0.578155900405     2.970432992533    12.000000000000
         H           -1.266417103413    -1.188265900405     3.876682992533     1.007825032230
         H           -1.270687103413    -1.277175900405     2.130562992533     1.007825032230
         C           -2.533517103413     0.273894099595     2.931452992533    12.000000000000
         H           -2.567707103413     0.874424099595     2.022572992533     1.007825032230
         H           -3.434317103413    -0.337405900405     2.960962992533     1.007825032230
         H           -2.564057103413     0.956484099595     3.780712992533     1.007825032230

  Charge       = 0
  Multiplicity = 1
  Basis Set: AUG-CC-PVQZ
    Blend: AUG-CC-PVQZ
  Basis Set: (AUG-CC-PVQZ AUX)
    Blend: AUG-CC-PVQZ-JKFIT

    Orbital Energies [Eh]
    ---------------------

    Doubly Occupied:

       1A    -11.211986     2A    -11.211985     3A    -11.211912
       4A    -11.211911     5A    -11.209582     6A    -11.209581
       7A    -11.206404     8A    -11.206403     9A    -11.206401
      10A    -11.206399    11A     -1.081459    12A     -1.081417
      13A     -1.015583    14A     -1.015542    15A     -0.919252
      16A     -0.919208    17A     -0.820156    18A     -0.820145
      19A     -0.785455    20A     -0.785369    21A     -0.648257
      22A     -0.647525    23A     -0.598881    24A     -0.598818
      25A     -0.593741    26A     -0.593114    27A     -0.554354
      28A     -0.554335    29A     -0.547874    30A     -0.547861
      31A     -0.526572    32A     -0.526120    33A     -0.495110
      34A     -0.494934    35A     -0.476565    36A     -0.476410
      37A     -0.462622    38A     -0.462039    39A     -0.460123
      40A     -0.459434    41A     -0.447326    42A     -0.447308

  @DF-RHF Final Energy:  -392.83239808142821

   => Energetics <=

    Nuclear Repulsion Energy =            516.8309886514649634
    One-Electron Energy =               -1553.4158267807401899
    Two-Electron Energy =                 643.7524400478471307
    Total Energy =                       -392.8323980814282095

  Dipole Moment: [D]
     X:     0.0000      Y:    -0.0000      Z:     0.0000     Total:     0.0001

  Basis Set: (AUG-CC-PVQZ AUX)
    Blend: AUG-CC-PVQZ-RI
	 Reference Energy          =    -392.8323980814282095 [Eh]
	 Singles Energy            =      -0.0000000000000000 [Eh]
	 Same-Spin Energy          =      -0.4397690539255635 [Eh]
	 Opposite-Spin Energy      =      -1.7576494275605394 [Eh]
	 Correlation Energy        =      -2.1974184814861029 [Eh]
	 Total Energy              =    -395.0298165629143341 [Eh]

	 ================> DF-SCS-MP2 Energies <==================
	-----------------------------------------------------------
	 SCS Same-Spin Scale       =       0.3333333333333333 [-]
	 SCS Opposite-Spin Scale   =       1.2000000000000000 [-]
	 SCS Same-Spin Energy      =      -0.1465896846418545 [Eh]
	 SCS Opposite-Spin Energy  =      -2.1091793130726471 [Eh]
	 SCS Correlation Energy    =      -2.2557689977145015 [Eh]
	 SCS Total Energy          =    -395.0881670791426927 [Eh]
	-----------------------------------------------------------

*** Psi4 exiting successfully. Buy a developer a beer!
