                               Psi4 1.4a2.dev224

  ==> Input File <==

--------------------------------------------------------------------------
#Generated by lconvert.py for cbs job

memory 20 GB

molecule  {
0 1
  C      -2.533310   -0.294880    0.713150
  H      -2.563630   -0.977080   -0.136420
  H      -2.566980   -0.895880    1.621730
  H      -3.434430    0.315960    0.684100
  C      -1.271880    0.557660    0.674360
  H      -1.271030    1.256570    1.514320
  H      -1.266630    1.167900   -0.231830
  C      -0.000140   -0.278420    0.719600
  H      -0.000160   -0.887230    1.628640
  H      -0.000360   -0.980710   -0.119400
  C       1.271890    0.557380    0.674060
  H       1.270970    1.256630    1.513710
  H       1.266640    1.167180   -0.232390
  C       2.533400   -0.294940    0.713280
  H       2.563920   -0.977770   -0.135780
  H       3.434310    0.316250    0.683600
  H       2.567560   -0.895210    1.622330
--
0 1
  C       2.533550    0.274460    5.522380
  H       2.568140    0.874270    4.613060
  H       2.564060    0.957670    6.371130
  H       3.434240   -0.337040    5.552590
  C       1.271730   -0.577430    5.561690
  H       1.266280   -1.187150    6.468190
  H       1.270600   -1.276780    4.722110
  C      -0.000050    0.258670    5.516070
  H      -0.000200    0.960980    6.355060
  H       0.000030    0.867450    4.607000
  C      -1.271810   -0.577470    5.561340
  H      -1.266420   -1.187580    6.467590
  H      -1.270700   -1.276490    4.721480
  C      -2.533530    0.274580    5.522370
  H      -2.567720    0.875110    4.613490
  H      -3.434330   -0.336720    5.551880
  H      -2.564070    0.957160    6.371630
units angstrom
no_reorient
symmetry c1
}

set {
scf_type DF
mp2_type DF
e_convergence 7
reference rhf
}

energy('mp2/aug-cc-pv[tq]z', bsse_type='cp')
--------------------------------------------------------------------------

    Molecular point group: c1
  Charge       = 0
  Multiplicity = 1
  Basis Set: AUG-CC-PVTZ
    Blend: AUG-CC-PVTZ
  Basis Set: (AUG-CC-PVTZ AUX)
    Blend: AUG-CC-PVTZ-JKFIT
  @DF-RHF Final Energy:  -196.40438177118386
    Total Energy =                       -196.4043817711838642
  Basis Set: (AUG-CC-PVTZ AUX)
    Blend: AUG-CC-PVTZ-RI
	 Reference Energy          =    -196.4043817711838642 [Eh]
	 Singles Energy            =      -0.0000000000000000 [Eh]
	 Same-Spin Energy          =      -0.2078833623389540 [Eh]
	 Opposite-Spin Energy      =      -0.7930658921236518 [Eh]
	 Correlation Energy        =      -1.0009492544626057 [Eh]
	 Total Energy              =    -197.4053310256464613 [Eh]
	 SCS Total Energy          =    -197.4253552958452360 [Eh]
    Molecular point group: c1
  Basis Set: AUG-CC-PVQZ
    Blend: AUG-CC-PVQZ
  Basis Set: (AUG-CC-PVQZ AUX)
    Blend: AUG-CC-PVQZ-JKFIT
  @DF-RHF Final Energy:  -196.41620397337681
    Total Energy =                       -196.4162039733768097
  Basis Set: (AUG-CC-PVQZ AUX)
  @DF-RHF Final Energy:  -196.40440653154857
    Total Energy =                       -196.4044065315485739
  @DF-RHF Final Energy:  -196.41621554965073
    Total Energy =                       -196.4162155496507296
  @DF-RHF Final Energy:  -196.40440549833329
    Total Energy =                       -196.4044054983332899
  @DF-RHF Final Energy:  -196.41621451898547
    Total Energy =                       -196.4162145189854698
  @DF-RHF Final Energy:  -196.40438073815645
    Total Energy =                       -196.4043807381564477
  @DF-RHF Final Energy:  -196.41620293777368
    Total Energy =                       -196.4162029377736758
  Multiplicity = 1
  @DF-RHF Final Energy:  -392.80857632059633
    Total Energy =                       -392.8085763205963303
	 Singles Energy            =      -0.0000000000000000 [Eh]
	 Same-Spin Energy          =      -0.4174192603615192 [Eh]
	 Opposite-Spin Energy      =      -1.5893547845484453 [Eh]
	 Correlation Energy        =      -2.0067740449099647 [Eh]
	 Total Energy              =    -394.8153503655062764 [Eh]
	 SCS Total Energy          =    -394.8549418155083117 [Eh]
    Molecular point group: c1

    Geometry (in Angstrom), charge = 0, multiplicity = 1:

       Center              X                  Y                   Z               Mass
    ------------   -----------------  -----------------  -----------------  -----------------
         C           -2.533298145351    -0.284829998261    -2.404679301033    12.000000000000
         H           -2.563618145351    -0.967029998261    -3.254249301033     1.007825032230
         H           -2.566968145351    -0.885829998261    -1.496099301033     1.007825032230
         H           -3.434418145351     0.326010001739    -2.433729301033     1.007825032230
         C           -1.271868145351     0.567710001739    -2.443469301033    12.000000000000
         H           -1.271018145351     1.266620001739    -1.603509301033     1.007825032230
         H           -1.266618145351     1.177950001739    -3.349659301033     1.007825032230
         C           -0.000128145351    -0.268369998261    -2.398229301033    12.000000000000
         H           -0.000148145351    -0.877179998261    -1.489189301033     1.007825032230
         H           -0.000348145351    -0.970659998261    -3.237229301033     1.007825032230
         C            1.271901854649     0.567430001739    -2.443769301033    12.000000000000
         H            1.270981854649     1.266680001739    -1.604119301033     1.007825032230
         H            1.266651854649     1.177230001739    -3.350219301033     1.007825032230
         C            2.533411854649    -0.284889998261    -2.404549301033    12.000000000000
         H            2.563931854649    -0.967719998261    -3.253609301033     1.007825032230
         H            3.434321854649     0.326300001739    -2.434229301033     1.007825032230
         H            2.567571854649    -0.885159998261    -1.495499301033     1.007825032230
         C            2.533561854649     0.284510001739     2.404550698967    12.000000000000
         H            2.568151854649     0.884320001739     1.495230698967     1.007825032230
         H            2.564071854649     0.967720001739     3.253300698967     1.007825032230
         H            3.434251854649    -0.326989998261     2.434760698967     1.007825032230
         C            1.271741854649    -0.567379998261     2.443860698967    12.000000000000
         H            1.266291854649    -1.177099998261     3.350360698967     1.007825032230
         H            1.270611854649    -1.266729998261     1.604280698967     1.007825032230
         C           -0.000038145351     0.268720001739     2.398240698967    12.000000000000
         H           -0.000188145351     0.971030001739     3.237230698967     1.007825032230
         H            0.000041854649     0.877500001739     1.489170698967     1.007825032230
         C           -1.271798145351    -0.567419998261     2.443510698967    12.000000000000
         H           -1.266408145351    -1.177529998261     3.349760698967     1.007825032230
         H           -1.270688145351    -1.266439998261     1.603650698967     1.007825032230
         C           -2.533518145351     0.284630001739     2.404540698967    12.000000000000
         H           -2.567708145351     0.885160001739     1.495660698967     1.007825032230
         H           -3.434318145351    -0.326669998261     2.434050698967     1.007825032230
         H           -2.564058145351     0.967210001739     3.253800698967     1.007825032230

  Charge       = 0
  Multiplicity = 1
  Basis Set: AUG-CC-PVQZ
    Blend: AUG-CC-PVQZ
  Basis Set: (AUG-CC-PVQZ AUX)
    Blend: AUG-CC-PVQZ-JKFIT

    Orbital Energies [Eh]
    ---------------------

    Doubly Occupied:

       1A    -11.212171     2A    -11.212169     3A    -11.212097
       4A    -11.212094     5A    -11.209766     6A    -11.209764
       7A    -11.206460     8A    -11.206459     9A    -11.206455
      10A    -11.206454    11A     -1.081873    12A     -1.081373
      13A     -1.015935    14A     -1.015466    15A     -0.919581
      16A     -0.919115    17A     -0.820297    18A     -0.820279
      19A     -0.786012    20A     -0.785219    21A     -0.650604
      22A     -0.645633    23A     -0.599239    24A     -0.598735
      25A     -0.595694    26A     -0.591490    27A     -0.554591
      28A     -0.554404    29A     -0.547992    30A     -0.547912
      31A     -0.527993    32A     -0.524948    33A     -0.495547
      34A     -0.494749    35A     -0.477151    36A     -0.476152
      37A     -0.463847    38A     -0.462046    39A     -0.461148
      40A     -0.457958    41A     -0.447529    42A     -0.447375

  @DF-RHF Final Energy:  -392.83219451016606

   => Energetics <=

    Nuclear Repulsion Energy =            543.0372270439949034
    One-Electron Energy =               -1605.8152901700323127
    Two-Electron Energy =                 669.9458686158715182
    Total Energy =                       -392.8321945101660049

  Dipole Moment: [D]
     X:    -0.0000      Y:    -0.0000      Z:     0.0000     Total:     0.0000

  Basis Set: (AUG-CC-PVQZ AUX)
    Blend: AUG-CC-PVQZ-RI
	 Reference Energy          =    -392.8321945101660617 [Eh]
	 Singles Energy            =      -0.0000000000000000 [Eh]
	 Same-Spin Energy          =      -0.4408143534168131 [Eh]
	 Opposite-Spin Energy      =      -1.7590867227964448 [Eh]
	 Correlation Energy        =      -2.1999010762132580 [Eh]
	 Total Energy              =    -395.0320955863793415 [Eh]

	 ================> DF-SCS-MP2 Energies <==================
	-----------------------------------------------------------
	 SCS Same-Spin Scale       =       0.3333333333333333 [-]
	 SCS Opposite-Spin Scale   =       1.2000000000000000 [-]
	 SCS Same-Spin Energy      =      -0.1469381178056043 [Eh]
	 SCS Opposite-Spin Energy  =      -2.1109040673557335 [Eh]
	 SCS Correlation Energy    =      -2.2578421851613379 [Eh]
	 SCS Total Energy          =    -395.0900366953273988 [Eh]
	-----------------------------------------------------------

*** Psi4 exiting successfully. Buy a developer a beer!
