                               Psi4 1.4a2.dev224

  ==> Input File <==

--------------------------------------------------------------------------
#Generated by lconvert.py for cbs job

memory 40 GB

molecule  {
0 1
  C       -2.5333090    -0.2948790     0.7131490
  H       -2.5636270    -0.9770820    -0.1364230
  H       -2.5669780    -0.8958760     1.6217320
  H       -3.4344260     0.3159570     0.6841040
  C       -1.2718850     0.5576550     0.6743550
  H       -1.2710260     1.2565660     1.5143190
  H       -1.2666330     1.1678960    -0.2318270
  C       -0.0001350    -0.2784180     0.7196030
  H       -0.0001590    -0.8872300     1.6286370
  H       -0.0003650    -0.9807140    -0.1194040
  C        1.2718950     0.5573820     0.6740610
  H        1.2709720     1.2566330     1.5137050
  H        1.2666360     1.1671830    -0.2323870
  C        2.5334040    -0.2949420     0.7132800
  H        2.5639190    -0.9777740    -0.1357780
  H        3.4343100     0.3162540     0.6835990
  H        2.5675580    -0.8952090     1.6223290
--
0 1
  C        2.5335570     0.2946320     4.5322250
  H        2.5681420     0.8944380     3.6229000
  H        2.5640610     0.9778380     5.3809700
  H        3.4342380    -0.3168660     4.5624340
  C        1.2717310    -0.5572560     4.5715300
  H        1.2662870    -1.1669830     5.4780270
  H        1.2706010    -1.2566090     3.7319480
  C       -0.0000440     0.2788440     4.5259130
  H       -0.0001990     0.9811540     5.3648980
  H        0.0000330     0.8876200     3.6168430
  C       -1.2718050    -0.5572980     4.5711850
  H       -1.2664230    -1.1674080     5.4774350
  H       -1.2706980    -1.2563210     3.7313210
  C       -2.5335240     0.2947480     4.5322070
  H       -2.5677170     0.8952820     3.6233300
  H       -3.4343260    -0.3165500     4.5617200
  H       -2.5640640     0.9773340     5.3814680
units angstrom
no_reorient
symmetry c1
}

set {
scf_type DF
mp2_type DF
e_convergence 7
reference rhf
}

energy('mp2/aug-cc-pv[tq]z', bsse_type='cp')
--------------------------------------------------------------------------

    Molecular point group: c1
  Charge       = 0
  Multiplicity = 1
  Basis Set: AUG-CC-PVTZ
    Blend: AUG-CC-PVTZ
  Basis Set: (AUG-CC-PVTZ AUX)
    Blend: AUG-CC-PVTZ-JKFIT
  @DF-RHF Final Energy:  -196.40438180925605
    Total Energy =                       -196.4043818092560514
  Basis Set: (AUG-CC-PVTZ AUX)
    Blend: AUG-CC-PVTZ-RI
	 Reference Energy          =    -196.4043818092560514 [Eh]
	 Singles Energy            =      -0.0000000000000000 [Eh]
	 Same-Spin Energy          =      -0.2078833694943921 [Eh]
	 Opposite-Spin Energy      =      -0.7930658608712315 [Eh]
	 Correlation Energy        =      -1.0009492303656238 [Eh]
	 Total Energy              =    -197.4053310396216716 [Eh]
	 SCS Total Energy          =    -197.4253552987996727 [Eh]
    Molecular point group: c1
  Basis Set: AUG-CC-PVQZ
    Blend: AUG-CC-PVQZ
  Basis Set: (AUG-CC-PVQZ AUX)
    Blend: AUG-CC-PVQZ-JKFIT
  @DF-RHF Final Energy:  -196.41620401556369
    Total Energy =                       -196.4162040155636930
  Basis Set: (AUG-CC-PVQZ AUX)
  @DF-RHF Final Energy:  -196.40444915976070
    Total Energy =                       -196.4044491597607021
  @DF-RHF Final Energy:  -196.41623005400010
    Total Energy =                       -196.4162300540000956
  @DF-RHF Final Energy:  -196.40444812878991
    Total Energy =                       -196.4044481287899089
  @DF-RHF Final Energy:  -196.41622901916577
    Total Energy =                       -196.4162290191657689
  @DF-RHF Final Energy:  -196.40438077300314
    Total Energy =                       -196.4043807730031403
  @DF-RHF Final Energy:  -196.41620297673950
    Total Energy =                       -196.4162029767394984
  Multiplicity = 1
  @DF-RHF Final Energy:  -392.80383704852750
    Total Energy =                       -392.8038370485274982
	 Singles Energy            =      -0.0000000000000000 [Eh]
	 Same-Spin Energy          =      -0.4217568141855546 [Eh]
	 Opposite-Spin Energy      =      -1.5961998807639999 [Eh]
	 Correlation Energy        =      -2.0179566949495547 [Eh]
	 Total Energy              =    -394.8217937434770306 [Eh]
	 SCS Total Energy          =    -394.8598625101728317 [Eh]
    Molecular point group: c1

    Geometry (in Angstrom), charge = 0, multiplicity = 1:

       Center              X                  Y                   Z               Mass
    ------------   -----------------  -----------------  -----------------  -----------------
         C           -2.533300239950    -0.294914685028    -1.909600966831    12.000000000000
         H           -2.563618239950    -0.977117685028    -2.759172966831     1.007825032230
         H           -2.566969239950    -0.895911685028    -1.001017966831     1.007825032230
         H           -3.434417239950     0.315921314972    -1.938645966831     1.007825032230
         C           -1.271876239950     0.557619314972    -1.948394966831    12.000000000000
         H           -1.271017239950     1.256530314972    -1.108430966831     1.007825032230
         H           -1.266624239950     1.167860314972    -2.854576966831     1.007825032230
         C           -0.000126239950    -0.278453685028    -1.903146966831    12.000000000000
         H           -0.000150239950    -0.887265685028    -0.994112966831     1.007825032230
         H           -0.000356239950    -0.980749685028    -2.742153966831     1.007825032230
         C            1.271903760050     0.557346314972    -1.948688966831    12.000000000000
         H            1.270980760050     1.256597314972    -1.109044966831     1.007825032230
         H            1.266644760050     1.167147314972    -2.855136966831     1.007825032230
         C            2.533412760050    -0.294977685028    -1.909469966831    12.000000000000
         H            2.563927760050    -0.977809685028    -2.758527966831     1.007825032230
         H            3.434318760050     0.316218314972    -1.939150966831     1.007825032230
         H            2.567566760050    -0.895244685028    -1.000420966831     1.007825032230
         C            2.533565760050     0.294596314972     1.909475033169    12.000000000000
         H            2.568150760050     0.894402314972     1.000150033169     1.007825032230
         H            2.564069760050     0.977802314972     2.758220033169     1.007825032230
         H            3.434246760050    -0.316901685028     1.939684033169     1.007825032230
         C            1.271739760050    -0.557291685028     1.948780033169    12.000000000000
         H            1.266295760050    -1.167018685028     2.855277033169     1.007825032230
         H            1.270609760050    -1.256644685028     1.109198033169     1.007825032230
         C           -0.000035239950     0.278808314972     1.903163033169    12.000000000000
         H           -0.000190239950     0.981118314972     2.742148033169     1.007825032230
         H            0.000041760050     0.887584314972     0.994093033169     1.007825032230
         C           -1.271796239950    -0.557333685028     1.948435033169    12.000000000000
         H           -1.266414239950    -1.167443685028     2.854685033169     1.007825032230
         H           -1.270689239950    -1.256356685028     1.108571033169     1.007825032230
         C           -2.533515239950     0.294712314972     1.909457033169    12.000000000000
         H           -2.567708239950     0.895246314972     1.000580033169     1.007825032230
         H           -3.434317239950    -0.316585685028     1.938970033169     1.007825032230
         H           -2.564055239950     0.977298314972     2.758718033169     1.007825032230

  Charge       = 0
  Multiplicity = 1
  Basis Set: AUG-CC-PVQZ
    Blend: AUG-CC-PVQZ
  Basis Set: (AUG-CC-PVQZ AUX)
    Blend: AUG-CC-PVQZ-JKFIT

    Orbital Energies [Eh]
    ---------------------

    Doubly Occupied:

       1A    -11.212020     2A    -11.212019     3A    -11.211955
       4A    -11.211953     5A    -11.209363     6A    -11.209362
       7A    -11.206001     8A    -11.205998     9A    -11.205996
      10A    -11.205995    11A     -1.084128    12A     -1.079486
      13A     -1.017949    14A     -1.013655    15A     -0.921475
      16A     -0.917250    17A     -0.820434    18A     -0.820338
      19A     -0.788884    20A     -0.783037    21A     -0.661860
      22A     -0.635285    23A     -0.605024    24A     -0.600836
      25A     -0.597425    26A     -0.582770    27A     -0.555858
      28A     -0.553560    29A     -0.548011    30A     -0.547561
      31A     -0.534757    32A     -0.518462    33A     -0.496162
      34A     -0.493887    35A     -0.479323    36A     -0.474398
      37A     -0.469835    38A     -0.467187    39A     -0.457309
      40A     -0.450396    41A     -0.447997    42A     -0.446697

  @DF-RHF Final Energy:  -392.82740490705237

   => Energetics <=

    Nuclear Repulsion Energy =            577.1603336162739879
    One-Electron Energy =               -1674.0516662509935486
    Two-Electron Energy =                 704.0639277276673056
    Total Energy =                       -392.8274049070523688

  Dipole Moment: [D]
     X:    -0.0000      Y:    -0.0000      Z:     0.0000     Total:     0.0000

  Basis Set: (AUG-CC-PVQZ AUX)
    Blend: AUG-CC-PVQZ-RI
	 Reference Energy          =    -392.8274049070523688 [Eh]
	 Singles Energy            =      -0.0000000000000000 [Eh]
	 Same-Spin Energy          =      -0.4449812749095413 [Eh]
	 Opposite-Spin Energy      =      -1.7643455705771407 [Eh]
	 Correlation Energy        =      -2.2093268454866819 [Eh]
	 Total Energy              =    -395.0367317525390263 [Eh]

	 ================> DF-SCS-MP2 Energies <==================
	-----------------------------------------------------------
	 SCS Same-Spin Scale       =       0.3333333333333333 [-]
	 SCS Opposite-Spin Scale   =       1.2000000000000000 [-]
	 SCS Same-Spin Energy      =      -0.1483270916365138 [Eh]
	 SCS Opposite-Spin Energy  =      -2.1172146846925686 [Eh]
	 SCS Correlation Energy    =      -2.2655417763290822 [Eh]
	 SCS Total Energy          =    -395.0929466833814558 [Eh]
	-----------------------------------------------------------

*** Psi4 exiting successfully. Buy a developer a beer!
