                               Psi4 1.4a2.dev224

  ==> Input File <==

--------------------------------------------------------------------------
#Generated by lconvert.py for cbs job

memory 40 GB

molecule  {
0 1
  C       -2.5333090    -0.2948790     0.7131490
  H       -2.5636270    -0.9770820    -0.1364230
  H       -2.5669780    -0.8958760     1.6217320
  H       -3.4344260     0.3159570     0.6841040
  C       -1.2718850     0.5576550     0.6743550
  H       -1.2710260     1.2565660     1.5143190
  H       -1.2666330     1.1678960    -0.2318270
  C       -0.0001350    -0.2784180     0.7196030
  H       -0.0001590    -0.8872300     1.6286370
  H       -0.0003650    -0.9807140    -0.1194040
  C        1.2718950     0.5573820     0.6740610
  H        1.2709720     1.2566330     1.5137050
  H        1.2666360     1.1671830    -0.2323870
  C        2.5334040    -0.2949420     0.7132800
  H        2.5639190    -0.9777740    -0.1357780
  H        3.4343100     0.3162540     0.6835990
  H        2.5675580    -0.8952090     1.6223290
--
0 1
  C        2.5335580     0.2976400     4.3845700
  H        2.5681420     0.8974460     3.4752440
  H        2.5640610     0.9808460     5.2333150
  H        3.4342380    -0.3138580     4.4147790
  C        1.2717320    -0.5542480     4.4238740
  H        1.2662880    -1.1639750     5.3303710
  H        1.2706010    -1.2536010     3.5842930
  C       -0.0000430     0.2818520     4.3782580
  H       -0.0001980     0.9841620     5.2172420
  H        0.0000330     0.8906280     3.4691880
  C       -1.2718040    -0.5542900     4.4235290
  H       -1.2664220    -1.1644000     5.3297790
  H       -1.2706980    -1.2533130     3.5836660
  C       -2.5335240     0.2977560     4.3845520
  H       -2.5677170     0.8982900     3.4756750
  H       -3.4343260    -0.3135420     4.4140650
  H       -2.5640630     0.9803420     5.2338130
units angstrom
no_reorient
symmetry c1
}

set {
scf_type DF
mp2_type DF
e_convergence 7
reference rhf
}

energy('mp2/aug-cc-pv[tq]z', bsse_type='cp')
--------------------------------------------------------------------------

    Molecular point group: c1
  Charge       = 0
  Multiplicity = 1
  Basis Set: AUG-CC-PVTZ
    Blend: AUG-CC-PVTZ
  Basis Set: (AUG-CC-PVTZ AUX)
    Blend: AUG-CC-PVTZ-JKFIT
  @DF-RHF Final Energy:  -196.40438182724154
    Total Energy =                       -196.4043818272415365
  Basis Set: (AUG-CC-PVTZ AUX)
    Blend: AUG-CC-PVTZ-RI
	 Reference Energy          =    -196.4043818272415365 [Eh]
	 Singles Energy            =      -0.0000000000000000 [Eh]
	 Same-Spin Energy          =      -0.2078833651631783 [Eh]
	 Opposite-Spin Energy      =      -0.7930658475245427 [Eh]
	 Correlation Energy        =      -1.0009492126877211 [Eh]
	 Total Energy              =    -197.4053310399292513 [Eh]
	 SCS Total Energy          =    -197.4253552993253891 [Eh]
    Molecular point group: c1
  Basis Set: AUG-CC-PVQZ
    Blend: AUG-CC-PVQZ
  Basis Set: (AUG-CC-PVQZ AUX)
    Blend: AUG-CC-PVQZ-JKFIT
  @DF-RHF Final Energy:  -196.41620403583821
    Total Energy =                       -196.4162040358382058
  Basis Set: (AUG-CC-PVQZ AUX)
  @DF-RHF Final Energy:  -196.40445937037566
    Total Energy =                       -196.4044593703756618
  @DF-RHF Final Energy:  -196.41623328912826
    Total Energy =                       -196.4162332891282574
  @DF-RHF Final Energy:  -196.40445831878901
    Total Energy =                       -196.4044583187890112
  @DF-RHF Final Energy:  -196.41623223200162
    Total Energy =                       -196.4162322320016187
  @DF-RHF Final Energy:  -196.40438077143784
    Total Energy =                       -196.4043807714378431
  @DF-RHF Final Energy:  -196.41620297503101
    Total Energy =                       -196.4162029750310126
  Multiplicity = 1
  @DF-RHF Final Energy:  -392.80096684858268
    Total Energy =                       -392.8009668485826751
	 Singles Energy            =      -0.0000000000000000 [Eh]
	 Same-Spin Energy          =      -0.4231242860068242 [Eh]
	 Opposite-Spin Energy      =      -1.5982322674653147 [Eh]
	 Correlation Energy        =      -2.0213565534721387 [Eh]
	 Total Energy              =    -394.8223234020547920 [Eh]
	 SCS Total Energy          =    -394.8598869982100155 [Eh]
    Molecular point group: c1

    Geometry (in Angstrom), charge = 0, multiplicity = 1:

       Center              X                  Y                   Z               Mass
    ------------   -----------------  -----------------  -----------------  -----------------
         C           -2.533300600808    -0.296418685028    -1.835773272423    12.000000000000
         H           -2.563618600808    -0.978621685028    -2.685345272423     1.007825032230
         H           -2.566969600808    -0.897415685028    -0.927190272423     1.007825032230
         H           -3.434417600808     0.314417314972    -1.864818272423     1.007825032230
         C           -1.271876600808     0.556115314972    -1.874567272423    12.000000000000
         H           -1.271017600808     1.255026314972    -1.034603272423     1.007825032230
         H           -1.266624600808     1.166356314972    -2.780749272423     1.007825032230
         C           -0.000126600808    -0.279957685028    -1.829319272423    12.000000000000
         H           -0.000150600808    -0.888769685028    -0.920285272423     1.007825032230
         H           -0.000356600808    -0.982253685028    -2.668326272423     1.007825032230
         C            1.271903399192     0.555842314972    -1.874861272423    12.000000000000
         H            1.270980399192     1.255093314972    -1.035217272423     1.007825032230
         H            1.266644399192     1.165643314972    -2.781309272423     1.007825032230
         C            2.533412399192    -0.296481685028    -1.835642272423    12.000000000000
         H            2.563927399192    -0.979313685028    -2.684700272423     1.007825032230
         H            3.434318399192     0.314714314972    -1.865323272423     1.007825032230
         H            2.567566399192    -0.896748685028    -0.926593272423     1.007825032230
         C            2.533566399192     0.296100314972     1.835647727577    12.000000000000
         H            2.568150399192     0.895906314972     0.926321727577     1.007825032230
         H            2.564069399192     0.979306314972     2.684392727577     1.007825032230
         H            3.434246399192    -0.315397685028     1.865856727577     1.007825032230
         C            1.271740399192    -0.555787685028     1.874951727577    12.000000000000
         H            1.266296399192    -1.165514685028     2.781448727577     1.007825032230
         H            1.270609399192    -1.255140685028     1.035370727577     1.007825032230
         C           -0.000034600808     0.280312314972     1.829335727577    12.000000000000
         H           -0.000189600808     0.982622314972     2.668319727577     1.007825032230
         H            0.000041399192     0.889088314972     0.920265727577     1.007825032230
         C           -1.271795600808    -0.555829685028     1.874606727577    12.000000000000
         H           -1.266413600808    -1.165939685028     2.780856727577     1.007825032230
         H           -1.270689600808    -1.254852685028     1.034743727577     1.007825032230
         C           -2.533515600808     0.296216314972     1.835629727577    12.000000000000
         H           -2.567708600808     0.896750314972     0.926752727577     1.007825032230
         H           -3.434317600808    -0.315081685028     1.865142727577     1.007825032230
         H           -2.564054600808     0.978802314972     2.684890727577     1.007825032230

  Charge       = 0
  Multiplicity = 1
  Basis Set: AUG-CC-PVQZ
    Blend: AUG-CC-PVQZ
  Basis Set: (AUG-CC-PVQZ AUX)
    Blend: AUG-CC-PVQZ-JKFIT

    Orbital Energies [Eh]
    ---------------------

    Doubly Occupied:

       1A    -11.211866     2A    -11.211864     3A    -11.211804
       4A    -11.211803     5A    -11.209079     6A    -11.209078
       7A    -11.205761     8A    -11.205757     9A    -11.205756
      10A    -11.205755    11A     -1.085070    12A     -1.078663
      13A     -1.018797    14A     -1.012880    15A     -0.922275
      16A     -0.916454    17A     -0.820508    18A     -0.820320
      19A     -0.789988    20A     -0.782194    21A     -0.665467
      22A     -0.631896    23A     -0.608009    24A     -0.601444
      25A     -0.596949    26A     -0.579934    27A     -0.556456
      28A     -0.553249    29A     -0.547954    30A     -0.547326
      31A     -0.536964    32A     -0.516344    33A     -0.496174
      34A     -0.493696    35A     -0.479948    36A     -0.473844
      37A     -0.472103    38A     -0.467959    39A     -0.456145
      40A     -0.448161    41A     -0.447974    42A     -0.446360

  @DF-RHF Final Energy:  -392.82452394409086

   => Energetics <=

    Nuclear Repulsion Energy =            583.3513883253809809
    One-Electron Energy =               -1686.4317571183194104
    Two-Electron Energy =                 710.2558448488474596
    Total Energy =                       -392.8245239440908563

  Dipole Moment: [D]
     X:    -0.0000      Y:    -0.0000      Z:    -0.0000     Total:     0.0000

  Basis Set: (AUG-CC-PVQZ AUX)
    Blend: AUG-CC-PVQZ-RI
	 Reference Energy          =    -392.8245239440908563 [Eh]
	 Singles Energy            =      -0.0000000000000000 [Eh]
	 Same-Spin Energy          =      -0.4463265954433461 [Eh]
	 Opposite-Spin Energy      =      -1.7660017767548379 [Eh]
	 Correlation Energy        =      -2.2123283721981841 [Eh]
	 Total Energy              =    -395.0368523162890142 [Eh]

	 ================> DF-SCS-MP2 Energies <==================
	-----------------------------------------------------------
	 SCS Same-Spin Scale       =       0.3333333333333333 [-]
	 SCS Opposite-Spin Scale   =       1.2000000000000000 [-]
	 SCS Same-Spin Energy      =      -0.1487755318144487 [Eh]
	 SCS Opposite-Spin Energy  =      -2.1192021321058054 [Eh]
	 SCS Correlation Energy    =      -2.2679776639202540 [Eh]
	 SCS Total Energy          =    -395.0925016080111050 [Eh]
	-----------------------------------------------------------

*** Psi4 exiting successfully. Buy a developer a beer!
