                               Psi4 1.4a2.dev224

  ==> Input File <==

--------------------------------------------------------------------------
#Generated by lconvert.py for cbs job

memory 40 GB

molecule  {
0 1
  C       -2.5333090    -0.2948790     0.7131490
  H       -2.5636270    -0.9770820    -0.1364230
  H       -2.5669780    -0.8958760     1.6217320
  H       -3.4344260     0.3159570     0.6841040
  C       -1.2718850     0.5576550     0.6743550
  H       -1.2710260     1.2565660     1.5143190
  H       -1.2666330     1.1678960    -0.2318270
  C       -0.0001350    -0.2784180     0.7196030
  H       -0.0001590    -0.8872300     1.6286370
  H       -0.0003650    -0.9807140    -0.1194040
  C        1.2718950     0.5573820     0.6740610
  H        1.2709720     1.2566330     1.5137050
  H        1.2666360     1.1671830    -0.2323870
  C        2.5334040    -0.2949420     0.7132800
  H        2.5639190    -0.9777740    -0.1357780
  H        3.4343100     0.3162540     0.6835990
  H        2.5675580    -0.8952090     1.6223290
--
0 1
  C        2.5335580     0.3007220     4.2332780
  H        2.5681430     0.9005290     3.3239520
  H        2.5640620     0.9839280     5.0820230
  H        3.4342390    -0.3107750     4.2634870
  C        1.2717320    -0.5511650     4.2725820
  H        1.2662880    -1.1608930     5.1790790
  H        1.2706010    -1.2505190     3.4330010
  C       -0.0000430     0.2849340     4.2269660
  H       -0.0001980     0.9872440     5.0659500
  H        0.0000340     0.8937100     3.3178960
  C       -1.2718040    -0.5512080     4.2722370
  H       -1.2664220    -1.1613180     5.1784870
  H       -1.2706970    -1.2502310     3.4323730
  C       -2.5335230     0.3008380     4.2332590
  H       -2.5677160     0.9013720     3.3243830
  H       -3.4343250    -0.3104600     4.2627730
  H       -2.5640630     0.9834240     5.0825210
units angstrom
no_reorient
symmetry c1
}

set {
scf_type DF
mp2_type DF
e_convergence 7
reference rhf
}

energy('mp2/aug-cc-pv[tq]z', bsse_type='cp')
--------------------------------------------------------------------------

    Molecular point group: c1
  Charge       = 0
  Multiplicity = 1
  Basis Set: AUG-CC-PVTZ
    Blend: AUG-CC-PVTZ
  Basis Set: (AUG-CC-PVTZ AUX)
    Blend: AUG-CC-PVTZ-JKFIT
  @DF-RHF Final Energy:  -196.40438180926566
    Total Energy =                       -196.4043818092656579
  Basis Set: (AUG-CC-PVTZ AUX)
    Blend: AUG-CC-PVTZ-RI
	 Reference Energy          =    -196.4043818092656579 [Eh]
	 Singles Energy            =      -0.0000000000000000 [Eh]
	 Same-Spin Energy          =      -0.2078833763019139 [Eh]
	 Opposite-Spin Energy      =      -0.7930658603577656 [Eh]
	 Correlation Energy        =      -1.0009492366596795 [Eh]
	 Total Energy              =    -197.4053310459253510 [Eh]
	 SCS Total Energy          =    -197.4253553004622859 [Eh]
    Molecular point group: c1
  Basis Set: AUG-CC-PVQZ
    Blend: AUG-CC-PVQZ
  Basis Set: (AUG-CC-PVQZ AUX)
    Blend: AUG-CC-PVQZ-JKFIT
  @DF-RHF Final Energy:  -196.41620401382875
    Total Energy =                       -196.4162040138287466
  Basis Set: (AUG-CC-PVQZ AUX)
  @DF-RHF Final Energy:  -196.40447167677695
    Total Energy =                       -196.4044716767769501
  @DF-RHF Final Energy:  -196.41623643908744
    Total Energy =                       -196.4162364390874416
  @DF-RHF Final Energy:  -196.40447064360819
    Total Energy =                       -196.4044706436081924
  @DF-RHF Final Energy:  -196.41623540506703
    Total Energy =                       -196.4162354050670274
  @DF-RHF Final Energy:  -196.40438077139206
    Total Energy =                       -196.4043807713920557
  @DF-RHF Final Energy:  -196.41620297611050
    Total Energy =                       -196.4162029761104975
  Multiplicity = 1
  @DF-RHF Final Energy:  -392.79638523914713
    Total Energy =                       -392.7963852391470709
	 Singles Energy            =      -0.0000000000000000 [Eh]
	 Same-Spin Energy          =      -0.4248746483092316 [Eh]
	 Opposite-Spin Energy      =      -1.6007221169503330 [Eh]
	 Correlation Energy        =      -2.0255967652595643 [Eh]
	 Total Energy              =    -394.8219820044066637 [Eh]
	 SCS Total Energy          =    -394.8588766622572734 [Eh]
    Molecular point group: c1

    Geometry (in Angstrom), charge = 0, multiplicity = 1:

       Center              X                  Y                   Z               Mass
    ------------   -----------------  -----------------  -----------------  -----------------
         C           -2.533300732961    -0.297959782232    -1.760127182209    12.000000000000
         H           -2.563618732961    -0.980162782232    -2.609699182209     1.007825032230
         H           -2.566969732961    -0.898956782232    -0.851544182209     1.007825032230
         H           -3.434417732961     0.312876217768    -1.789172182209     1.007825032230
         C           -1.271876732961     0.554574217768    -1.798921182209    12.000000000000
         H           -1.271017732961     1.253485217768    -0.958957182209     1.007825032230
         H           -1.266624732961     1.164815217768    -2.705103182209     1.007825032230
         C           -0.000126732961    -0.281498782232    -1.753673182209    12.000000000000
         H           -0.000150732961    -0.890310782232    -0.844639182209     1.007825032230
         H           -0.000356732961    -0.983794782232    -2.592680182209     1.007825032230
         C            1.271903267039     0.554301217768    -1.799215182209    12.000000000000
         H            1.270980267039     1.253552217768    -0.959571182209     1.007825032230
         H            1.266644267039     1.164102217768    -2.705663182209     1.007825032230
         C            2.533412267039    -0.298022782232    -1.759996182209    12.000000000000
         H            2.563927267039    -0.980854782232    -2.609054182209     1.007825032230
         H            3.434318267039     0.313173217768    -1.789677182209     1.007825032230
         H            2.567566267039    -0.898289782232    -0.850947182209     1.007825032230
         C            2.533566267039     0.297641217768     1.760001817791    12.000000000000
         H            2.568151267039     0.897448217768     0.850675817791     1.007825032230
         H            2.564070267039     0.980847217768     2.608746817791     1.007825032230
         H            3.434247267039    -0.313855782232     1.790210817791     1.007825032230
         C            1.271740267039    -0.554245782232     1.799305817791    12.000000000000
         H            1.266296267039    -1.163973782232     2.705802817791     1.007825032230
         H            1.270609267039    -1.253599782232     0.959724817791     1.007825032230
         C           -0.000034732961     0.281853217768     1.753689817791    12.000000000000
         H           -0.000189732961     0.984163217768     2.592673817791     1.007825032230
         H            0.000042267039     0.890629217768     0.844619817791     1.007825032230
         C           -1.271795732961    -0.554288782232     1.798960817791    12.000000000000
         H           -1.266413732961    -1.164398782232     2.705210817791     1.007825032230
         H           -1.270688732961    -1.253311782232     0.959096817791     1.007825032230
         C           -2.533514732961     0.297757217768     1.759982817791    12.000000000000
         H           -2.567707732961     0.898291217768     0.851106817791     1.007825032230
         H           -3.434316732961    -0.313540782232     1.789496817791     1.007825032230
         H           -2.564054732961     0.980343217768     2.609244817791     1.007825032230

  Charge       = 0
  Multiplicity = 1
  Basis Set: AUG-CC-PVQZ
    Blend: AUG-CC-PVQZ
  Basis Set: (AUG-CC-PVQZ AUX)
    Blend: AUG-CC-PVQZ-JKFIT

    Orbital Energies [Eh]
    ---------------------

    Doubly Occupied:

       1A    -11.211631     2A    -11.211629     3A    -11.211574
       4A    -11.211572     5A    -11.208651     6A    -11.208650
       7A    -11.205413     8A    -11.205409     9A    -11.205408
      10A    -11.205407    11A     -1.086416    12A     -1.077531
      13A     -1.020008    14A     -1.011816    15A     -0.923419
      16A     -0.915359    17A     -0.820643    18A     -0.820299
      19A     -0.791508    20A     -0.781084    21A     -0.669991
      22A     -0.627596    23A     -0.611754    24A     -0.602293
      25A     -0.596347    26A     -0.576346    27A     -0.557364
      28A     -0.552940    29A     -0.547853    30A     -0.546897
      31A     -0.539766    32A     -0.513661    33A     -0.496124
      34A     -0.493515    35A     -0.480683    36A     -0.474817
      37A     -0.473156    38A     -0.468832    39A     -0.454696
      40A     -0.448398    41A     -0.445880    42A     -0.444916

  @DF-RHF Final Energy:  -392.81992901219883

   => Energetics <=

    Nuclear Repulsion Energy =            590.0612097954508499
    One-Electron Energy =               -1699.8477640880128092
    Two-Electron Energy =                 716.9666252803631323
    Total Energy =                       -392.8199290121988270

  Dipole Moment: [D]
     X:    -0.0000      Y:    -0.0000      Z:    -0.0000     Total:     0.0000

  Basis Set: (AUG-CC-PVQZ AUX)
    Blend: AUG-CC-PVQZ-RI
	 Reference Energy          =    -392.8199290121988270 [Eh]
	 Singles Energy            =      -0.0000000000000000 [Eh]
	 Same-Spin Energy          =      -0.4480605071870266 [Eh]
	 Opposite-Spin Energy      =      -1.7681350100836419 [Eh]
	 Correlation Energy        =      -2.2161955172706684 [Eh]
	 Total Energy              =    -395.0361245294694754 [Eh]

	 ================> DF-SCS-MP2 Energies <==================
	-----------------------------------------------------------
	 SCS Same-Spin Scale       =       0.3333333333333333 [-]
	 SCS Opposite-Spin Scale   =       1.2000000000000000 [-]
	 SCS Same-Spin Energy      =      -0.1493535023956755 [Eh]
	 SCS Opposite-Spin Energy  =      -2.1217620121003704 [Eh]
	 SCS Correlation Energy    =      -2.2711155144960458 [Eh]
	 SCS Total Energy          =    -395.0910445266948727 [Eh]
	-----------------------------------------------------------

*** Psi4 exiting successfully. Buy a developer a beer!
