                               Psi4 1.4a2.dev224

  ==> Input File <==

--------------------------------------------------------------------------
#Generated by lconvert.py for cbs job

memory 40 GB

molecule  {
0 1
  C       -2.5333090    -0.2948790     0.7131490
  H       -2.5636270    -0.9770820    -0.1364230
  H       -2.5669780    -0.8958760     1.6217320
  H       -3.4344260     0.3159570     0.6841040
  C       -1.2718850     0.5576550     0.6743550
  H       -1.2710260     1.2565660     1.5143190
  H       -1.2666330     1.1678960    -0.2318270
  C       -0.0001350    -0.2784180     0.7196030
  H       -0.0001590    -0.8872300     1.6286370
  H       -0.0003650    -0.9807140    -0.1194040
  C        1.2718950     0.5573820     0.6740610
  H        1.2709720     1.2566330     1.5137050
  H        1.2666360     1.1671830    -0.2323870
  C        2.5334040    -0.2949420     0.7132800
  H        2.5639190    -0.9777740    -0.1357780
  H        3.4343100     0.3162540     0.6835990
  H        2.5675580    -0.8952090     1.6223290
--
0 1
  C        2.5335570     0.2916770     4.6772400
  H        2.5681410     0.8914840     3.7679140
  H        2.5640600     0.9748840     5.5259840
  H        3.4342370    -0.3198200     4.7074490
  C        1.2717310    -0.5602100     4.7165440
  H        1.2662870    -1.1699380     5.6230410
  H        1.2706000    -1.2595640     3.8769630
  C       -0.0000440     0.2758890     4.6709270
  H       -0.0001990     0.9781990     5.5099120
  H        0.0000320     0.8846660     3.7618580
  C       -1.2718050    -0.5602530     4.7161990
  H       -1.2664230    -1.1703620     5.6224490
  H       -1.2706990    -1.2592760     3.8763350
  C       -2.5335240     0.2917940     4.6772210
  H       -2.5677180     0.8923270     3.7683440
  H       -3.4343260    -0.3195050     4.7067340
  H       -2.5640640     0.9743800     5.5264830
units angstrom
no_reorient
symmetry c1
}

set {
scf_type DF
mp2_type DF
e_convergence 7
reference rhf
}

energy('mp2/aug-cc-pv[tq]z', bsse_type='cp')
--------------------------------------------------------------------------

    Molecular point group: c1
  Charge       = 0
  Multiplicity = 1
  Basis Set: AUG-CC-PVTZ
    Blend: AUG-CC-PVTZ
  Basis Set: (AUG-CC-PVTZ AUX)
    Blend: AUG-CC-PVTZ-JKFIT
  @DF-RHF Final Energy:  -196.40438180877879
    Total Energy =                       -196.4043818087787940
  Basis Set: (AUG-CC-PVTZ AUX)
    Blend: AUG-CC-PVTZ-RI
	 Reference Energy          =    -196.4043818087787940 [Eh]
	 Singles Energy            =      -0.0000000000000000 [Eh]
	 Same-Spin Energy          =      -0.2078833726625510 [Eh]
	 Opposite-Spin Energy      =      -0.7930658603538625 [Eh]
	 Correlation Energy        =      -1.0009492330164136 [Eh]
	 Total Energy              =    -197.4053310417951934 [Eh]
	 SCS Total Energy          =    -197.4253552987576086 [Eh]
    Molecular point group: c1
  Basis Set: AUG-CC-PVQZ
    Blend: AUG-CC-PVQZ
  Basis Set: (AUG-CC-PVQZ AUX)
    Blend: AUG-CC-PVQZ-JKFIT
  @DF-RHF Final Energy:  -196.41620401609308
    Total Energy =                       -196.4162040160930758
  Basis Set: (AUG-CC-PVQZ AUX)
  @DF-RHF Final Energy:  -196.40444029645994
    Total Energy =                       -196.4044402964599385
  @DF-RHF Final Energy:  -196.41622694011153
    Total Energy =                       -196.4162269401115282
  @DF-RHF Final Energy:  -196.40443926780728
    Total Energy =                       -196.4044392678072768
  @DF-RHF Final Energy:  -196.41622590628592
    Total Energy =                       -196.4162259062859164
  @DF-RHF Final Energy:  -196.40438077069876
    Total Energy =                       -196.4043807706987650
  @DF-RHF Final Energy:  -196.41620297651687
    Total Energy =                       -196.4162029765168711
  Multiplicity = 1
  @DF-RHF Final Energy:  -392.80564781701923
    Total Energy =                       -392.8056478170192349
	 Singles Energy            =      -0.0000000000000000 [Eh]
	 Same-Spin Energy          =      -0.4206743283728258 [Eh]
	 Opposite-Spin Energy      =      -1.5945382760717695 [Eh]
	 Correlation Energy        =      -2.0152126044445953 [Eh]
	 Total Energy              =    -394.8208604214638058 [Eh]
	 SCS Total Energy          =    -394.8593185244296251 [Eh]
    Molecular point group: c1

    Geometry (in Angstrom), charge = 0, multiplicity = 1:

       Center              X                  Y                   Z               Mass
    ------------   -----------------  -----------------  -----------------  -----------------
         C           -2.533300191023    -0.293437393416    -1.982108078015    12.000000000000
         H           -2.563618191023    -0.975640393416    -2.831680078015     1.007825032230
         H           -2.566969191023    -0.894434393416    -1.073525078015     1.007825032230
         H           -3.434417191023     0.317398606584    -2.011153078015     1.007825032230
         C           -1.271876191023     0.559096606584    -2.020902078015    12.000000000000
         H           -1.271017191023     1.258007606584    -1.180938078015     1.007825032230
         H           -1.266624191023     1.169337606584    -2.927084078015     1.007825032230
         C           -0.000126191023    -0.276976393416    -1.975654078015    12.000000000000
         H           -0.000150191023    -0.885788393416    -1.066620078015     1.007825032230
         H           -0.000356191023    -0.979272393416    -2.814661078015     1.007825032230
         C            1.271903808977     0.558823606584    -2.021196078015    12.000000000000
         H            1.270980808977     1.258074606584    -1.181552078015     1.007825032230
         H            1.266644808977     1.168624606584    -2.927644078015     1.007825032230
         C            2.533412808977    -0.293500393416    -1.981977078015    12.000000000000
         H            2.563927808977    -0.976332393416    -2.831035078015     1.007825032230
         H            3.434318808977     0.317695606584    -2.011658078015     1.007825032230
         H            2.567566808977    -0.893767393416    -1.072928078015     1.007825032230
         C            2.533565808977     0.293118606584     1.981982921985    12.000000000000
         H            2.568149808977     0.892925606584     1.072656921985     1.007825032230
         H            2.564068808977     0.976325606584     2.830726921985     1.007825032230
         H            3.434245808977    -0.318378393416     2.012191921985     1.007825032230
         C            1.271739808977    -0.558768393416     2.021286921985    12.000000000000
         H            1.266295808977    -1.168496393416     2.927783921985     1.007825032230
         H            1.270608808977    -1.258122393416     1.181705921985     1.007825032230
         C           -0.000035191023     0.277330606584     1.975669921985    12.000000000000
         H           -0.000190191023     0.979640606584     2.814654921985     1.007825032230
         H            0.000040808977     0.886107606584     1.066600921985     1.007825032230
         C           -1.271796191023    -0.558811393416     2.020941921985    12.000000000000
         H           -1.266414191023    -1.168920393416     2.927191921985     1.007825032230
         H           -1.270690191023    -1.257834393416     1.181077921985     1.007825032230
         C           -2.533515191023     0.293235606584     1.981963921985    12.000000000000
         H           -2.567709191023     0.893768606584     1.073086921985     1.007825032230
         H           -3.434317191023    -0.318063393416     2.011476921985     1.007825032230
         H           -2.564055191023     0.975821606584     2.831225921985     1.007825032230

  Charge       = 0
  Multiplicity = 1
  Basis Set: AUG-CC-PVQZ
    Blend: AUG-CC-PVQZ
  Basis Set: (AUG-CC-PVQZ AUX)
    Blend: AUG-CC-PVQZ-JKFIT

    Orbital Energies [Eh]
    ---------------------

    Doubly Occupied:

       1A    -11.212117     2A    -11.212116     3A    -11.212049
       4A    -11.212047     5A    -11.209547     6A    -11.209546
       7A    -11.206167     8A    -11.206164     9A    -11.206162
      10A    -11.206161    11A     -1.083457    12A     -1.080083
      13A     -1.017346    14A     -1.014220    15A     -0.920907
      16A     -0.917829    17A     -0.820391    18A     -0.820349
      19A     -0.788071    20A     -0.783675    21A     -0.658984
      22A     -0.637965    23A     -0.602645    24A     -0.600392
      25A     -0.597796    26A     -0.585018    27A     -0.555456
      28A     -0.553821    29A     -0.548038    30A     -0.547699
      31A     -0.533015    32A     -0.520140    33A     -0.496108
      34A     -0.494069    35A     -0.478803    36A     -0.474844
      37A     -0.467959    38A     -0.466503    39A     -0.458249
      40A     -0.452324    41A     -0.447879    42A     -0.446934

  @DF-RHF Final Energy:  -392.82922509863874

   => Energetics <=

    Nuclear Repulsion Energy =            571.3984085966931161
    One-Electron Energy =               -1662.5291707598923949
    Two-Electron Energy =                 698.3015370645605344
    Total Energy =                       -392.8292250986387444

  Dipole Moment: [D]
     X:    -0.0000      Y:    -0.0000      Z:     0.0000     Total:     0.0000

  Basis Set: (AUG-CC-PVQZ AUX)
    Blend: AUG-CC-PVQZ-RI
	 Reference Energy          =    -392.8292250986387444 [Eh]
	 Singles Energy            =      -0.0000000000000000 [Eh]
	 Same-Spin Energy          =      -0.4439251259821704 [Eh]
	 Opposite-Spin Energy      =      -1.7630345957040570 [Eh]
	 Correlation Energy        =      -2.2069597216862276 [Eh]
	 Total Energy              =    -395.0361848203249906 [Eh]

	 ================> DF-SCS-MP2 Energies <==================
	-----------------------------------------------------------
	 SCS Same-Spin Scale       =       0.3333333333333333 [-]
	 SCS Opposite-Spin Scale   =       1.2000000000000000 [-]
	 SCS Same-Spin Energy      =      -0.1479750419940568 [Eh]
	 SCS Opposite-Spin Energy  =      -2.1156415148448682 [Eh]
	 SCS Correlation Energy    =      -2.2636165568389250 [Eh]
	 SCS Total Energy          =    -395.0928416554776845 [Eh]
	-----------------------------------------------------------

*** Psi4 exiting successfully. Buy a developer a beer!
