                               Psi4 1.4a2.dev224

  ==> Input File <==

--------------------------------------------------------------------------
#Generated by lconvert.py for cbs job

memory 40 GB

molecule  {
0 1
  C       -2.5333090    -0.2948790     0.7131490
  H       -2.5636270    -0.9770820    -0.1364230
  H       -2.5669780    -0.8958760     1.6217320
  H       -3.4344260     0.3159570     0.6841040
  C       -1.2718850     0.5576550     0.6743550
  H       -1.2710260     1.2565660     1.5143190
  H       -1.2666330     1.1678960    -0.2318270
  C       -0.0001350    -0.2784180     0.7196030
  H       -0.0001590    -0.8872300     1.6286370
  H       -0.0003650    -0.9807140    -0.1194040
  C        1.2718950     0.5573820     0.6740610
  H        1.2709720     1.2566330     1.5137050
  H        1.2666360     1.1671830    -0.2323870
  C        2.5334040    -0.2949420     0.7132800
  H        2.5639190    -0.9777740    -0.1357780
  H        3.4343100     0.3162540     0.6835990
  H        2.5675580    -0.8952090     1.6223290
--
0 1
  C        2.5335600     0.3143480     3.5644120
  H        2.5681450     0.9141550     2.6550860
  H        2.5640640     0.9975550     4.4131570
  H        3.4342410    -0.2971490     3.5946210
  C        1.2717340    -0.5375390     3.6037160
  H        1.2662900    -1.1472670     4.5102130
  H        1.2706040    -1.2368930     2.7641350
  C       -0.0000410     0.2985600     3.5581000
  H       -0.0001960     1.0008700     4.3970840
  H        0.0000360     0.9073360     2.6490300
  C       -1.2718020    -0.5375820     3.6033710
  H       -1.2664190    -1.1476920     4.5096210
  H       -1.2706950    -1.2366050     2.7635080
  C       -2.5335210     0.3144640     3.5643940
  H       -2.5677140     0.9149980     2.6555170
  H       -3.4343230    -0.2968340     3.5939070
  H       -2.5640600     0.9970500     4.4136550
units angstrom
no_reorient
symmetry c1
}

set {
scf_type DF
mp2_type DF
e_convergence 7
reference rhf
}

energy('mp2/aug-cc-pv[tq]z', bsse_type='cp')
--------------------------------------------------------------------------

    Molecular point group: c1
  Charge       = 0
  Multiplicity = 1
  Basis Set: AUG-CC-PVTZ
    Blend: AUG-CC-PVTZ
  Basis Set: (AUG-CC-PVTZ AUX)
    Blend: AUG-CC-PVTZ-JKFIT
  @DF-RHF Final Energy:  -196.40438180846908
    Total Energy =                       -196.4043818084690827
  Basis Set: (AUG-CC-PVTZ AUX)
    Blend: AUG-CC-PVTZ-RI
	 Reference Energy          =    -196.4043818084690827 [Eh]
	 Singles Energy            =      -0.0000000000000000 [Eh]
	 Same-Spin Energy          =      -0.2078833766175110 [Eh]
	 Opposite-Spin Energy      =      -0.7930658594762587 [Eh]
	 Correlation Energy        =      -1.0009492360937697 [Eh]
	 Total Energy              =    -197.4053310445628426 [Eh]
	 SCS Total Energy          =    -197.4253552987131002 [Eh]
    Molecular point group: c1
  Basis Set: AUG-CC-PVQZ
    Blend: AUG-CC-PVQZ
  Basis Set: (AUG-CC-PVQZ AUX)
    Blend: AUG-CC-PVQZ-JKFIT
  @DF-RHF Final Energy:  -196.41620401667512
    Total Energy =                       -196.4162040166751240
  Basis Set: (AUG-CC-PVQZ AUX)
  @DF-RHF Final Energy:  -196.40454650883098
    Total Energy =                       -196.4045465088309754
  @DF-RHF Final Energy:  -196.41625481135128
    Total Energy =                       -196.4162548113512798
  @DF-RHF Final Energy:  -196.40454548299124
    Total Energy =                       -196.4045454829912387
  @DF-RHF Final Energy:  -196.41625377448446
    Total Energy =                       -196.4162537744844599
  @DF-RHF Final Energy:  -196.40438077252628
    Total Energy =                       -196.4043807725262809
  @DF-RHF Final Energy:  -196.41620297655447
    Total Energy =                       -196.4162029765544730
  @DF-RHF Final Energy:  -392.72306043727508
    Total Energy =                       -392.7230604372750804
  @DF-RHF Final Energy:  -392.74657383957992
    Total Energy =                       -392.7465738395799235
*** Psi4 exiting successfully. Buy a developer a beer!
                               Psi4 1.4a2.dev224
  @DF-RHF Final Energy:  -196.40438181496492
    Total Energy =                       -196.4043818149649212
  @DF-RHF Final Energy:  -196.41620402081270
    Total Energy =                       -196.4162040208126996
  @DF-RHF Final Energy:  -196.40450409947073
    Total Energy =                       -196.4045040994707279
  @DF-RHF Final Energy:  -196.41624351285830
    Total Energy =                       -196.4162435128583013
  @DF-RHF Final Energy:  -196.40450306420814
    Total Energy =                       -196.4045030642081429
  @DF-RHF Final Energy:  -196.41624247040082
    Total Energy =                       -196.4162424704008174
  @DF-RHF Final Energy:  -196.40438077106216
    Total Energy =                       -196.4043807710621650
  @DF-RHF Final Energy:  -196.41620297613312
    Total Energy =                       -196.4162029761331212
  @DF-RHF Final Energy:  -392.77700829811141
    Total Energy =                       -392.7770082981114683
  @DF-RHF Final Energy:  -392.80052332315029
    Total Energy =                       -392.8005233231502871
*** Psi4 exiting successfully. Buy a developer a beer!
                               Psi4 1.4a2.dev224
                               Psi4 1.4a2.dev224
                               Psi4 1.4a2.dev224
                               Psi4 1.4a2.dev224
                               Psi4 1.4a2.dev224
                               Psi4 1.4a2.dev224
                               Psi4 1.4a2.dev224
  @DF-RHF Final Energy:  -196.40438170908865
    Total Energy =                       -196.4043817090886535
  @DF-RHF Final Energy:  -196.41620391154666
    Total Energy =                       -196.4162039115466598
  @DF-RHF Final Energy:  -196.40439295877835
    Total Energy =                       -196.4043929587783452
  @DF-RHF Final Energy:  -196.41621049436134
    Total Energy =                       -196.4162104943613372
  @DF-RHF Final Energy:  -196.40439198882748
    Total Energy =                       -196.4043919888274843
  @DF-RHF Final Energy:  -196.41620952346631
    Total Energy =                       -196.4162095234663070
  @DF-RHF Final Energy:  -196.40438073795747
    Total Energy =                       -196.4043807379574673
  @DF-RHF Final Energy:  -196.41620293774793
    Total Energy =                       -196.4162029377479257
  @DF-RHF Final Energy:  -392.80876306785882
    Total Energy =                       -392.8087630678587630
  @DF-RHF Final Energy:  -392.83239808142821
    Total Energy =                       -392.8323980814282095
*** Psi4 exiting successfully. Buy a developer a beer!
                               Psi4 1.4a2.dev224
  @DF-RHF Final Energy:  -196.40438187710589
    Total Energy =                       -196.4043818771058909
  @DF-RHF Final Energy:  -196.41620408822939
    Total Energy =                       -196.4162040882293923
  @DF-RHF Final Energy:  -196.40438612416347
    Total Energy =                       -196.4043861241634659
  @DF-RHF Final Energy:  -196.41620703116291
    Total Energy =                       -196.4162070311629122
  @DF-RHF Final Energy:  -196.40438498446395
    Total Energy =                       -196.4043849844639453
  @DF-RHF Final Energy:  -196.41620588208843
    Total Energy =                       -196.4162058820884340
  @DF-RHF Final Energy:  -196.40438073669876
    Total Energy =                       -196.4043807366987551
  @DF-RHF Final Energy:  -196.41620293997775
    Total Energy =                       -196.4162029399777509
  Multiplicity = 1
  @DF-RHF Final Energy:  -392.80876189145812
    Total Energy =                       -392.8087618914581753
	 Singles Energy            =      -0.0000000000000000 [Eh]
	 Same-Spin Energy          =      -0.4159578981579068 [Eh]
	 Opposite-Spin Energy      =      -1.5865838801168999 [Eh]
	 Correlation Energy        =      -2.0025417782748067 [Eh]
	 Total Energy              =    -394.8113036697329221 [Eh]
	 SCS Total Energy          =    -394.8513151803177266 [Eh]
    Molecular point group: c1

    Geometry (in Angstrom), charge = 0, multiplicity = 1:

       Center              X                  Y                   Z               Mass
    ------------   -----------------  -----------------  -----------------  -----------------
         C           -2.533296684033    -0.263362704695    -3.458513259095    12.000000000000
         H           -2.563616684033    -0.945562704695    -4.308083259095     1.007825032230
         H           -2.566966684033    -0.864362704695    -2.549933259095     1.007825032230
         H           -3.434416684033     0.347477295305    -3.487563259095     1.007825032230
         C           -1.271866684033     0.589177295305    -3.497303259095    12.000000000000
         H           -1.271016684033     1.288087295305    -2.657343259095     1.007825032230
         H           -1.266616684033     1.199417295305    -4.403493259095     1.007825032230
         C           -0.000126684033    -0.246902704695    -3.452063259095    12.000000000000
         H           -0.000146684033    -0.855712704695    -2.543023259095     1.007825032230
         H           -0.000346684033    -0.949192704695    -4.291063259095     1.007825032230
         C            1.271903315967     0.588897295305    -3.497603259095    12.000000000000
         H            1.270983315967     1.288147295305    -2.657953259095     1.007825032230
         H            1.266653315967     1.198697295305    -4.404053259095     1.007825032230
         C            2.533413315967    -0.263422704695    -3.458383259095    12.000000000000
         H            2.563933315967    -0.946252704695    -4.307443259095     1.007825032230
         H            3.434323315967     0.347767295305    -3.488063259095     1.007825032230
         H            2.567573315967    -0.863692704695    -2.549333259095     1.007825032230
         C            2.533563315967     0.263047295305     3.458386740905    12.000000000000
         H            2.568143315967     0.862847295305     2.549066740905     1.007825032230
         H            2.564063315967     0.946247295305     4.307136740905     1.007825032230
         H            3.434243315967    -0.348452704695     3.488596740905     1.007825032230
         C            1.271733315967    -0.588842704695     3.497696740905    12.000000000000
         H            1.266293315967    -1.198572704695     4.404186740905     1.007825032230
         H            1.270603315967    -1.288202704695     2.658106740905     1.007825032230
         C           -0.000036684033     0.247257295305     3.452076740905    12.000000000000
         H           -0.000196684033     0.949567295305     4.291056740905     1.007825032230
         H            0.000033315967     0.856027295305     2.543006740905     1.007825032230
         C           -1.271796684033    -0.588892704695     3.497346740905    12.000000000000
         H           -1.266416684033    -1.199002704695     4.403596740905     1.007825032230
         H           -1.270696684033    -1.287912704695     2.657486740905     1.007825032230
         C           -2.533516684033     0.263157295305     3.458366740905    12.000000000000
         H           -2.567716684033     0.863687295305     2.549496740905     1.007825032230
         H           -3.434316684033    -0.348142704695     3.487886740905     1.007825032230
         H           -2.564056684033     0.945747295305     4.307636740905     1.007825032230

  Charge       = 0
  Multiplicity = 1
  Basis Set: AUG-CC-PVQZ
    Blend: AUG-CC-PVQZ
  Basis Set: (AUG-CC-PVQZ AUX)
    Blend: AUG-CC-PVQZ-JKFIT

    Orbital Energies [Eh]
    ---------------------

    Doubly Occupied:

       1A    -11.211848     2A    -11.211846     3A    -11.211774
       4A    -11.211772     5A    -11.209429     6A    -11.209428
       7A    -11.206321     8A    -11.206319     9A    -11.206317
      10A    -11.206315    11A     -1.081303    12A     -1.081299
      13A     -1.015454    14A     -1.015446    15A     -0.919132
      16A     -0.919117    17A     -0.820045    18A     -0.820035
      19A     -0.785278    20A     -0.785269    21A     -0.647795
      22A     -0.647695    23A     -0.598747    24A     -0.598731
      25A     -0.593356    26A     -0.593269    27A     -0.554233
      28A     -0.554215    29A     -0.547784    30A     -0.547779
      31A     -0.526272    32A     -0.526207    33A     -0.494931
      34A     -0.494897    35A     -0.476381    36A     -0.476358
      37A     -0.462254    38A     -0.462139    39A     -0.459685
      40A     -0.459575    41A     -0.447201    42A     -0.447198

  @DF-RHF Final Energy:  -392.83240364760638

   => Energetics <=

    Nuclear Repulsion Energy =            497.3043810749643399
    One-Electron Energy =               -1514.3726688104798086
    Two-Electron Energy =                 624.2358840879090849
    Total Energy =                       -392.8324036476063839

  Dipole Moment: [D]
     X:     0.0000      Y:    -0.0000      Z:     0.0000     Total:     0.0000

  Basis Set: (AUG-CC-PVQZ AUX)
    Blend: AUG-CC-PVQZ-RI
	 Reference Energy          =    -392.8324036476063839 [Eh]
	 Singles Energy            =      -0.0000000000000000 [Eh]
	 Same-Spin Energy          =      -0.4394769495090079 [Eh]
	 Opposite-Spin Energy      =      -1.7571952677634024 [Eh]
	 Correlation Energy        =      -2.1966722172724102 [Eh]
	 Total Energy              =    -395.0290758648787914 [Eh]

	 ================> DF-SCS-MP2 Energies <==================
	-----------------------------------------------------------
	 SCS Same-Spin Scale       =       0.3333333333333333 [-]
	 SCS Opposite-Spin Scale   =       1.2000000000000000 [-]
	 SCS Same-Spin Energy      =      -0.1464923165030026 [Eh]
	 SCS Opposite-Spin Energy  =      -2.1086343213160830 [Eh]
	 SCS Correlation Energy    =      -2.2551266378190857 [Eh]
	 SCS Total Energy          =    -395.0875302854254869 [Eh]
	-----------------------------------------------------------

*** Psi4 exiting successfully. Buy a developer a beer!
