                               Psi4 1.4a2.dev224

  ==> Input File <==

--------------------------------------------------------------------------
#Generated by lconvert.py for cbs job

memory 40 GB

molecule  {
0 1
  C       -2.5303830    -0.4175750     0.6813060
  H       -2.5598860    -0.9827900    -0.2501560
  H       -2.5540360    -1.1338650     1.5026580
  H       -3.4362140     0.1841440     0.7367710
  C       -1.2761570     0.4436350     0.7500250
  H       -1.2780840     1.0252180     1.6750850
  H       -1.2803390     1.1685560    -0.0671580
  C        0.0022050    -0.3807160     0.6789930
  H        0.0078290    -1.1114130     1.4938310
  H        0.0062490    -0.9605230    -0.2488200
  C        1.2683330     0.4623960     0.7493690
  H        1.2620200     1.0442500     1.6742460
  H        1.2616350     1.1870570    -0.0680350
  C        2.5349660    -0.3804250     0.6806860
  H        2.5724400    -0.9457170    -0.2504520
  H        3.4319810     0.2344150     0.7355780
  H        2.5692080    -1.0958100     1.5024560
--
0 1
  C       -0.0004300     0.0342350     4.1950870
  C        0.0006420    -0.1058960     5.7148200
  H       -0.8863950     0.3581800     6.1481890
  H        0.0098930    -1.1566760     6.0078300
  H        0.8793020     0.3737680     6.1484630
  C       -1.2398860    -0.6474170     3.6211880
  H       -1.2631850    -0.5584600     2.5343590
  H       -1.2519710    -1.7086940     3.8742020
  H       -2.1508290    -0.1951260     4.0162740
  C        1.2521750    -0.6233060     3.6216170
  H        1.2735020    -0.5350200     2.5346460
  H        1.2853050    -1.6838670     3.8757090
  H        2.1539870    -0.1526630     4.0160380
  C       -0.0146780     1.5140270     3.8204660
  H        0.8630880     2.0246140     4.2194210
  H       -0.0152020     1.6404820     2.7368140
  H       -0.9027840     2.0073610     4.2182540
units angstrom
no_reorient
symmetry c1
}

set {
scf_type DF
mp2_type DF
e_convergence 7
reference rhf
}

energy('mp2/aug-cc-pv[tq]z', bsse_type='cp')
--------------------------------------------------------------------------

    Molecular point group: c1
  Charge       = 0
  Multiplicity = 1
  Basis Set: AUG-CC-PVTZ
    Blend: AUG-CC-PVTZ
  Basis Set: (AUG-CC-PVTZ AUX)
    Blend: AUG-CC-PVTZ-JKFIT
  @DF-RHF Final Energy:  -196.40454825872106
    Total Energy =                       -196.4045482587210927
  Basis Set: (AUG-CC-PVTZ AUX)
    Blend: AUG-CC-PVTZ-RI
	 Reference Energy          =    -196.4045482587210643 [Eh]
	 Singles Energy            =      -0.0000000000000000 [Eh]
	 Same-Spin Energy          =      -0.2117454858113014 [Eh]
	 Opposite-Spin Energy      =      -0.7978323209416187 [Eh]
	 Correlation Energy        =      -1.0095778067529202 [Eh]
	 Total Energy              =    -197.4141260654739938 [Eh]
	 SCS Total Energy          =    -197.4325288724547818 [Eh]
    Molecular point group: c1
  Basis Set: AUG-CC-PVQZ
    Blend: AUG-CC-PVQZ
  Basis Set: (AUG-CC-PVQZ AUX)
    Blend: AUG-CC-PVQZ-JKFIT
  @DF-RHF Final Energy:  -196.41639504693640
    Total Energy =                       -196.4163950469363726
  Basis Set: (AUG-CC-PVQZ AUX)
  @DF-RHF Final Energy:  -196.40468766755734
    Total Energy =                       -196.4046876675573685
  @DF-RHF Final Energy:  -196.41642944527999
    Total Energy =                       -196.4164294452799595
  @DF-RHF Final Energy:  -196.40452442163243
    Total Energy =                       -196.4045244216324306
  @DF-RHF Final Energy:  -196.41624971512735
    Total Energy =                       -196.4162497151273499
  @DF-RHF Final Energy:  -196.40438101129007
    Total Energy =                       -196.4043810112900701
  @DF-RHF Final Energy:  -196.41620316745079
    Total Energy =                       -196.4162031674507887
  @DF-RHF Final Energy:  -392.74166968982854
    Total Energy =                       -392.7416696898285409
  @DF-RHF Final Energy:  -392.76520931788269
    Total Energy =                       -392.7652093178827499
*** Psi4 exiting successfully. Buy a developer a beer!
                               Psi4 1.4a2.dev224
  @DF-RHF Final Energy:  -196.40454826834463
    Total Energy =                       -196.4045482683446266
  @DF-RHF Final Energy:  -196.41639505940645
    Total Energy =                       -196.4163950594064545
  @DF-RHF Final Energy:  -196.40464871721008
    Total Energy =                       -196.4046487172100797
  @DF-RHF Final Energy:  -196.41642071780578
    Total Energy =                       -196.4164207178058064
  @DF-RHF Final Energy:  -196.40449232447671
    Total Energy =                       -196.4044923244767062
  @DF-RHF Final Energy:  -196.41623963325628
    Total Energy =                       -196.4162396332562821
  @DF-RHF Final Energy:  -196.40438101222082
    Total Energy =                       -196.4043810122208242
  @DF-RHF Final Energy:  -196.41620316917107
    Total Energy =                       -196.4162031691710695
  @DF-RHF Final Energy:  -392.78368308313168
    Total Energy =                       -392.7836830831316774
  @DF-RHF Final Energy:  -392.80723332513486
    Total Energy =                       -392.8072333251349164
*** Psi4 exiting successfully. Buy a developer a beer!
                               Psi4 1.4a2.dev224
                               Psi4 1.4a2.dev224
                               Psi4 1.4a2.dev224
                               Psi4 1.4a2.dev224
                               Psi4 1.4a2.dev224
                               Psi4 1.4a2.dev224
                               Psi4 1.4a2.dev224
  @DF-RHF Final Energy:  -196.40454813359190
    Total Energy =                       -196.4045481335919021
  @DF-RHF Final Energy:  -196.41639491924752
    Total Energy =                       -196.4163949192475229
  @DF-RHF Final Energy:  -196.40455884639877
    Total Energy =                       -196.4045588463987428
  @DF-RHF Final Energy:  -196.41639849927327
    Total Energy =                       -196.4163984992732708
  @DF-RHF Final Energy:  -196.40438941933954
    Total Energy =                       -196.4043894193395374
  @DF-RHF Final Energy:  -196.41620826872028
    Total Energy =                       -196.4162082687202826
  @DF-RHF Final Energy:  -196.40438115160717
    Total Energy =                       -196.4043811516071685
  @DF-RHF Final Energy:  -196.41620331146288
    Total Energy =                       -196.4162033114628798
  @DF-RHF Final Energy:  -392.80893293829649
    Total Energy =                       -392.8089329382964934
  @DF-RHF Final Energy:  -392.83259129961198
    Total Energy =                       -392.8325912996119769
*** Psi4 exiting successfully. Buy a developer a beer!
                               Psi4 1.4a2.dev224
  @DF-RHF Final Energy:  -196.40454835583145
    Total Energy =                       -196.4045483558314800
  @DF-RHF Final Energy:  -196.41639515265308
    Total Energy =                       -196.4163951526530809
  @DF-RHF Final Energy:  -196.40455211925945
    Total Energy =                       -196.4045521192594492
  @DF-RHF Final Energy:  -196.41639670676972
    Total Energy =                       -196.4163967067697172
  @DF-RHF Final Energy:  -196.40438421185803
    Total Energy =                       -196.4043842118580301
  @DF-RHF Final Energy:  -196.41620525565111
    Total Energy =                       -196.4162052556511071
  @DF-RHF Final Energy:  -196.40438115282873
    Total Energy =                       -196.4043811528287335
  @DF-RHF Final Energy:  -196.41620331072065
    Total Energy =                       -196.4162033107206469
  Multiplicity = 1
  @DF-RHF Final Energy:  -392.80892958829560
    Total Energy =                       -392.8089295882955412
	 Singles Energy            =      -0.0000000000000000 [Eh]
	 Same-Spin Energy          =      -0.4197573323514641 [Eh]
	 Opposite-Spin Energy      =      -1.5912219539698955 [Eh]
	 Correlation Energy        =      -2.0109792863213594 [Eh]
	 Total Energy              =    -394.8199088746169423 [Eh]
	 SCS Total Energy          =    -394.8583150438432767 [Eh]
    Molecular point group: c1

    Geometry (in Angstrom), charge = 0, multiplicity = 1:

       Center              X                  Y                   Z               Mass
    ------------   -----------------  -----------------  -----------------  -----------------
         C           -2.529905793619    -0.464157191990    -3.943728941881    12.000000000000
         H           -2.559415793619    -1.029377191990    -4.875198941881     1.007825032230
         H           -2.553565793619    -1.180447191990    -3.122378941881     1.007825032230
         H           -3.435735793619     0.137552808010    -3.888268941881     1.007825032230
         C           -1.275685793619     0.397052808010    -3.875008941881    12.000000000000
         H           -1.277605793619     0.978632808010    -2.949958941881     1.007825032230
         H           -1.279865793619     1.121972808010    -4.692198941881     1.007825032230
         C            0.002674206381    -0.427307191990    -3.946048941881    12.000000000000
         H            0.008304206381    -1.157997191990    -3.131208941881     1.007825032230
         H            0.006724206381    -1.007107191990    -4.873858941881     1.007825032230
         C            1.268804206381     0.415812808010    -3.875668941881    12.000000000000
         H            1.262494206381     0.997662808010    -2.950788941881     1.007825032230
         H            1.262114206381     1.140472808010    -4.693068941881     1.007825032230
         C            2.535444206381    -0.427017191990    -3.944348941881    12.000000000000
         H            2.572914206381    -0.992307191990    -4.875488941881     1.007825032230
         H            3.432454206381     0.187832808010    -3.889458941881     1.007825032230
         H            2.569684206381    -1.142397191990    -3.122578941881     1.007825032230
         C           -0.000335793619     0.111232808010     3.918341058119    12.000000000000
         C            0.000734206381    -0.028897191990     5.438071058119    12.000000000000
         H           -0.886295793619     0.435182808010     5.871441058119     1.007825032230
         H            0.009994206381    -1.079677191990     5.731081058119     1.007825032230
         H            0.879394206381     0.450772808010     5.871711058119     1.007825032230
         C           -1.239785793619    -0.570417191990     3.344441058119    12.000000000000
         H           -1.263085793619    -0.481457191990     2.257611058119     1.007825032230
         H           -1.251875793619    -1.631687191990     3.597451058119     1.007825032230
         H           -2.150735793619    -0.118127191990     3.739521058119     1.007825032230
         C            1.252274206381    -0.546307191990     3.344871058119    12.000000000000
         H            1.273604206381    -0.458017191990     2.257901058119     1.007825032230
         H            1.285404206381    -1.606867191990     3.598961058119     1.007825032230
         H            2.154084206381    -0.075657191990     3.739291058119     1.007825032230
         C           -0.014585793619     1.591032808010     3.543721058119    12.000000000000
         H            0.863184206381     2.101612808010     3.942671058119     1.007825032230
         H           -0.015105793619     1.717482808010     2.460061058119     1.007825032230
         H           -0.902685793619     2.084362808010     3.941501058119     1.007825032230

  Charge       = 0
  Multiplicity = 1
  Basis Set: AUG-CC-PVQZ
    Blend: AUG-CC-PVQZ
  Basis Set: (AUG-CC-PVQZ AUX)
    Blend: AUG-CC-PVQZ-JKFIT

    Orbital Energies [Eh]
    ---------------------

    Doubly Occupied:

       1A    -11.225902     2A    -11.211728     3A    -11.211653
       4A    -11.209343     5A    -11.206147     6A    -11.206145
       7A    -11.204869     8A    -11.204866     9A    -11.204841
      10A    -11.204743    11A     -1.106561    12A     -1.081103
      13A     -1.015352    14A     -0.928951    15A     -0.928858
      16A     -0.928846    17A     -0.918885    18A     -0.819933
      19A     -0.785232    20A     -0.730146    21A     -0.647414
      22A     -0.612283    23A     -0.612209    24A     -0.612172
      25A     -0.598764    26A     -0.593098    27A     -0.554087
      28A     -0.553325    29A     -0.553289    30A     -0.547704
      31A     -0.525795    32A     -0.509757    33A     -0.509704
      34A     -0.509679    35A     -0.494919    36A     -0.476182
      37A     -0.462286    38A     -0.459374    39A     -0.452928
      40A     -0.452797    41A     -0.452786    42A     -0.447001

  @DF-RHF Final Energy:  -392.83259518520708

   => Energetics <=

    Nuclear Repulsion Energy =            500.5046501907000902
    One-Electron Energy =               -1520.7311859747369454
    Two-Electron Energy =                 627.3939405988297722
    Total Energy =                       -392.8325951852070830

  Dipole Moment: [D]
     X:    -0.0006      Y:     0.0830      Z:     0.0072     Total:     0.0833

  Basis Set: (AUG-CC-PVQZ AUX)
    Blend: AUG-CC-PVQZ-RI
	 Reference Energy          =    -392.8325951852070830 [Eh]
	 Singles Energy            =      -0.0000000000000000 [Eh]
	 Same-Spin Energy          =      -0.4432804443425947 [Eh]
	 Opposite-Spin Energy      =      -1.7613875972103723 [Eh]
	 Correlation Energy        =      -2.2046680415529671 [Eh]
	 Total Energy              =    -395.0372632267600466 [Eh]

	 ================> DF-SCS-MP2 Energies <==================
	-----------------------------------------------------------
	 SCS Same-Spin Scale       =       0.3333333333333333 [-]
	 SCS Opposite-Spin Scale   =       1.2000000000000000 [-]
	 SCS Same-Spin Energy      =      -0.1477601481141982 [Eh]
	 SCS Opposite-Spin Energy  =      -2.1136651166524465 [Eh]
	 SCS Correlation Energy    =      -2.2614252647666446 [Eh]
	 SCS Total Energy          =    -395.0940204499737547 [Eh]
	-----------------------------------------------------------

*** Psi4 exiting successfully. Buy a developer a beer!
