                               Psi4 1.4a2.dev224

  ==> Input File <==

--------------------------------------------------------------------------
#Generated by lconvert.py for cbs job

memory 40 GB

molecule  {
0 1
  C       -2.5303830    -0.4175750     0.6813060
  H       -2.5598860    -0.9827900    -0.2501560
  H       -2.5540360    -1.1338650     1.5026580
  H       -3.4362140     0.1841440     0.7367710
  C       -1.2761570     0.4436350     0.7500250
  H       -1.2780840     1.0252180     1.6750850
  H       -1.2803390     1.1685560    -0.0671580
  C        0.0022050    -0.3807160     0.6789930
  H        0.0078290    -1.1114130     1.4938310
  H        0.0062490    -0.9605230    -0.2488200
  C        1.2683330     0.4623960     0.7493690
  H        1.2620200     1.0442500     1.6742460
  H        1.2616350     1.1870570    -0.0680350
  C        2.5349660    -0.3804250     0.6806860
  H        2.5724400    -0.9457170    -0.2504520
  H        3.4319810     0.2344150     0.7355780
  H        2.5692080    -1.0958100     1.5024560
--
0 1
  C       -0.0004940     0.0550510     4.9274480
  C        0.0005780    -0.0850810     6.4471810
  H       -0.8864580     0.3789960     6.8805510
  H        0.0098290    -1.1358610     6.7401910
  H        0.8792380     0.3945840     6.8808240
  C       -1.2399490    -0.6266010     4.3535500
  H       -1.2632480    -0.5376440     3.2667210
  H       -1.2520350    -1.6878780     4.6065630
  H       -2.1508930    -0.1743100     4.7486350
  C        1.2521110    -0.6024900     4.3539780
  H        1.2734380    -0.5142050     3.2670070
  H        1.2852420    -1.6630510     4.6080700
  H        2.1539230    -0.1318470     4.7483990
  C       -0.0147420     1.5348430     4.5528270
  H        0.8630240     2.0454300     4.9517820
  H       -0.0152660     1.6612980     3.4691750
  H       -0.9028480     2.0281770     4.9506150
units angstrom
no_reorient
symmetry c1
}

set {
scf_type DF
mp2_type DF
e_convergence 7
reference rhf
}

energy('mp2/aug-cc-pv[tq]z', bsse_type='cp')
--------------------------------------------------------------------------

    Molecular point group: c1
  Charge       = 0
  Multiplicity = 1
  Basis Set: AUG-CC-PVTZ
    Blend: AUG-CC-PVTZ
  Basis Set: (AUG-CC-PVTZ AUX)
    Blend: AUG-CC-PVTZ-JKFIT
  @DF-RHF Final Energy:  -196.40454825300981
    Total Energy =                       -196.4045482530098070
  Basis Set: (AUG-CC-PVTZ AUX)
    Blend: AUG-CC-PVTZ-RI
	 Reference Energy          =    -196.4045482530098070 [Eh]
	 Singles Energy            =      -0.0000000000000000 [Eh]
	 Same-Spin Energy          =      -0.2117454929508137 [Eh]
	 Opposite-Spin Energy      =      -0.7978323235092415 [Eh]
	 Correlation Energy        =      -1.0095778164600553 [Eh]
	 Total Energy              =    -197.4141260694698587 [Eh]
	 SCS Total Energy          =    -197.4325288722045002 [Eh]
    Molecular point group: c1
  Basis Set: AUG-CC-PVQZ
    Blend: AUG-CC-PVQZ
  Basis Set: (AUG-CC-PVQZ AUX)
    Blend: AUG-CC-PVQZ-JKFIT
  @DF-RHF Final Energy:  -196.41639504284259
    Total Energy =                       -196.4163950428426233
  Basis Set: (AUG-CC-PVQZ AUX)
  @DF-RHF Final Energy:  -196.40462677887689
    Total Energy =                       -196.4046267788768887
  @DF-RHF Final Energy:  -196.41641484645882
    Total Energy =                       -196.4164148464588493
  @DF-RHF Final Energy:  -196.40446049481989
    Total Energy =                       -196.4044604948198867
  @DF-RHF Final Energy:  -196.41623131332736
    Total Energy =                       -196.4162313133273585
  @DF-RHF Final Energy:  -196.40438101242367
    Total Energy =                       -196.4043810124236700
  @DF-RHF Final Energy:  -196.41620316906767
    Total Energy =                       -196.4162031690676713
  Multiplicity = 1
  @DF-RHF Final Energy:  -392.79984790123217
    Total Energy =                       -392.7998479012321695
	 Singles Energy            =      -0.0000000000000000 [Eh]
	 Same-Spin Energy          =      -0.4261483137907915 [Eh]
	 Opposite-Spin Energy      =      -1.6020601671855910 [Eh]
	 Correlation Energy        =      -2.0282084809763825 [Eh]
	 Total Energy              =    -394.8280563822085583 [Eh]
	 SCS Total Energy          =    -394.8643695397851161 [Eh]
    Molecular point group: c1

    Geometry (in Angstrom), charge = 0, multiplicity = 1:

       Center              X                  Y                   Z               Mass
    ------------   -----------------  -----------------  -----------------  -----------------
         C           -2.530066326613    -0.412775697677    -2.135766645884    12.000000000000
         H           -2.559569326613    -0.977990697677    -3.067228645884     1.007825032230
         H           -2.553719326613    -1.129065697677    -1.314414645884     1.007825032230
         H           -3.435897326613     0.188943302323    -2.080301645884     1.007825032230
         C           -1.275840326613     0.448434302323    -2.067047645884    12.000000000000
         H           -1.277767326613     1.030017302323    -1.141987645884     1.007825032230
         H           -1.280022326613     1.173355302323    -2.884230645884     1.007825032230
         C            0.002521673387    -0.375916697677    -2.138079645884    12.000000000000
         H            0.008145673387    -1.106613697677    -1.323241645884     1.007825032230
         H            0.006565673387    -0.955723697677    -3.065892645884     1.007825032230
         C            1.268649673387     0.467195302323    -2.067703645884    12.000000000000
         H            1.262336673387     1.049049302323    -1.142826645884     1.007825032230
         H            1.261951673387     1.191856302323    -2.885107645884     1.007825032230
         C            2.535282673387    -0.375625697677    -2.136386645884    12.000000000000
         H            2.572756673387    -0.940917697677    -3.067524645884     1.007825032230
         H            3.432297673387     0.239214302323    -2.081494645884     1.007825032230
         H            2.569524673387    -1.091010697677    -1.314616645884     1.007825032230
         C           -0.000177326613     0.059850302323     2.110375354116    12.000000000000
         C            0.000894673387    -0.080281697677     3.630108354116    12.000000000000
         H           -0.886141326613     0.383795302323     4.063478354116     1.007825032230
         H            0.010145673387    -1.131061697677     3.923118354116     1.007825032230
         H            0.879554673387     0.399383302323     4.063751354116     1.007825032230
         C           -1.239632326613    -0.621801697677     1.536477354116    12.000000000000
         H           -1.262931326613    -0.532844697677     0.449648354116     1.007825032230
         H           -1.251718326613    -1.683078697677     1.789490354116     1.007825032230
         H           -2.150576326613    -0.169510697677     1.931562354116     1.007825032230
         C            1.252427673387    -0.597690697677     1.536905354116    12.000000000000
         H            1.273754673387    -0.509405697677     0.449934354116     1.007825032230
         H            1.285558673387    -1.658251697677     1.790997354116     1.007825032230
         H            2.154239673387    -0.127047697677     1.931326354116     1.007825032230
         C           -0.014425326613     1.539642302323     1.735754354116    12.000000000000
         H            0.863340673387     2.050229302323     2.134709354116     1.007825032230
         H           -0.014949326613     1.666097302323     0.652102354116     1.007825032230
         H           -0.902531326613     2.032976302323     2.133542354116     1.007825032230

  Charge       = 0
  Multiplicity = 1
  Basis Set: AUG-CC-PVQZ
    Blend: AUG-CC-PVQZ
  Basis Set: (AUG-CC-PVQZ AUX)
    Blend: AUG-CC-PVQZ-JKFIT

    Orbital Energies [Eh]
    ---------------------

    Doubly Occupied:

       1A    -11.225034     2A    -11.212185     3A    -11.212103
       4A    -11.209951     5A    -11.206308     6A    -11.206307
       7A    -11.204393     8A    -11.203787     9A    -11.202881
      10A    -11.202861    11A     -1.106223    12A     -1.082662
      13A     -1.016687    14A     -0.928948    15A     -0.928467
      16A     -0.928354    17A     -0.919793    18A     -0.821017
      19A     -0.786857    20A     -0.730799    21A     -0.655260
      22A     -0.614617    23A     -0.611945    24A     -0.606623
      25A     -0.599516    26A     -0.596482    27A     -0.556750
      28A     -0.552477    29A     -0.550725    30A     -0.548043
      31A     -0.527157    32A     -0.510534    33A     -0.509142
      34A     -0.508646    35A     -0.494785    36A     -0.477549
      37A     -0.467603    38A     -0.460217    39A     -0.451799
      40A     -0.451266    41A     -0.447782    42A     -0.445696

  @DF-RHF Final Energy:  -392.82342050191079

   => Energetics <=

    Nuclear Repulsion Energy =            585.9058517004402802
    One-Electron Energy =               -1691.4980806159442182
    Two-Electron Energy =                 712.7688084135930922
    Total Energy =                       -392.8234205019108458

  Dipole Moment: [D]
     X:    -0.0007      Y:     0.0933      Z:    -0.1128     Total:     0.1464

  Basis Set: (AUG-CC-PVQZ AUX)
    Blend: AUG-CC-PVQZ-RI
	 Reference Energy          =    -392.8234205019107890 [Eh]
	 Singles Energy            =      -0.0000000000000000 [Eh]
	 Same-Spin Energy          =      -0.4493787654175938 [Eh]
	 Opposite-Spin Energy      =      -1.7692996303769013 [Eh]
	 Correlation Energy        =      -2.2186783957944951 [Eh]
	 Total Energy              =    -395.0420988977052730 [Eh]

	 ================> DF-SCS-MP2 Energies <==================
	-----------------------------------------------------------
	 SCS Same-Spin Scale       =       0.3333333333333333 [-]
	 SCS Opposite-Spin Scale   =       1.2000000000000000 [-]
	 SCS Same-Spin Energy      =      -0.1497929218058646 [Eh]
	 SCS Opposite-Spin Energy  =      -2.1231595564522814 [Eh]
	 SCS Correlation Energy    =      -2.2729524782581461 [Eh]
	 SCS Total Energy          =    -395.0963729801689510 [Eh]
	-----------------------------------------------------------

*** Psi4 exiting successfully. Buy a developer a beer!
