                               Psi4 1.4a2.dev224

  ==> Input File <==

--------------------------------------------------------------------------
#Generated by lconvert.py for cbs job

memory 40 GB

molecule  {
0 1
  C       -2.5303830    -0.4175750     0.6813060
  H       -2.5598860    -0.9827900    -0.2501560
  H       -2.5540360    -1.1338650     1.5026580
  H       -3.4362140     0.1841440     0.7367710
  C       -1.2761570     0.4436350     0.7500250
  H       -1.2780840     1.0252180     1.6750850
  H       -1.2803390     1.1685560    -0.0671580
  C        0.0022050    -0.3807160     0.6789930
  H        0.0078290    -1.1114130     1.4938310
  H        0.0062490    -0.9605230    -0.2488200
  C        1.2683330     0.4623960     0.7493690
  H        1.2620200     1.0442500     1.6742460
  H        1.2616350     1.1870570    -0.0680350
  C        2.5349660    -0.3804250     0.6806860
  H        2.5724400    -0.9457170    -0.2504520
  H        3.4319810     0.2344150     0.7355780
  H        2.5692080    -1.0958100     1.5024560
--
0 1
  C       -0.0005230     0.0646830     5.2663320
  C        0.0005480    -0.0754490     6.7860650
  H       -0.8864880     0.3886280     7.2194350
  H        0.0098000    -1.1262290     7.0790750
  H        0.8792090     0.4042160     7.2197080
  C       -1.2399790    -0.6169690     4.6924340
  H       -1.2632780    -0.5280120     3.6056050
  H       -1.2520640    -1.6782460     4.9454470
  H       -2.1509220    -0.1646780     5.0875190
  C        1.2520820    -0.5928580     4.6928620
  H        1.2734090    -0.5045730     3.6058910
  H        1.2852120    -1.6534190     4.9469540
  H        2.1538940    -0.1222150     5.0872830
  C       -0.0147710     1.5444750     4.8917110
  H        0.8629950     2.0550620     5.2906660
  H       -0.0152950     1.6709300     3.8080590
  H       -0.9028770     2.0378090     5.2894990
units angstrom
no_reorient
symmetry c1
}

set {
scf_type DF
mp2_type DF
e_convergence 7
reference rhf
}

energy('mp2/aug-cc-pv[tq]z', bsse_type='cp')
--------------------------------------------------------------------------

    Molecular point group: c1
  Charge       = 0
  Multiplicity = 1
  Basis Set: AUG-CC-PVTZ
    Blend: AUG-CC-PVTZ
  Basis Set: (AUG-CC-PVTZ AUX)
    Blend: AUG-CC-PVTZ-JKFIT
  @DF-RHF Final Energy:  -196.40454825472736
    Total Energy =                       -196.4045482547273878
  Basis Set: (AUG-CC-PVTZ AUX)
    Blend: AUG-CC-PVTZ-RI
	 Reference Energy          =    -196.4045482547273593 [Eh]
	 Singles Energy            =      -0.0000000000000000 [Eh]
	 Same-Spin Energy          =      -0.2117454869641703 [Eh]
	 Opposite-Spin Energy      =      -0.7978323229336558 [Eh]
	 Correlation Energy        =      -1.0095778098978261 [Eh]
	 Total Energy              =    -197.4141260646251794 [Eh]
	 SCS Total Energy          =    -197.4325288712358031 [Eh]
    Molecular point group: c1
  Basis Set: AUG-CC-PVQZ
    Blend: AUG-CC-PVQZ
  Basis Set: (AUG-CC-PVQZ AUX)
    Blend: AUG-CC-PVQZ-JKFIT
  @DF-RHF Final Energy:  -196.41639504444350
    Total Energy =                       -196.4163950444435045
  Basis Set: (AUG-CC-PVQZ AUX)
  @DF-RHF Final Energy:  -196.40460446524941
    Total Energy =                       -196.4046044652494061
  @DF-RHF Final Energy:  -196.41641143093986
    Total Energy =                       -196.4164114309398883
  @DF-RHF Final Energy:  -196.40443368290940
    Total Energy =                       -196.4044336829093993
  @DF-RHF Final Energy:  -196.41622437850432
    Total Energy =                       -196.4162243785043245
  @DF-RHF Final Energy:  -196.40438101182457
    Total Energy =                       -196.4043810118245688
  @DF-RHF Final Energy:  -196.41620316797201
    Total Energy =                       -196.4162031679720144
  Multiplicity = 1
  @DF-RHF Final Energy:  -392.80560834716442
    Total Energy =                       -392.8056083471644797
	 Singles Energy            =      -0.0000000000000000 [Eh]
	 Same-Spin Energy          =      -0.4237411902585090 [Eh]
	 Opposite-Spin Energy      =      -1.5984601673311658 [Eh]
	 Correlation Energy        =      -2.0222013575896747 [Eh]
	 Total Energy              =    -394.8278097047540882 [Eh]
	 SCS Total Energy          =    -394.8650076113813157 [Eh]
    Molecular point group: c1

    Geometry (in Angstrom), charge = 0, multiplicity = 1:

       Center              X                  Y                   Z               Mass
    ------------   -----------------  -----------------  -----------------  -----------------
         C           -2.530051639195    -0.417591697677    -2.305208645884    12.000000000000
         H           -2.559554639195    -0.982806697677    -3.236670645884     1.007825032230
         H           -2.553704639195    -1.133881697677    -1.483856645884     1.007825032230
         H           -3.435882639195     0.184127302323    -2.249743645884     1.007825032230
         C           -1.275825639195     0.443618302323    -2.236489645884    12.000000000000
         H           -1.277752639195     1.025201302323    -1.311429645884     1.007825032230
         H           -1.280007639195     1.168539302323    -3.053672645884     1.007825032230
         C            0.002536360805    -0.380732697677    -2.307521645884    12.000000000000
         H            0.008160360805    -1.111429697677    -1.492683645884     1.007825032230
         H            0.006580360805    -0.960539697677    -3.235334645884     1.007825032230
         C            1.268664360805     0.462379302323    -2.237145645884    12.000000000000
         H            1.262351360805     1.044233302323    -1.312268645884     1.007825032230
         H            1.261966360805     1.187040302323    -3.054549645884     1.007825032230
         C            2.535297360805    -0.380441697677    -2.305828645884    12.000000000000
         H            2.572771360805    -0.945733697677    -3.236966645884     1.007825032230
         H            3.432312360805     0.234398302323    -2.250936645884     1.007825032230
         H            2.569539360805    -1.095826697677    -1.484058645884     1.007825032230
         C           -0.000191639195     0.064666302323     2.279817354116    12.000000000000
         C            0.000879360805    -0.075465697677     3.799550354116    12.000000000000
         H           -0.886156639195     0.388611302323     4.232920354116     1.007825032230
         H            0.010131360805    -1.126245697677     4.092560354116     1.007825032230
         H            0.879540360805     0.404199302323     4.233193354116     1.007825032230
         C           -1.239647639195    -0.616985697677     1.705919354116    12.000000000000
         H           -1.262946639195    -0.528028697677     0.619090354116     1.007825032230
         H           -1.251732639195    -1.678262697677     1.958932354116     1.007825032230
         H           -2.150590639195    -0.164694697677     2.101004354116     1.007825032230
         C            1.252413360805    -0.592874697677     1.706347354116    12.000000000000
         H            1.273740360805    -0.504589697677     0.619376354116     1.007825032230
         H            1.285543360805    -1.653435697677     1.960439354116     1.007825032230
         H            2.154225360805    -0.122231697677     2.100768354116     1.007825032230
         C           -0.014439639195     1.544458302323     1.905196354116    12.000000000000
         H            0.863326360805     2.055045302323     2.304151354116     1.007825032230
         H           -0.014963639195     1.670913302323     0.821544354116     1.007825032230
         H           -0.902545639195     2.037792302323     2.302984354116     1.007825032230

  Charge       = 0
  Multiplicity = 1
  Basis Set: AUG-CC-PVQZ
    Blend: AUG-CC-PVQZ
  Basis Set: (AUG-CC-PVQZ AUX)
    Blend: AUG-CC-PVQZ-JKFIT

    Orbital Energies [Eh]
    ---------------------

    Doubly Occupied:

       1A    -11.225698     2A    -11.212228     3A    -11.212150
       4A    -11.209923     5A    -11.206312     6A    -11.206311
       7A    -11.204899     8A    -11.204437     9A    -11.204253
      10A    -11.204232    11A     -1.106543    12A     -1.082054
      13A     -1.016065    14A     -0.929079    15A     -0.928878
      16A     -0.928836    17A     -0.919436    18A     -0.820583
      19A     -0.786196    20A     -0.730524    21A     -0.651064
      22A     -0.613086    23A     -0.612260    24A     -0.610276
      25A     -0.599288    26A     -0.594817    27A     -0.555420
      28A     -0.553049    29A     -0.552556    30A     -0.547985
      31A     -0.526556    32A     -0.510252    33A     -0.509676
      34A     -0.509607    35A     -0.495003    36A     -0.477008
      37A     -0.465689    38A     -0.460232    39A     -0.452558
      40A     -0.452336    41A     -0.449291    42A     -0.447547

  @DF-RHF Final Energy:  -392.82921190047762

   => Energetics <=

    Nuclear Repulsion Energy =            573.2474026898659076
    One-Electron Energy =               -1666.1848458105123427
    Two-Electron Energy =                 700.1082312201689319
    Total Energy =                       -392.8292119004776168

  Dipole Moment: [D]
     X:    -0.0006      Y:     0.0845      Z:    -0.0523     Total:     0.0994

  Basis Set: (AUG-CC-PVQZ AUX)
    Blend: AUG-CC-PVQZ-RI
	 Reference Energy          =    -392.8292119004776168 [Eh]
	 Singles Energy            =      -0.0000000000000000 [Eh]
	 Same-Spin Energy          =      -0.4470289698720205 [Eh]
	 Opposite-Spin Energy      =      -1.7663658005186693 [Eh]
	 Correlation Energy        =      -2.2133947703906900 [Eh]
	 Total Energy              =    -395.0426066708682811 [Eh]

	 ================> DF-SCS-MP2 Energies <==================
	-----------------------------------------------------------
	 SCS Same-Spin Scale       =       0.3333333333333333 [-]
	 SCS Opposite-Spin Scale   =       1.2000000000000000 [-]
	 SCS Same-Spin Energy      =      -0.1490096566240068 [Eh]
	 SCS Opposite-Spin Energy  =      -2.1196389606224031 [Eh]
	 SCS Correlation Energy    =      -2.2686486172464098 [Eh]
	 SCS Total Energy          =    -395.0978605177240297 [Eh]
	-----------------------------------------------------------

*** Psi4 exiting successfully. Buy a developer a beer!
