                               Psi4 1.4a2.dev224

  ==> Input File <==

--------------------------------------------------------------------------
#Generated by lconvert.py for cbs job

memory 20 GB

molecule  {
0 1
  C      -2.530380   -0.417570    0.681310
  H      -2.559890   -0.982790   -0.250160
  H      -2.554040   -1.133860    1.502660
  H      -3.436210    0.184140    0.736770
  C      -1.276160    0.443640    0.750030
  H      -1.278080    1.025220    1.675080
  H      -1.280340    1.168560   -0.067160
  C       0.002200   -0.380720    0.678990
  H       0.007830   -1.111410    1.493830
  H       0.006250   -0.960520   -0.248820
  C       1.268330    0.462400    0.749370
  H       1.262020    1.044250    1.674250
  H       1.261640    1.187060   -0.068030
  C       2.534970   -0.380430    0.680690
  H       2.572440   -0.945720   -0.250450
  H       3.431980    0.234420    0.735580
  H       2.569210   -1.095810    1.502460
--
0 1
  C      -0.000710    0.126250    7.432550
  C       0.000360   -0.013880    8.952280
  H      -0.886670    0.450200    9.385650
  H       0.009610   -1.064660    9.245290
  H       0.879020    0.465790    9.385930
  C      -1.240170   -0.555400    6.858650
  H      -1.263470   -0.466440    5.771820
  H      -1.252250   -1.616680    7.111660
  H      -2.151110   -0.103110    7.253740
  C       1.251890   -0.531290    6.859080
  H       1.273220   -0.443000    5.772110
  H       1.285030   -1.591850    7.113170
  H       2.153710   -0.060650    7.253500
  C      -0.014960    1.606040    7.057930
  H       0.862810    2.116630    7.456880
  H      -0.015480    1.732500    5.974280
  H      -0.903070    2.099380    7.455720
units angstrom
no_reorient
symmetry c1
}

set {
scf_type DF
mp2_type DF
e_convergence 7
reference rhf
}

energy('mp2/aug-cc-pv[tq]z', bsse_type='cp')
--------------------------------------------------------------------------

    Molecular point group: c1
  Charge       = 0
  Multiplicity = 1
  Basis Set: AUG-CC-PVTZ
    Blend: AUG-CC-PVTZ
  Basis Set: (AUG-CC-PVTZ AUX)
    Blend: AUG-CC-PVTZ-JKFIT
  @DF-RHF Final Energy:  -196.40454813359190
    Total Energy =                       -196.4045481335919021
  Basis Set: (AUG-CC-PVTZ AUX)
    Blend: AUG-CC-PVTZ-RI
	 Reference Energy          =    -196.4045481335919021 [Eh]
	 Singles Energy            =      -0.0000000000000000 [Eh]
	 Same-Spin Energy          =      -0.2117455320466821 [Eh]
	 Opposite-Spin Energy      =      -0.7978324047224656 [Eh]
	 Correlation Energy        =      -1.0095779367691478 [Eh]
	 Total Energy              =    -197.4141260703610499 [Eh]
	 SCS Total Energy          =    -197.4325288632744275 [Eh]
    Molecular point group: c1
  Basis Set: AUG-CC-PVQZ
    Blend: AUG-CC-PVQZ
  Basis Set: (AUG-CC-PVQZ AUX)
    Blend: AUG-CC-PVQZ-JKFIT
  @DF-RHF Final Energy:  -196.41639491924752
    Total Energy =                       -196.4163949192475229
  Basis Set: (AUG-CC-PVQZ AUX)
  @DF-RHF Final Energy:  -196.40455884639877
    Total Energy =                       -196.4045588463987428
  @DF-RHF Final Energy:  -196.41639849927327
    Total Energy =                       -196.4163984992732708
  @DF-RHF Final Energy:  -196.40438941933954
    Total Energy =                       -196.4043894193395374
  @DF-RHF Final Energy:  -196.41620826872028
    Total Energy =                       -196.4162082687202826
  @DF-RHF Final Energy:  -196.40438115160717
    Total Energy =                       -196.4043811516071685
  @DF-RHF Final Energy:  -196.41620331146288
    Total Energy =                       -196.4162033114628798
  Multiplicity = 1
  @DF-RHF Final Energy:  -392.80893293829649
    Total Energy =                       -392.8089329382964934
	 Singles Energy            =      -0.0000000000000000 [Eh]
	 Same-Spin Energy          =      -0.4199789595983955 [Eh]
	 Opposite-Spin Energy      =      -1.5917922847435646 [Eh]
	 Correlation Energy        =      -2.0117712443419600 [Eh]
	 Total Energy              =    -394.8207041826384511 [Eh]
	 SCS Total Energy          =    -394.8590766665215597 [Eh]
    Molecular point group: c1

    Geometry (in Angstrom), charge = 0, multiplicity = 1:

       Center              X                  Y                   Z               Mass
    ------------   -----------------  -----------------  -----------------  -----------------
         C           -2.529953849536    -0.448371219948    -3.388314221468    12.000000000000
         H           -2.559463849536    -1.013591219948    -4.319784221468     1.007825032230
         H           -2.553613849536    -1.164661219948    -2.566964221468     1.007825032230
         H           -3.435783849536     0.153338780052    -3.332854221468     1.007825032230
         C           -1.275733849536     0.412838780052    -3.319594221468    12.000000000000
         H           -1.277653849536     0.994418780052    -2.394544221468     1.007825032230
         H           -1.279913849536     1.137758780052    -4.136784221468     1.007825032230
         C            0.002626150464    -0.411521219948    -3.390634221468    12.000000000000
         H            0.008256150464    -1.142211219948    -2.575794221468     1.007825032230
         H            0.006676150464    -0.991321219948    -4.318444221468     1.007825032230
         C            1.268756150464     0.431598780052    -3.320254221468    12.000000000000
         H            1.262446150464     1.013448780052    -2.395374221468     1.007825032230
         H            1.262066150464     1.156258780052    -4.137654221468     1.007825032230
         C            2.535396150464    -0.411231219948    -3.388934221468    12.000000000000
         H            2.572866150464    -0.976521219948    -4.320074221468     1.007825032230
         H            3.432406150464     0.203618780052    -3.334044221468     1.007825032230
         H            2.569636150464    -1.126611219948    -2.567164221468     1.007825032230
         C           -0.000283849536     0.095448780052     3.362925778532    12.000000000000
         C            0.000786150464    -0.044681219948     4.882655778532    12.000000000000
         H           -0.886243849536     0.419398780052     5.316025778532     1.007825032230
         H            0.010036150464    -1.095461219948     5.175665778532     1.007825032230
         H            0.879446150464     0.434988780052     5.316305778532     1.007825032230
         C           -1.239743849536    -0.586201219948     2.789025778532    12.000000000000
         H           -1.263043849536    -0.497241219948     1.702195778532     1.007825032230
         H           -1.251823849536    -1.647481219948     3.042035778532     1.007825032230
         H           -2.150683849536    -0.133911219948     3.184115778532     1.007825032230
         C            1.252316150464    -0.562091219948     2.789455778532    12.000000000000
         H            1.273646150464    -0.473801219948     1.702485778532     1.007825032230
         H            1.285456150464    -1.622651219948     3.043545778532     1.007825032230
         H            2.154136150464    -0.091451219948     3.183875778532     1.007825032230
         C           -0.014533849536     1.575238780052     2.988305778532    12.000000000000
         H            0.863236150464     2.085828780052     3.387255778532     1.007825032230
         H           -0.015053849536     1.701698780052     1.904655778532     1.007825032230
         H           -0.902643849536     2.068578780052     3.386095778532     1.007825032230

  Charge       = 0
  Multiplicity = 1
  Basis Set: AUG-CC-PVQZ
    Blend: AUG-CC-PVQZ
  Basis Set: (AUG-CC-PVQZ AUX)
    Blend: AUG-CC-PVQZ-JKFIT

    Orbital Energies [Eh]
    ---------------------

    Doubly Occupied:

       1A    -11.226013     2A    -11.211853     3A    -11.211778
       4A    -11.209468     5A    -11.206203     6A    -11.206202
       7A    -11.204997     8A    -11.204992     9A    -11.204966
      10A    -11.204829    11A     -1.106678    12A     -1.081222
      13A     -1.015442    14A     -0.929056    15A     -0.928982
      16A     -0.928961    17A     -0.918966    18A     -0.820024
      19A     -0.785351    20A     -0.730261    21A     -0.647547
      22A     -0.612403    23A     -0.612325    24A     -0.612283
      25A     -0.598849    26A     -0.593194    27A     -0.554184
      28A     -0.553439    29A     -0.553406    30A     -0.547763
      31A     -0.525877    32A     -0.509871    33A     -0.509819
      34A     -0.509795    35A     -0.495005    36A     -0.476283
      37A     -0.462408    38A     -0.459506    39A     -0.453038
      40A     -0.452909    41A     -0.452901    42A     -0.447096

  @DF-RHF Final Energy:  -392.83259129961198

   => Energetics <=

    Nuclear Repulsion Energy =            518.1886593603560414
    One-Electron Energy =               -1556.0902079206775852
    Two-Electron Energy =                 645.0689572607095670
    Total Energy =                       -392.8325912996119769

  Dipole Moment: [D]
     X:    -0.0006      Y:     0.0817      Z:     0.0070     Total:     0.0820

  Basis Set: (AUG-CC-PVQZ AUX)
    Blend: AUG-CC-PVQZ-RI
	 Reference Energy          =    -392.8325912996119769 [Eh]
	 Singles Energy            =      -0.0000000000000000 [Eh]
	 Same-Spin Energy          =      -0.4434713721439936 [Eh]
	 Opposite-Spin Energy      =      -1.7616874032367311 [Eh]
	 Correlation Energy        =      -2.2051587753807249 [Eh]
	 Total Energy              =    -395.0377500749926867 [Eh]

	 ================> DF-SCS-MP2 Energies <==================
	-----------------------------------------------------------
	 SCS Same-Spin Scale       =       0.3333333333333333 [-]
	 SCS Opposite-Spin Scale   =       1.2000000000000000 [-]
	 SCS Same-Spin Energy      =      -0.1478237907146645 [Eh]
	 SCS Opposite-Spin Energy  =      -2.1140248838840772 [Eh]
	 SCS Correlation Energy    =      -2.2618486745987418 [Eh]
	 SCS Total Energy          =    -395.0944399742107294 [Eh]
	-----------------------------------------------------------

*** Psi4 exiting successfully. Buy a developer a beer!
