                               Psi4 1.4a2.dev224

  ==> Input File <==

--------------------------------------------------------------------------
#Generated by lconvert.py for cbs job

memory 40 GB

molecule  {
0 1
  C       -2.5303830    -0.4175750     0.6813060
  H       -2.5598860    -0.9827900    -0.2501560
  H       -2.5540360    -1.1338650     1.5026580
  H       -3.4362140     0.1841440     0.7367710
  C       -1.2761570     0.4436350     0.7500250
  H       -1.2780840     1.0252180     1.6750850
  H       -1.2803390     1.1685560    -0.0671580
  C        0.0022050    -0.3807160     0.6789930
  H        0.0078290    -1.1114130     1.4938310
  H        0.0062490    -0.9605230    -0.2488200
  C        1.2683330     0.4623960     0.7493690
  H        1.2620200     1.0442500     1.6742460
  H        1.2616350     1.1870570    -0.0680350
  C        2.5349660    -0.3804250     0.6806860
  H        2.5724400    -0.9457170    -0.2504520
  H        3.4319810     0.2344150     0.7355780
  H        2.5692080    -1.0958100     1.5024560
--
0 1
  C       -0.0005090     0.0599790     5.1008430
  C        0.0005630    -0.0801520     6.6205760
  H       -0.8864730     0.3839240     7.0539450
  H        0.0098140    -1.1309320     6.9135860
  H        0.8792230     0.3995120     7.0542190
  C       -1.2399640    -0.6216730     4.5269450
  H       -1.2632640    -0.5327160     3.4401150
  H       -1.2520500    -1.6829490     4.7799580
  H       -2.1509080    -0.1693820     4.9220300
  C        1.2520960    -0.5975620     4.5273730
  H        1.2734230    -0.5092760     3.4404020
  H        1.2852270    -1.6581230     4.7814650
  H        2.1539080    -0.1269190     4.9217940
  C       -0.0147570     1.5397710     4.7262220
  H        0.8630090     2.0503580     5.1251770
  H       -0.0152810     1.6662260     3.6425700
  H       -0.9028630     2.0331050     5.1240100
units angstrom
no_reorient
symmetry c1
}

set {
scf_type DF
mp2_type DF
e_convergence 7
reference rhf
}

energy('mp2/aug-cc-pv[tq]z', bsse_type='cp')
--------------------------------------------------------------------------

    Molecular point group: c1
  Charge       = 0
  Multiplicity = 1
  Basis Set: AUG-CC-PVTZ
    Blend: AUG-CC-PVTZ
  Basis Set: (AUG-CC-PVTZ AUX)
    Blend: AUG-CC-PVTZ-JKFIT
  @DF-RHF Final Energy:  -196.40454826171089
    Total Energy =                       -196.4045482617108860
  Basis Set: (AUG-CC-PVTZ AUX)
    Blend: AUG-CC-PVTZ-RI
	 Reference Energy          =    -196.4045482617108860 [Eh]
	 Singles Energy            =      -0.0000000000000000 [Eh]
	 Same-Spin Energy          =      -0.2117454939281234 [Eh]
	 Opposite-Spin Energy      =      -0.7978323169634416 [Eh]
	 Correlation Energy        =      -1.0095778108915650 [Eh]
	 Total Energy              =    -197.4141260726024427 [Eh]
	 SCS Total Energy          =    -197.4325288733763841 [Eh]
    Molecular point group: c1
  Basis Set: AUG-CC-PVQZ
    Blend: AUG-CC-PVQZ
  Basis Set: (AUG-CC-PVQZ AUX)
    Blend: AUG-CC-PVQZ-JKFIT
  @DF-RHF Final Energy:  -196.41639505360362
    Total Energy =                       -196.4163950536035941
  Basis Set: (AUG-CC-PVQZ AUX)
  @DF-RHF Final Energy:  -196.40461561644130
    Total Energy =                       -196.4046156164413333
  @DF-RHF Final Energy:  -196.41641308483989
    Total Energy =                       -196.4164130848399168
  @DF-RHF Final Energy:  -196.40444526993463
    Total Energy =                       -196.4044452699346266
  @DF-RHF Final Energy:  -196.41622777137167
    Total Energy =                       -196.4162277713716662
  @DF-RHF Final Energy:  -196.40438101186601
    Total Energy =                       -196.4043810118660076
  @DF-RHF Final Energy:  -196.41620316543413
    Total Energy =                       -196.4162031654341263
  Multiplicity = 1
  @DF-RHF Final Energy:  -392.80347178270807
    Total Energy =                       -392.8034717827081295
	 Singles Energy            =      -0.0000000000000000 [Eh]
	 Same-Spin Energy          =      -0.4247693048579551 [Eh]
	 Opposite-Spin Energy      =      -1.6000385099369612 [Eh]
	 Correlation Energy        =      -2.0248078147949164 [Eh]
	 Total Energy              =    -394.8282795975030126 [Eh]
	 SCS Total Energy          =    -394.8651077629183987 [Eh]
    Molecular point group: c1

    Geometry (in Angstrom), charge = 0, multiplicity = 1:

       Center              X                  Y                   Z               Mass
    ------------   -----------------  -----------------  -----------------  -----------------
         C           -2.530058819624    -0.415239801871    -2.222464131905    12.000000000000
         H           -2.559561819624    -0.980454801871    -3.153926131905     1.007825032230
         H           -2.553711819624    -1.131529801871    -1.401112131905     1.007825032230
         H           -3.435889819624     0.186479198129    -2.166999131905     1.007825032230
         C           -1.275832819624     0.445970198129    -2.153745131905    12.000000000000
         H           -1.277759819624     1.027553198129    -1.228685131905     1.007825032230
         H           -1.280014819624     1.170891198129    -2.970928131905     1.007825032230
         C            0.002529180376    -0.378380801871    -2.224777131905    12.000000000000
         H            0.008153180376    -1.109077801871    -1.409939131905     1.007825032230
         H            0.006573180376    -0.958187801871    -3.152590131905     1.007825032230
         C            1.268657180376     0.464731198129    -2.154401131905    12.000000000000
         H            1.262344180376     1.046585198129    -1.229524131905     1.007825032230
         H            1.261959180376     1.189392198129    -2.971805131905     1.007825032230
         C            2.535290180376    -0.378089801871    -2.223084131905    12.000000000000
         H            2.572764180376    -0.943381801871    -3.154222131905     1.007825032230
         H            3.432305180376     0.236750198129    -2.168192131905     1.007825032230
         H            2.569532180376    -1.093474801871    -1.401314131905     1.007825032230
         C           -0.000184819624     0.062314198129     2.197072868095    12.000000000000
         C            0.000887180376    -0.077816801871     3.716805868095    12.000000000000
         H           -0.886148819624     0.386259198129     4.150174868095     1.007825032230
         H            0.010138180376    -1.128596801871     4.009815868095     1.007825032230
         H            0.879547180376     0.401847198129     4.150448868095     1.007825032230
         C           -1.239639819624    -0.619337801871     1.623174868095    12.000000000000
         H           -1.262939819624    -0.530380801871     0.536344868095     1.007825032230
         H           -1.251725819624    -1.680613801871     1.876187868095     1.007825032230
         H           -2.150583819624    -0.167046801871     2.018259868095     1.007825032230
         C            1.252420180376    -0.595226801871     1.623602868095    12.000000000000
         H            1.273747180376    -0.506940801871     0.536631868095     1.007825032230
         H            1.285551180376    -1.655787801871     1.877694868095     1.007825032230
         H            2.154232180376    -0.124583801871     2.018023868095     1.007825032230
         C           -0.014432819624     1.542106198129     1.822451868095    12.000000000000
         H            0.863333180376     2.052693198129     2.221406868095     1.007825032230
         H           -0.014956819624     1.668561198129     0.738799868095     1.007825032230
         H           -0.902538819624     2.035440198129     2.220239868095     1.007825032230

  Charge       = 0
  Multiplicity = 1
  Basis Set: AUG-CC-PVQZ
    Blend: AUG-CC-PVQZ
  Basis Set: (AUG-CC-PVQZ AUX)
    Blend: AUG-CC-PVQZ-JKFIT

    Orbital Energies [Eh]
    ---------------------

    Doubly Occupied:

       1A    -11.225432     2A    -11.212218     3A    -11.212138
       4A    -11.209943     5A    -11.206312     6A    -11.206311
       7A    -11.204701     8A    -11.204173     9A    -11.203717
      10A    -11.203696    11A     -1.106395    12A     -1.082300
      13A     -1.016298    14A     -0.929017    15A     -0.928710
      16A     -0.928642    17A     -0.919577    18A     -0.820753
      19A     -0.786458    20A     -0.730608    21A     -0.652754
      22A     -0.613601    23A     -0.612126    24A     -0.608847
      25A     -0.599381    26A     -0.595522    27A     -0.555944
      28A     -0.552793    29A     -0.551852    30A     -0.548018
      31A     -0.526799    32A     -0.510363    33A     -0.509451
      34A     -0.509274    35A     -0.494908    36A     -0.477230
      37A     -0.466582    38A     -0.460265    39A     -0.452258
      40A     -0.451913    41A     -0.447767    42A     -0.447643

  @DF-RHF Final Energy:  -392.82706076130103

   => Energetics <=

    Nuclear Repulsion Energy =            579.2393108551821115
    One-Electron Energy =               -1678.1673655962840712
    Two-Electron Energy =                 706.1009939798009327
    Total Energy =                       -392.8270607613010270

  Dipole Moment: [D]
     X:    -0.0006      Y:     0.0879      Z:    -0.0772     Total:     0.1170

  Basis Set: (AUG-CC-PVQZ AUX)
    Blend: AUG-CC-PVQZ-RI
	 Reference Energy          =    -392.8270607613010270 [Eh]
	 Singles Energy            =      -0.0000000000000000 [Eh]
	 Same-Spin Energy          =      -0.4480293065680468 [Eh]
	 Opposite-Spin Energy      =      -1.7676166818390464 [Eh]
	 Correlation Energy        =      -2.2156459884070934 [Eh]
	 Total Energy              =    -395.0427067497081453 [Eh]

	 ================> DF-SCS-MP2 Energies <==================
	-----------------------------------------------------------
	 SCS Same-Spin Scale       =       0.3333333333333333 [-]
	 SCS Opposite-Spin Scale   =       1.2000000000000000 [-]
	 SCS Same-Spin Energy      =      -0.1493431021893489 [Eh]
	 SCS Opposite-Spin Energy  =      -2.1211400182068556 [Eh]
	 SCS Correlation Energy    =      -2.2704831203962046 [Eh]
	 SCS Total Energy          =    -395.0975438816972201 [Eh]
	-----------------------------------------------------------

*** Psi4 exiting successfully. Buy a developer a beer!
