                               Psi4 1.4a2.dev224

  ==> Input File <==

--------------------------------------------------------------------------
#Generated by lconvert.py for cbs job

memory 40 GB

molecule  {
0 1
  C       -2.5303830    -0.4175750     0.6813060
  H       -2.5598860    -0.9827900    -0.2501560
  H       -2.5540360    -1.1338650     1.5026580
  H       -3.4362140     0.1841440     0.7367710
  C       -1.2761570     0.4436350     0.7500250
  H       -1.2780840     1.0252180     1.6750850
  H       -1.2803390     1.1685560    -0.0671580
  C        0.0022050    -0.3807160     0.6789930
  H        0.0078290    -1.1114130     1.4938310
  H        0.0062490    -0.9605230    -0.2488200
  C        1.2683330     0.4623960     0.7493690
  H        1.2620200     1.0442500     1.6742460
  H        1.2616350     1.1870570    -0.0680350
  C        2.5349660    -0.3804250     0.6806860
  H        2.5724400    -0.9457170    -0.2504520
  H        3.4319810     0.2344150     0.7355780
  H        2.5692080    -1.0958100     1.5024560
--
0 1
  C       -0.0004620     0.0447590     4.5653630
  C        0.0006090    -0.0953720     6.0850960
  H       -0.8864270     0.3687040     6.5184660
  H        0.0098610    -1.1461520     6.3781060
  H        0.8792700     0.3842930     6.5187390
  C       -1.2399180    -0.6368930     3.9914650
  H       -1.2632170    -0.5479360     2.9046360
  H       -1.2520030    -1.6981690     4.2444780
  H       -2.1508610    -0.1846020     4.3865500
  C        1.2521430    -0.6127820     3.9918930
  H        1.2734690    -0.5244960     2.9049220
  H        1.2852730    -1.6733430     4.2459850
  H        2.1539550    -0.1421380     4.3863140
  C       -0.0147100     1.5245520     4.1907420
  H        0.8630560     2.0351390     4.5896970
  H       -0.0152350     1.6510070     3.1070900
  H       -0.9028160     2.0178850     4.5885300
units angstrom
no_reorient
symmetry c1
}

set {
scf_type DF
mp2_type DF
e_convergence 7
reference rhf
}

energy('mp2/aug-cc-pv[tq]z', bsse_type='cp')
--------------------------------------------------------------------------

    Molecular point group: c1
  Charge       = 0
  Multiplicity = 1
  Basis Set: AUG-CC-PVTZ
    Blend: AUG-CC-PVTZ
  Basis Set: (AUG-CC-PVTZ AUX)
    Blend: AUG-CC-PVTZ-JKFIT
  @DF-RHF Final Energy:  -196.40454826834463
    Total Energy =                       -196.4045482683446266
  Basis Set: (AUG-CC-PVTZ AUX)
    Blend: AUG-CC-PVTZ-RI
	 Reference Energy          =    -196.4045482683446266 [Eh]
	 Singles Energy            =      -0.0000000000000000 [Eh]
	 Same-Spin Energy          =      -0.2117454802742313 [Eh]
	 Opposite-Spin Energy      =      -0.7978323138718080 [Eh]
	 Correlation Energy        =      -1.0095777941460393 [Eh]
	 Total Energy              =    -197.4141260624906522 [Eh]
	 SCS Total Energy          =    -197.4325288717488718 [Eh]
    Molecular point group: c1
  Basis Set: AUG-CC-PVQZ
    Blend: AUG-CC-PVQZ
  Basis Set: (AUG-CC-PVQZ AUX)
    Blend: AUG-CC-PVQZ-JKFIT
  @DF-RHF Final Energy:  -196.41639505940645
    Total Energy =                       -196.4163950594064545
  Basis Set: (AUG-CC-PVQZ AUX)
  @DF-RHF Final Energy:  -196.40464871721008
    Total Energy =                       -196.4046487172100797
  @DF-RHF Final Energy:  -196.41642071780578
    Total Energy =                       -196.4164207178058064
  @DF-RHF Final Energy:  -196.40449232447671
    Total Energy =                       -196.4044923244767062
  @DF-RHF Final Energy:  -196.41623963325628
    Total Energy =                       -196.4162396332562821
  @DF-RHF Final Energy:  -196.40438101222082
    Total Energy =                       -196.4043810122208242
  @DF-RHF Final Energy:  -196.41620316917107
    Total Energy =                       -196.4162031691710695
  Multiplicity = 1
  @DF-RHF Final Energy:  -392.78368308313168
    Total Energy =                       -392.7836830831316774
	 Singles Energy            =      -0.0000000000000000 [Eh]
	 Same-Spin Energy          =      -0.4304108318618171 [Eh]
	 Opposite-Spin Energy      =      -1.6079371878676123 [Eh]
	 Correlation Energy        =      -2.0383480197294293 [Eh]
	 Total Energy              =    -394.8220311028611036 [Eh]
	 SCS Total Energy          =    -394.8566779858600739 [Eh]
    Molecular point group: c1

    Geometry (in Angstrom), charge = 0, multiplicity = 1:

       Center              X                  Y                   Z               Mass
    ------------   -----------------  -----------------  -----------------  -----------------
         C           -2.530082125215    -0.407629913054    -1.954724145884    12.000000000000
         H           -2.559585125215    -0.972844913054    -2.886186145884     1.007825032230
         H           -2.553735125215    -1.123919913054    -1.133372145884     1.007825032230
         H           -3.435913125215     0.194089086946    -1.899259145884     1.007825032230
         C           -1.275856125215     0.453580086946    -1.886005145884    12.000000000000
         H           -1.277783125215     1.035163086946    -0.960945145884     1.007825032230
         H           -1.280038125215     1.178501086946    -2.703188145884     1.007825032230
         C            0.002505874785    -0.370770913054    -1.957037145884    12.000000000000
         H            0.008129874785    -1.101467913054    -1.142199145884     1.007825032230
         H            0.006549874785    -0.950577913054    -2.884850145884     1.007825032230
         C            1.268633874785     0.472341086946    -1.886661145884    12.000000000000
         H            1.262320874785     1.054195086946    -0.961784145884     1.007825032230
         H            1.261935874785     1.197002086946    -2.704065145884     1.007825032230
         C            2.535266874785    -0.370479913054    -1.955344145884    12.000000000000
         H            2.572740874785    -0.935771913054    -2.886482145884     1.007825032230
         H            3.432281874785     0.244360086946    -1.900452145884     1.007825032230
         H            2.569508874785    -1.085864913054    -1.133574145884     1.007825032230
         C           -0.000161125215     0.054704086946     1.929332854116    12.000000000000
         C            0.000909874785    -0.085426913054     3.449065854116    12.000000000000
         H           -0.886126125215     0.378649086946     3.882435854116     1.007825032230
         H            0.010161874785    -1.136206913054     3.742075854116     1.007825032230
         H            0.879570874785     0.394238086946     3.882708854116     1.007825032230
         C           -1.239617125215    -0.626947913054     1.355434854116    12.000000000000
         H           -1.262916125215    -0.537990913054     0.268605854116     1.007825032230
         H           -1.251702125215    -1.688223913054     1.608447854116     1.007825032230
         H           -2.150560125215    -0.174656913054     1.750519854116     1.007825032230
         C            1.252443874785    -0.602836913054     1.355862854116    12.000000000000
         H            1.273769874785    -0.514550913054     0.268891854116     1.007825032230
         H            1.285573874785    -1.663397913054     1.609954854116     1.007825032230
         H            2.154255874785    -0.132192913054     1.750283854116     1.007825032230
         C           -0.014409125215     1.534497086946     1.554711854116    12.000000000000
         H            0.863356874785     2.045084086946     1.953666854116     1.007825032230
         H           -0.014934125215     1.660952086946     0.471059854116     1.007825032230
         H           -0.902515125215     2.027830086946     1.952499854116     1.007825032230

  Charge       = 0
  Multiplicity = 1
  Basis Set: AUG-CC-PVQZ
    Blend: AUG-CC-PVQZ
  Basis Set: (AUG-CC-PVQZ AUX)
    Blend: AUG-CC-PVQZ-JKFIT

    Orbital Energies [Eh]
    ---------------------

    Doubly Occupied:

       1A    -11.223666     2A    -11.212018     3A    -11.211930
       4A    -11.209900     5A    -11.206276     6A    -11.206273
       7A    -11.203294     8A    -11.202512     9A    -11.199727
      10A    -11.199708    11A     -1.106209    12A     -1.083859
      13A     -1.018493    14A     -0.928963    15A     -0.927724
      16A     -0.927370    17A     -0.920615    18A     -0.822061
      19A     -0.788381    20A     -0.732076    21A     -0.663303
      22A     -0.620096    23A     -0.611538    24A     -0.600749
      25A     -0.598801    26A     -0.597996    27A     -0.559875
      28A     -0.551949    29A     -0.547892    30A     -0.546638
      31A     -0.528295    32A     -0.511108    33A     -0.508138
      34A     -0.505771    35A     -0.494534    36A     -0.478526
      37A     -0.469722    38A     -0.459455    39A     -0.450288
      40A     -0.448909    41A     -0.448128    42A     -0.439311

  @DF-RHF Final Energy:  -392.80723332513486

   => Energetics <=

    Nuclear Repulsion Energy =            601.2616176189560520
    One-Electron Energy =               -1722.1935535098323271
    Two-Electron Energy =                 728.1247025657413587
    Total Energy =                       -392.8072333251349164

  Dipole Moment: [D]
     X:    -0.0008      Y:     0.1148      Z:    -0.2280     Total:     0.2552

  Basis Set: (AUG-CC-PVQZ AUX)
    Blend: AUG-CC-PVQZ-RI
	 Reference Energy          =    -392.8072333251348596 [Eh]
	 Singles Energy            =      -0.0000000000000000 [Eh]
	 Same-Spin Energy          =      -0.4535957435047035 [Eh]
	 Opposite-Spin Energy      =      -1.7745346973277889 [Eh]
	 Correlation Energy        =      -2.2281304408324925 [Eh]
	 Total Energy              =    -395.0353637659673609 [Eh]

	 ================> DF-SCS-MP2 Energies <==================
	-----------------------------------------------------------
	 SCS Same-Spin Scale       =       0.3333333333333333 [-]
	 SCS Opposite-Spin Scale   =       1.2000000000000000 [-]
	 SCS Same-Spin Energy      =      -0.1511985811682345 [Eh]
	 SCS Opposite-Spin Energy  =      -2.1294416367933464 [Eh]
	 SCS Correlation Energy    =      -2.2806402179615808 [Eh]
	 SCS Total Energy          =    -395.0878735430964639 [Eh]
	-----------------------------------------------------------

*** Psi4 exiting successfully. Buy a developer a beer!
