                               Psi4 1.4a2.dev224

  ==> Input File <==

--------------------------------------------------------------------------
#Generated by lconvert.py for cbs job

memory 40 GB

molecule  {
0 1
  C       -2.5303830    -0.4175750     0.6813060
  H       -2.5598860    -0.9827900    -0.2501560
  H       -2.5540360    -1.1338650     1.5026580
  H       -3.4362140     0.1841440     0.7367710
  C       -1.2761570     0.4436350     0.7500250
  H       -1.2780840     1.0252180     1.6750850
  H       -1.2803390     1.1685560    -0.0671580
  C        0.0022050    -0.3807160     0.6789930
  H        0.0078290    -1.1114130     1.4938310
  H        0.0062490    -0.9605230    -0.2488200
  C        1.2683330     0.4623960     0.7493690
  H        1.2620200     1.0442500     1.6742460
  H        1.2616350     1.1870570    -0.0680350
  C        2.5349660    -0.3804250     0.6806860
  H        2.5724400    -0.9457170    -0.2504520
  H        3.4319810     0.2344150     0.7355780
  H        2.5692080    -1.0958100     1.5024560
--
0 1
  C       -0.0004300     0.0342350     4.1950870
  C        0.0006420    -0.1058960     5.7148200
  H       -0.8863950     0.3581800     6.1481890
  H        0.0098930    -1.1566760     6.0078300
  H        0.8793020     0.3737680     6.1484630
  C       -1.2398860    -0.6474170     3.6211880
  H       -1.2631850    -0.5584600     2.5343590
  H       -1.2519710    -1.7086940     3.8742020
  H       -2.1508290    -0.1951260     4.0162740
  C        1.2521750    -0.6233060     3.6216170
  H        1.2735020    -0.5350200     2.5346460
  H        1.2853050    -1.6838670     3.8757090
  H        2.1539870    -0.1526630     4.0160380
  C       -0.0146780     1.5140270     3.8204660
  H        0.8630880     2.0246140     4.2194210
  H       -0.0152020     1.6404820     2.7368140
  H       -0.9027840     2.0073610     4.2182540
units angstrom
no_reorient
symmetry c1
}

set {
scf_type DF
mp2_type DF
e_convergence 7
reference rhf
}

energy('mp2/aug-cc-pv[tq]z', bsse_type='cp')
--------------------------------------------------------------------------

    Molecular point group: c1
  Charge       = 0
  Multiplicity = 1
  Basis Set: AUG-CC-PVTZ
    Blend: AUG-CC-PVTZ
  Basis Set: (AUG-CC-PVTZ AUX)
    Blend: AUG-CC-PVTZ-JKFIT
  @DF-RHF Final Energy:  -196.40454825872106
    Total Energy =                       -196.4045482587210927
  Basis Set: (AUG-CC-PVTZ AUX)
    Blend: AUG-CC-PVTZ-RI
	 Reference Energy          =    -196.4045482587210643 [Eh]
	 Singles Energy            =      -0.0000000000000000 [Eh]
	 Same-Spin Energy          =      -0.2117454858113014 [Eh]
	 Opposite-Spin Energy      =      -0.7978323209416187 [Eh]
	 Correlation Energy        =      -1.0095778067529202 [Eh]
	 Total Energy              =    -197.4141260654739938 [Eh]
	 SCS Total Energy          =    -197.4325288724547818 [Eh]
    Molecular point group: c1
  Basis Set: AUG-CC-PVQZ
    Blend: AUG-CC-PVQZ
  Basis Set: (AUG-CC-PVQZ AUX)
    Blend: AUG-CC-PVQZ-JKFIT
  @DF-RHF Final Energy:  -196.41639504693640
    Total Energy =                       -196.4163950469363726
  Basis Set: (AUG-CC-PVQZ AUX)
  @DF-RHF Final Energy:  -196.40468766755734
    Total Energy =                       -196.4046876675573685
  @DF-RHF Final Energy:  -196.41642944527999
    Total Energy =                       -196.4164294452799595
  @DF-RHF Final Energy:  -196.40452442163243
    Total Energy =                       -196.4045244216324306
  @DF-RHF Final Energy:  -196.41624971512735
    Total Energy =                       -196.4162497151273499
  @DF-RHF Final Energy:  -196.40438101129007
    Total Energy =                       -196.4043810112900701
  @DF-RHF Final Energy:  -196.41620316745079
    Total Energy =                       -196.4162031674507887
  Multiplicity = 1
  @DF-RHF Final Energy:  -392.74166968982854
    Total Energy =                       -392.7416696898285409
	 Singles Energy            =      -0.0000000000000000 [Eh]
	 Same-Spin Energy          =      -0.4376547172619457 [Eh]
	 Opposite-Spin Energy      =      -1.6177156204765679 [Eh]
	 Correlation Energy        =      -2.0553703377385135 [Eh]
	 Total Energy              =    -394.7970400275670499 [Eh]
	 SCS Total Energy          =    -394.8288133401543973 [Eh]
    Molecular point group: c1

    Geometry (in Angstrom), charge = 0, multiplicity = 1:

       Center              X                  Y                   Z               Mass
    ------------   -----------------  -----------------  -----------------  -----------------
         C           -2.530098222420    -0.402367794881    -1.769586048680    12.000000000000
         H           -2.559601222420    -0.967582794881    -2.701048048680     1.007825032230
         H           -2.553751222420    -1.118657794881    -0.948234048680     1.007825032230
         H           -3.435929222420     0.199351205119    -1.714121048680     1.007825032230
         C           -1.275872222420     0.458842205119    -1.700867048680    12.000000000000
         H           -1.277799222420     1.040425205119    -0.775807048680     1.007825032230
         H           -1.280054222420     1.183763205119    -2.518050048680     1.007825032230
         C            0.002489777580    -0.365508794881    -1.771899048680    12.000000000000
         H            0.008113777580    -1.096205794881    -0.957061048680     1.007825032230
         H            0.006533777580    -0.945315794881    -2.699712048680     1.007825032230
         C            1.268617777580     0.477603205119    -1.701523048680    12.000000000000
         H            1.262304777580     1.059457205119    -0.776646048680     1.007825032230
         H            1.261919777580     1.202264205119    -2.518927048680     1.007825032230
         C            2.535250777580    -0.365217794881    -1.770206048680    12.000000000000
         H            2.572724777580    -0.930509794881    -2.701344048680     1.007825032230
         H            3.432265777580     0.249622205119    -1.715314048680     1.007825032230
         H            2.569492777580    -1.080602794881    -0.948436048680     1.007825032230
         C           -0.000145222420     0.049442205119     1.744194951320    12.000000000000
         C            0.000926777580    -0.090688794881     3.263927951320    12.000000000000
         H           -0.886110222420     0.373387205119     3.697296951320     1.007825032230
         H            0.010177777580    -1.141468794881     3.556937951320     1.007825032230
         H            0.879586777580     0.388975205119     3.697570951320     1.007825032230
         C           -1.239601222420    -0.632209794881     1.170295951320    12.000000000000
         H           -1.262900222420    -0.543252794881     0.083466951320     1.007825032230
         H           -1.251686222420    -1.693486794881     1.423309951320     1.007825032230
         H           -2.150544222420    -0.179918794881     1.565381951320     1.007825032230
         C            1.252459777580    -0.608098794881     1.170724951320    12.000000000000
         H            1.273786777580    -0.519812794881     0.083753951320     1.007825032230
         H            1.285589777580    -1.668659794881     1.424816951320     1.007825032230
         H            2.154271777580    -0.137455794881     1.565145951320     1.007825032230
         C           -0.014393222420     1.529234205119     1.369573951320    12.000000000000
         H            0.863372777580     2.039821205119     1.768528951320     1.007825032230
         H           -0.014917222420     1.655689205119     0.285921951320     1.007825032230
         H           -0.902499222420     2.022568205119     1.767361951320     1.007825032230

  Charge       = 0
  Multiplicity = 1
  Basis Set: AUG-CC-PVQZ
    Blend: AUG-CC-PVQZ
  Basis Set: (AUG-CC-PVQZ AUX)
    Blend: AUG-CC-PVQZ-JKFIT

    Orbital Energies [Eh]
    ---------------------

    Doubly Occupied:

       1A    -11.221259     2A    -11.211710     3A    -11.211614
       4A    -11.209682     5A    -11.206132     6A    -11.206123
       7A    -11.201392     8A    -11.200453     9A    -11.193306
      10A    -11.193285    11A     -1.109629    12A     -1.084924
      13A     -1.023786    14A     -0.930196    15A     -0.926805
      16A     -0.925552    17A     -0.922240    18A     -0.824447
      19A     -0.791631    20A     -0.736549    21A     -0.674055
      22A     -0.633683    23A     -0.611898    24A     -0.604954
      25A     -0.596565    26A     -0.586114    27A     -0.566292
      28A     -0.552590    29A     -0.547330    30A     -0.540286
      31A     -0.529204    32A     -0.511633    33A     -0.506711
      34A     -0.500039    35A     -0.494258    36A     -0.478548
      37A     -0.471461    38A     -0.456713    39A     -0.450548
      40A     -0.445602    41A     -0.444071    42A     -0.428465

  @DF-RHF Final Energy:  -392.76520931788269

   => Energetics <=

    Nuclear Repulsion Energy =            619.2814414973229304
    One-Electron Energy =               -1758.1698256696147382
    Two-Electron Energy =                 746.1231748544090578
    Total Energy =                       -392.7652093178827499

  Dipole Moment: [D]
     X:    -0.0010      Y:     0.1610      Z:    -0.4119     Total:     0.4423

  Basis Set: (AUG-CC-PVQZ AUX)
    Blend: AUG-CC-PVQZ-RI
	 Reference Energy          =    -392.7652093178826931 [Eh]
	 Singles Energy            =      -0.0000000000000000 [Eh]
	 Same-Spin Energy          =      -0.4608411958954981 [Eh]
	 Opposite-Spin Energy      =      -1.7833635154539622 [Eh]
	 Correlation Energy        =      -2.2442047113494601 [Eh]
	 Total Energy              =    -395.0094140292321754 [Eh]

	 ================> DF-SCS-MP2 Energies <==================
	-----------------------------------------------------------
	 SCS Same-Spin Scale       =       0.3333333333333333 [-]
	 SCS Opposite-Spin Scale   =       1.2000000000000000 [-]
	 SCS Same-Spin Energy      =      -0.1536137319651660 [Eh]
	 SCS Opposite-Spin Energy  =      -2.1400362185447546 [Eh]
	 SCS Correlation Energy    =      -2.2936499505099208 [Eh]
	 SCS Total Energy          =    -395.0588592683926095 [Eh]
	-----------------------------------------------------------

*** Psi4 exiting successfully. Buy a developer a beer!
