                               Psi4 1.4a2.dev224

  ==> Input File <==

--------------------------------------------------------------------------
#Generated by lconvert.py for cbs job

memory 40 GB

molecule  {
0 1
  C       -2.5303830    -0.4175750     0.6813060
  H       -2.5598860    -0.9827900    -0.2501560
  H       -2.5540360    -1.1338650     1.5026580
  H       -3.4362140     0.1841440     0.7367710
  C       -1.2761570     0.4436350     0.7500250
  H       -1.2780840     1.0252180     1.6750850
  H       -1.2803390     1.1685560    -0.0671580
  C        0.0022050    -0.3807160     0.6789930
  H        0.0078290    -1.1114130     1.4938310
  H        0.0062490    -0.9605230    -0.2488200
  C        1.2683330     0.4623960     0.7493690
  H        1.2620200     1.0442500     1.6742460
  H        1.2616350     1.1870570    -0.0680350
  C        2.5349660    -0.3804250     0.6806860
  H        2.5724400    -0.9457170    -0.2504520
  H        3.4319810     0.2344150     0.7355780
  H        2.5692080    -1.0958100     1.5024560
--
0 1
  C       -0.0005510     0.0736310     5.5811690
  C        0.0005210    -0.0665000     7.1009020
  H       -0.8865150     0.3975760     7.5342720
  H        0.0097720    -1.1172800     7.3939120
  H        0.8791810     0.4131650     7.5345450
  C       -1.2400060    -0.6080210     5.0072710
  H       -1.2633050    -0.5190640     3.9204420
  H       -1.2520920    -1.6692970     5.2602840
  H       -2.1509500    -0.1557300     5.4023560
  C        1.2520540    -0.5839100     5.0076990
  H        1.2733810    -0.4956240     3.9207280
  H        1.2851850    -1.6444710     5.2617910
  H        2.1538670    -0.1132660     5.4021200
  C       -0.0147990     1.5534240     5.2065480
  H        0.8629670     2.0640110     5.6055030
  H       -0.0153230     1.6798790     4.1228960
  H       -0.9029050     2.0467570     5.6043360
units angstrom
no_reorient
symmetry c1
}

set {
scf_type DF
mp2_type DF
e_convergence 7
reference rhf
}

energy('mp2/aug-cc-pv[tq]z', bsse_type='cp')
--------------------------------------------------------------------------

    Molecular point group: c1
  Charge       = 0
  Multiplicity = 1
  Basis Set: AUG-CC-PVTZ
    Blend: AUG-CC-PVTZ
  Basis Set: (AUG-CC-PVTZ AUX)
    Blend: AUG-CC-PVTZ-JKFIT
  @DF-RHF Final Energy:  -196.40454826126512
    Total Energy =                       -196.4045482612651199
  Basis Set: (AUG-CC-PVTZ AUX)
    Blend: AUG-CC-PVTZ-RI
	 Reference Energy          =    -196.4045482612651199 [Eh]
	 Singles Energy            =      -0.0000000000000000 [Eh]
	 Same-Spin Energy          =      -0.2117454849484630 [Eh]
	 Opposite-Spin Energy      =      -0.7978323173552260 [Eh]
	 Correlation Energy        =      -1.0095778023036890 [Eh]
	 Total Energy              =    -197.4141260635688013 [Eh]
	 SCS Total Energy          =    -197.4325288704075376 [Eh]
    Molecular point group: c1
  Basis Set: AUG-CC-PVQZ
    Blend: AUG-CC-PVQZ
  Basis Set: (AUG-CC-PVQZ AUX)
    Blend: AUG-CC-PVQZ-JKFIT
  @DF-RHF Final Energy:  -196.41639505147802
    Total Energy =                       -196.4163950514780481
  Basis Set: (AUG-CC-PVQZ AUX)
  @DF-RHF Final Energy:  -196.40458982456053
    Total Energy =                       -196.4045898245605031
  @DF-RHF Final Energy:  -196.41640781301192
    Total Energy =                       -196.4164078130119151
  @DF-RHF Final Energy:  -196.40441925709612
    Total Energy =                       -196.4044192570961229
  @DF-RHF Final Energy:  -196.41621865871664
    Total Energy =                       -196.4162186587166445
  @DF-RHF Final Energy:  -196.40438101276132
    Total Energy =                       -196.4043810127613199
  @DF-RHF Final Energy:  -196.41620316965657
    Total Energy =                       -196.4162031696565691
  Multiplicity = 1
  @DF-RHF Final Energy:  -392.80767774273011
    Total Energy =                       -392.8076777427301067
	 Singles Energy            =      -0.0000000000000000 [Eh]
	 Same-Spin Energy          =      -0.4223506524467765 [Eh]
	 Opposite-Spin Energy      =      -1.5962056788905703 [Eh]
	 Correlation Energy        =      -2.0185563313373467 [Eh]
	 Total Energy              =    -394.8262340740674290 [Eh]
	 SCS Total Energy          =    -394.8639081082143889 [Eh]
    Molecular point group: c1

    Geometry (in Angstrom), charge = 0, multiplicity = 1:

       Center              X                  Y                   Z               Mass
    ------------   -----------------  -----------------  -----------------  -----------------
         C           -2.530037833603    -0.422065913054    -2.462627145884    12.000000000000
         H           -2.559540833603    -0.987280913054    -3.394089145884     1.007825032230
         H           -2.553690833603    -1.138355913054    -1.641275145884     1.007825032230
         H           -3.435868833603     0.179653086946    -2.407162145884     1.007825032230
         C           -1.275811833603     0.439144086946    -2.393908145884    12.000000000000
         H           -1.277738833603     1.020727086946    -1.468848145884     1.007825032230
         H           -1.279993833603     1.164065086946    -3.211091145884     1.007825032230
         C            0.002550166397    -0.385206913054    -2.464940145884    12.000000000000
         H            0.008174166397    -1.115903913054    -1.650102145884     1.007825032230
         H            0.006594166397    -0.965013913054    -3.392753145884     1.007825032230
         C            1.268678166397     0.457905086946    -2.394564145884    12.000000000000
         H            1.262365166397     1.039759086946    -1.469687145884     1.007825032230
         H            1.261980166397     1.182566086946    -3.211968145884     1.007825032230
         C            2.535311166397    -0.384915913054    -2.463247145884    12.000000000000
         H            2.572785166397    -0.950207913054    -3.394385145884     1.007825032230
         H            3.432326166397     0.229924086946    -2.408355145884     1.007825032230
         H            2.569553166397    -1.100300913054    -1.641477145884     1.007825032230
         C           -0.000205833603     0.069140086946     2.437235854116    12.000000000000
         C            0.000866166397    -0.070990913054     3.956968854116    12.000000000000
         H           -0.886169833603     0.393085086946     4.390338854116     1.007825032230
         H            0.010117166397    -1.121770913054     4.249978854116     1.007825032230
         H            0.879526166397     0.408674086946     4.390611854116     1.007825032230
         C           -1.239660833603    -0.612511913054     1.863337854116    12.000000000000
         H           -1.262959833603    -0.523554913054     0.776508854116     1.007825032230
         H           -1.251746833603    -1.673787913054     2.116350854116     1.007825032230
         H           -2.150604833603    -0.160220913054     2.258422854116     1.007825032230
         C            1.252399166397    -0.588400913054     1.863765854116    12.000000000000
         H            1.273726166397    -0.500114913054     0.776794854116     1.007825032230
         H            1.285530166397    -1.648961913054     2.117857854116     1.007825032230
         H            2.154212166397    -0.117756913054     2.258186854116     1.007825032230
         C           -0.014453833603     1.548933086946     2.062614854116    12.000000000000
         H            0.863312166397     2.059520086946     2.461569854116     1.007825032230
         H           -0.014977833603     1.675388086946     0.978962854116     1.007825032230
         H           -0.902559833603     2.042266086946     2.460402854116     1.007825032230

  Charge       = 0
  Multiplicity = 1
  Basis Set: AUG-CC-PVQZ
    Blend: AUG-CC-PVQZ
  Basis Set: (AUG-CC-PVQZ AUX)
    Blend: AUG-CC-PVQZ-JKFIT

    Orbital Energies [Eh]
    ---------------------

    Doubly Occupied:

       1A    -11.225988     2A    -11.212207     3A    -11.212130
       4A    -11.209863     5A    -11.206307     6A    -11.206305
       7A    -11.205098     8A    -11.204818     9A    -11.204800
      10A    -11.204731    11A     -1.106728    12A     -1.081761
      13A     -1.015821    14A     -0.929157    15A     -0.929061
      16A     -0.929045    17A     -0.919272    18A     -0.820385
      19A     -0.785890    20A     -0.730471    21A     -0.649201
      22A     -0.612669    23A     -0.612415    24A     -0.611737
      25A     -0.599159    26A     -0.594005    27A     -0.554834
      28A     -0.553373    29A     -0.553248    30A     -0.547928
      31A     -0.526274    32A     -0.510129    33A     -0.509950
      34A     -0.509853    35A     -0.495110    36A     -0.476740
      37A     -0.464331    38A     -0.460092    39A     -0.452876
      40A     -0.452788    41A     -0.451241    42A     -0.447424

  @DF-RHF Final Energy:  -392.83129755500187

   => Energetics <=

    Nuclear Repulsion Energy =            562.7497225761139816
    One-Electron Energy =               -1645.1916142520603898
    Two-Electron Energy =                 689.6105941209445973
    Total Energy =                       -392.8312975550018109

  Dipole Moment: [D]
     X:    -0.0006      Y:     0.0811      Z:    -0.0224     Total:     0.0842

  Basis Set: (AUG-CC-PVQZ AUX)
    Blend: AUG-CC-PVQZ-RI
	 Reference Energy          =    -392.8312975550018677 [Eh]
	 Singles Energy            =      -0.0000000000000000 [Eh]
	 Same-Spin Energy          =      -0.4456869051633235 [Eh]
	 Opposite-Spin Energy      =      -1.7646612731953994 [Eh]
	 Correlation Energy        =      -2.2103481783587231 [Eh]
	 Total Energy              =    -395.0416457333606104 [Eh]

	 ================> DF-SCS-MP2 Energies <==================
	-----------------------------------------------------------
	 SCS Same-Spin Scale       =       0.3333333333333333 [-]
	 SCS Opposite-Spin Scale   =       1.2000000000000000 [-]
	 SCS Same-Spin Energy      =      -0.1485623017211078 [Eh]
	 SCS Opposite-Spin Energy  =      -2.1175935278344791 [Eh]
	 SCS Correlation Energy    =      -2.2661558295555868 [Eh]
	 SCS Total Energy          =    -395.0974533845574683 [Eh]
	-----------------------------------------------------------

*** Psi4 exiting successfully. Buy a developer a beer!
