                               Psi4 1.4a2.dev224

  ==> Input File <==

--------------------------------------------------------------------------
#Generated by lconvert.py for cbs job

memory 20 GB

molecule  {
0 1
  C      -2.530380   -0.417570    0.681310
  H      -2.559890   -0.982790   -0.250160
  H      -2.554040   -1.133860    1.502660
  H      -3.436210    0.184140    0.736770
  C      -1.276160    0.443640    0.750030
  H      -1.278080    1.025220    1.675080
  H      -1.280340    1.168560   -0.067160
  C       0.002200   -0.380720    0.678990
  H       0.007830   -1.111410    1.493830
  H       0.006250   -0.960520   -0.248820
  C       1.268330    0.462400    0.749370
  H       1.262020    1.044250    1.674250
  H       1.261640    1.187060   -0.068030
  C       2.534970   -0.380430    0.680690
  H       2.572440   -0.945720   -0.250450
  H       3.431980    0.234420    0.735580
  H       2.569210   -1.095810    1.502460
--
0 1
  C      -0.000610    0.094680    6.321720
  C       0.000460   -0.045450    7.841450
  H      -0.886580    0.418620    8.274820
  H       0.009710   -1.096230    8.134460
  H       0.879120    0.434210    8.275100
  C      -1.240070   -0.586970    5.747820
  H      -1.263370   -0.498020    4.660990
  H      -1.252160   -1.648250    6.000840
  H      -2.151010   -0.134680    6.142910
  C       1.251990   -0.562860    5.748250
  H       1.273320   -0.474580    4.661280
  H       1.285120   -1.623420    6.002340
  H       2.153800   -0.092220    6.142670
  C      -0.014860    1.574470    5.947100
  H       0.862900    2.085060    6.346050
  H      -0.015390    1.700930    4.863450
  H      -0.902970    2.067800    6.344890
units angstrom
no_reorient
symmetry c1
}

set {
scf_type DF
mp2_type DF
e_convergence 7
reference rhf
}

energy('mp2/aug-cc-pv[tq]z', bsse_type='cp')
--------------------------------------------------------------------------

    Molecular point group: c1
  Charge       = 0
  Multiplicity = 1
  Basis Set: AUG-CC-PVTZ
    Blend: AUG-CC-PVTZ
  Basis Set: (AUG-CC-PVTZ AUX)
    Blend: AUG-CC-PVTZ-JKFIT
  @DF-RHF Final Energy:  -196.40454830092131
    Total Energy =                       -196.4045483009213058
  Basis Set: (AUG-CC-PVTZ AUX)
    Blend: AUG-CC-PVTZ-RI
	 Reference Energy          =    -196.4045483009213058 [Eh]
	 Singles Energy            =      -0.0000000000000000 [Eh]
	 Same-Spin Energy          =      -0.2117455337756319 [Eh]
	 Opposite-Spin Energy      =      -0.7978322776035477 [Eh]
	 Correlation Energy        =      -1.0095778113791796 [Eh]
	 Total Energy              =    -197.4141261123004938 [Eh]
	 SCS Total Energy          =    -197.4325288786374415 [Eh]
    Molecular point group: c1
  Basis Set: AUG-CC-PVQZ
    Blend: AUG-CC-PVQZ
  Basis Set: (AUG-CC-PVQZ AUX)
    Blend: AUG-CC-PVQZ-JKFIT
  @DF-RHF Final Energy:  -196.41639509816301
    Total Energy =                       -196.4163950981630364
  Basis Set: (AUG-CC-PVQZ AUX)
  @DF-RHF Final Energy:  -196.40457239800065
    Total Energy =                       -196.4045723980006528
  @DF-RHF Final Energy:  -196.41640300221815
    Total Energy =                       -196.4164030022181464
  @DF-RHF Final Energy:  -196.40440076647036
    Total Energy =                       -196.4044007664703599
  @DF-RHF Final Energy:  -196.41621234671030
    Total Energy =                       -196.4162123467102958
  @DF-RHF Final Energy:  -196.40438115188266
    Total Energy =                       -196.4043811518826601
  @DF-RHF Final Energy:  -196.41620330907156
    Total Energy =                       -196.4162033090715624
  Multiplicity = 1
  @DF-RHF Final Energy:  -392.80882759345081
    Total Energy =                       -392.8088275934508147
	 Singles Energy            =      -0.0000000000000000 [Eh]
	 Same-Spin Energy          =      -0.4207373417903164 [Eh]
	 Opposite-Spin Energy      =      -1.5933766138796774 [Eh]
	 Correlation Energy        =      -2.0141139556699938 [Eh]
	 Total Energy              =    -394.8229415491207988 [Eh]
	 SCS Total Energy          =    -394.8611253107031871 [Eh]
    Molecular point group: c1

    Geometry (in Angstrom), charge = 0, multiplicity = 1:

       Center              X                  Y                   Z               Mass
    ------------   -----------------  -----------------  -----------------  -----------------
         C           -2.530003430156    -0.432585870465    -2.832899291365    12.000000000000
         H           -2.559513430156    -0.997805870465    -3.764369291365     1.007825032230
         H           -2.553663430156    -1.148875870465    -2.011549291365     1.007825032230
         H           -3.435833430156     0.169124129535    -2.777439291365     1.007825032230
         C           -1.275783430156     0.428624129535    -2.764179291365    12.000000000000
         H           -1.277703430156     1.010204129535    -1.839129291365     1.007825032230
         H           -1.279963430156     1.153544129535    -3.581369291365     1.007825032230
         C            0.002576569844    -0.395735870465    -2.835219291365    12.000000000000
         H            0.008206569844    -1.126425870465    -2.020379291365     1.007825032230
         H            0.006626569844    -0.975535870465    -3.763029291365     1.007825032230
         C            1.268706569844     0.447384129535    -2.764839291365    12.000000000000
         H            1.262396569844     1.029234129535    -1.839959291365     1.007825032230
         H            1.262016569844     1.172044129535    -3.582239291365     1.007825032230
         C            2.535346569844    -0.395445870465    -2.833519291365    12.000000000000
         H            2.572816569844    -0.960735870465    -3.764659291365     1.007825032230
         H            3.432356569844     0.219404129535    -2.778629291365     1.007825032230
         H            2.569586569844    -1.110825870465    -2.011749291365     1.007825032230
         C           -0.000233430156     0.079664129535     2.807510708635    12.000000000000
         C            0.000836569844    -0.060465870465     4.327240708635    12.000000000000
         H           -0.886203430156     0.403604129535     4.760610708635     1.007825032230
         H            0.010086569844    -1.111245870465     4.620250708635     1.007825032230
         H            0.879496569844     0.419194129535     4.760890708635     1.007825032230
         C           -1.239693430156    -0.601985870465     2.233610708635    12.000000000000
         H           -1.262993430156    -0.513035870465     1.146780708635     1.007825032230
         H           -1.251783430156    -1.663265870465     2.486630708635     1.007825032230
         H           -2.150633430156    -0.149695870465     2.628700708635     1.007825032230
         C            1.252366569844    -0.577875870465     2.234040708635    12.000000000000
         H            1.273696569844    -0.489595870465     1.147070708635     1.007825032230
         H            1.285496569844    -1.638435870465     2.488130708635     1.007825032230
         H            2.154176569844    -0.107235870465     2.628460708635     1.007825032230
         C           -0.014483430156     1.559454129535     2.432890708635    12.000000000000
         H            0.863276569844     2.070044129535     2.831840708635     1.007825032230
         H           -0.015013430156     1.685914129535     1.349240708635     1.007825032230
         H           -0.902593430156     2.052784129535     2.830680708635     1.007825032230

  Charge       = 0
  Multiplicity = 1
  Basis Set: AUG-CC-PVQZ
    Blend: AUG-CC-PVQZ
  Basis Set: (AUG-CC-PVQZ AUX)
    Blend: AUG-CC-PVQZ-JKFIT

    Orbital Energies [Eh]
    ---------------------

    Doubly Occupied:

       1A    -11.226128     2A    -11.212061     3A    -11.211986
       4A    -11.209683     5A    -11.206273     6A    -11.206272
       7A    -11.205140     8A    -11.205115     9A    -11.205091
      10A    -11.204906    11A     -1.106808    12A     -1.081443
      13A     -1.015596    14A     -0.929179    15A     -0.929123
      16A     -0.929103    17A     -0.919099    18A     -0.820178
      19A     -0.785569    20A     -0.730405    21A     -0.647897
      22A     -0.612499    23A     -0.612450    24A     -0.612439
      25A     -0.598990    26A     -0.593399    27A     -0.554370
      28A     -0.553557    29A     -0.553541    30A     -0.547845
      31A     -0.526020    32A     -0.510013    33A     -0.509981
      34A     -0.509931    35A     -0.495122    36A     -0.476464
      37A     -0.462845    38A     -0.459770    39A     -0.453025
      40A     -0.453017    41A     -0.452894    42A     -0.447254

  @DF-RHF Final Energy:  -392.83247002061006

   => Energetics <=

    Nuclear Repulsion Energy =            541.9309133314325209
    One-Electron Energy =               -1603.5618075245909040
    Two-Electron Energy =                 668.7984241725482661
    Total Energy =                       -392.8324700206101170

  Dipole Moment: [D]
     X:    -0.0006      Y:     0.0800      Z:     0.0021     Total:     0.0800

  Basis Set: (AUG-CC-PVQZ AUX)
    Blend: AUG-CC-PVQZ-RI
	 Reference Energy          =    -392.8324700206100601 [Eh]
	 Singles Energy            =      -0.0000000000000000 [Eh]
	 Same-Spin Energy          =      -0.4441632094585824 [Eh]
	 Opposite-Spin Energy      =      -1.7626735007332783 [Eh]
	 Correlation Energy        =      -2.2068367101918609 [Eh]
	 Total Energy              =    -395.0393067308019113 [Eh]

	 ================> DF-SCS-MP2 Energies <==================
	-----------------------------------------------------------
	 SCS Same-Spin Scale       =       0.3333333333333333 [-]
	 SCS Opposite-Spin Scale   =       1.2000000000000000 [-]
	 SCS Same-Spin Energy      =      -0.1480544031528608 [Eh]
	 SCS Opposite-Spin Energy  =      -2.1152082008799340 [Eh]
	 SCS Correlation Energy    =      -2.2632626040327946 [Eh]
	 SCS Total Energy          =    -395.0957326246428352 [Eh]
	-----------------------------------------------------------

*** Psi4 exiting successfully. Buy a developer a beer!
