                               Psi4 1.4a2.dev224

  ==> Input File <==

--------------------------------------------------------------------------
#Generated by lconvert.py for cbs job

memory 40 GB

molecule  {
0 1
  C       -2.5303830    -0.4175750     0.6813060
  H       -2.5598860    -0.9827900    -0.2501560
  H       -2.5540360    -1.1338650     1.5026580
  H       -3.4362140     0.1841440     0.7367710
  C       -1.2761570     0.4436350     0.7500250
  H       -1.2780840     1.0252180     1.6750850
  H       -1.2803390     1.1685560    -0.0671580
  C        0.0022050    -0.3807160     0.6789930
  H        0.0078290    -1.1114130     1.4938310
  H        0.0062490    -0.9605230    -0.2488200
  C        1.2683330     0.4623960     0.7493690
  H        1.2620200     1.0442500     1.6742460
  H        1.2616350     1.1870570    -0.0680350
  C        2.5349660    -0.3804250     0.6806860
  H        2.5724400    -0.9457170    -0.2504520
  H        3.4319810     0.2344150     0.7355780
  H        2.5692080    -1.0958100     1.5024560
--
0 1
  C       -0.0005370     0.0692240     5.4261120
  C        0.0005340    -0.0709070     6.9458450
  H       -0.8865020     0.3931690     7.3792150
  H        0.0097860    -1.1216870     7.2388550
  H        0.8791950     0.4087570     7.3794880
  C       -1.2399930    -0.6124280     4.8522140
  H       -1.2632920    -0.5234710     3.7653840
  H       -1.2520780    -1.6737040     5.1052270
  H       -2.1509360    -0.1601370     5.2472990
  C        1.2520680    -0.5883170     4.8526420
  H        1.2733950    -0.5000310     3.7656710
  H        1.2851980    -1.6488780     5.1067340
  H        2.1538800    -0.1176740     5.2470630
  C       -0.0147850     1.5490160     5.0514910
  H        0.8629810     2.0596030     5.4504460
  H       -0.0153090     1.6754710     3.9678390
  H       -0.9028910     2.0423500     5.4492790
units angstrom
no_reorient
symmetry c1
}

set {
scf_type DF
mp2_type DF
e_convergence 7
reference rhf
}

energy('mp2/aug-cc-pv[tq]z', bsse_type='cp')
--------------------------------------------------------------------------

    Molecular point group: c1
  Charge       = 0
  Multiplicity = 1
  Basis Set: AUG-CC-PVTZ
    Blend: AUG-CC-PVTZ
  Basis Set: (AUG-CC-PVTZ AUX)
    Blend: AUG-CC-PVTZ-JKFIT
  @DF-RHF Final Energy:  -196.40454826035455
    Total Energy =                       -196.4045482603545452
  Basis Set: (AUG-CC-PVTZ AUX)
    Blend: AUG-CC-PVTZ-RI
	 Reference Energy          =    -196.4045482603545452 [Eh]
	 Singles Energy            =      -0.0000000000000000 [Eh]
	 Same-Spin Energy          =      -0.2117454879254596 [Eh]
	 Opposite-Spin Energy      =      -0.7978323187139946 [Eh]
	 Correlation Energy        =      -1.0095778066394541 [Eh]
	 Total Energy              =    -197.4141260669939868 [Eh]
	 SCS Total Energy          =    -197.4325288721198319 [Eh]
    Molecular point group: c1
  Basis Set: AUG-CC-PVQZ
    Blend: AUG-CC-PVQZ
  Basis Set: (AUG-CC-PVQZ AUX)
    Blend: AUG-CC-PVQZ-JKFIT
  @DF-RHF Final Energy:  -196.41639505039703
    Total Energy =                       -196.4163950503970568
  Basis Set: (AUG-CC-PVQZ AUX)
  @DF-RHF Final Energy:  -196.40459580146728
    Total Energy =                       -196.4045958014672806
  @DF-RHF Final Energy:  -196.41640958524275
    Total Energy =                       -196.4164095852427749
  @DF-RHF Final Energy:  -196.40442545467184
    Total Energy =                       -196.4044254546718378
  @DF-RHF Final Energy:  -196.41622121486628
    Total Energy =                       -196.4162212148662832
  @DF-RHF Final Energy:  -196.40438101327345
    Total Energy =                       -196.4043810132734507
  @DF-RHF Final Energy:  -196.41620316885610
    Total Energy =                       -196.4162031688561001
  Multiplicity = 1
  @DF-RHF Final Energy:  -392.80689463693000
    Total Energy =                       -392.8068946369299965
	 Singles Energy            =      -0.0000000000000000 [Eh]
	 Same-Spin Energy          =      -0.4229575635192230 [Eh]
	 Opposite-Spin Energy      =      -1.5972087978695955 [Eh]
	 Correlation Energy        =      -2.0201663613888186 [Eh]
	 Total Energy              =    -394.8270609983188137 [Eh]
	 SCS Total Energy          =    -394.8645310488799396 [Eh]
    Molecular point group: c1

    Geometry (in Angstrom), charge = 0, multiplicity = 1:

       Center              X                  Y                   Z               Mass
    ------------   -----------------  -----------------  -----------------  -----------------
         C           -2.530044639195    -0.419862301871    -2.385098638895    12.000000000000
         H           -2.559547639195    -0.985077301871    -3.316560638895     1.007825032230
         H           -2.553697639195    -1.136152301871    -1.563746638895     1.007825032230
         H           -3.435875639195     0.181856698129    -2.329633638895     1.007825032230
         C           -1.275818639195     0.441347698129    -2.316379638895    12.000000000000
         H           -1.277745639195     1.022930698129    -1.391319638895     1.007825032230
         H           -1.280000639195     1.166268698129    -3.133562638895     1.007825032230
         C            0.002543360805    -0.383003301871    -2.387411638895    12.000000000000
         H            0.008167360805    -1.113700301871    -1.572573638895     1.007825032230
         H            0.006587360805    -0.962810301871    -3.315224638895     1.007825032230
         C            1.268671360805     0.460108698129    -2.317035638895    12.000000000000
         H            1.262358360805     1.041962698129    -1.392158638895     1.007825032230
         H            1.261973360805     1.184769698129    -3.134439638895     1.007825032230
         C            2.535304360805    -0.382712301871    -2.385718638895    12.000000000000
         H            2.572778360805    -0.948004301871    -3.316856638895     1.007825032230
         H            3.432319360805     0.232127698129    -2.330826638895     1.007825032230
         H            2.569546360805    -1.098097301871    -1.563948638895     1.007825032230
         C           -0.000198639195     0.066936698129     2.359707361105    12.000000000000
         C            0.000872360805    -0.073194301871     3.879440361105    12.000000000000
         H           -0.886163639195     0.390881698129     4.312810361105     1.007825032230
         H            0.010124360805    -1.123974301871     4.172450361105     1.007825032230
         H            0.879533360805     0.406469698129     4.313083361105     1.007825032230
         C           -1.239654639195    -0.614715301871     1.785809361105    12.000000000000
         H           -1.262953639195    -0.525758301871     0.698979361105     1.007825032230
         H           -1.251739639195    -1.675991301871     2.038822361105     1.007825032230
         H           -2.150597639195    -0.162424301871     2.180894361105     1.007825032230
         C            1.252406360805    -0.590604301871     1.786237361105    12.000000000000
         H            1.273733360805    -0.502318301871     0.699266361105     1.007825032230
         H            1.285536360805    -1.651165301871     2.040329361105     1.007825032230
         H            2.154218360805    -0.119961301871     2.180658361105     1.007825032230
         C           -0.014446639195     1.546728698129     1.985086361105    12.000000000000
         H            0.863319360805     2.057315698129     2.384041361105     1.007825032230
         H           -0.014970639195     1.673183698129     0.901434361105     1.007825032230
         H           -0.902552639195     2.040062698129     2.382874361105     1.007825032230

  Charge       = 0
  Multiplicity = 1
  Basis Set: AUG-CC-PVQZ
    Blend: AUG-CC-PVQZ
  Basis Set: (AUG-CC-PVQZ AUX)
    Blend: AUG-CC-PVQZ-JKFIT

    Orbital Energies [Eh]
    ---------------------

    Doubly Occupied:

       1A    -11.225874     2A    -11.212223     3A    -11.212146
       4A    -11.209895     5A    -11.206310     6A    -11.206309
       7A    -11.205024     8A    -11.204620     9A    -11.204598
      10A    -11.204573    11A     -1.106653    12A     -1.081884
      13A     -1.015918    14A     -0.929125    15A     -0.928990
      16A     -0.928964    17A     -0.919340    18A     -0.820467
      19A     -0.786017    20A     -0.730488    21A     -0.649941
      22A     -0.612816    23A     -0.612354    24A     -0.611179
      25A     -0.599216    26A     -0.594331    27A     -0.555071
      28A     -0.553240    29A     -0.552988    30A     -0.547954
      31A     -0.526389    32A     -0.510179    33A     -0.509848
      34A     -0.509765    35A     -0.495069    36A     -0.476852
      37A     -0.464938    38A     -0.460167    39A     -0.452753
      40A     -0.452612    41A     -0.450417    42A     -0.447477

  @DF-RHF Final Energy:  -392.83050799011352

   => Energetics <=

    Nuclear Repulsion Energy =            567.7795797104143958
    One-Electron Energy =               -1655.2502329102721887
    Two-Electron Energy =                 694.6401452097442188
    Total Energy =                       -392.8305079901134604

  Dipole Moment: [D]
     X:    -0.0006      Y:     0.0824      Z:    -0.0348     Total:     0.0894

  Basis Set: (AUG-CC-PVQZ AUX)
    Blend: AUG-CC-PVQZ-RI
	 Reference Energy          =    -392.8305079901135173 [Eh]
	 Singles Energy            =      -0.0000000000000000 [Eh]
	 Same-Spin Energy          =      -0.4462703048231688 [Eh]
	 Opposite-Spin Energy      =      -1.7654072780213119 [Eh]
	 Correlation Energy        =      -2.2116775828444806 [Eh]
	 Total Energy              =    -395.0421855729579761 [Eh]

	 ================> DF-SCS-MP2 Energies <==================
	-----------------------------------------------------------
	 SCS Same-Spin Scale       =       0.3333333333333333 [-]
	 SCS Opposite-Spin Scale   =       1.2000000000000000 [-]
	 SCS Same-Spin Energy      =      -0.1487567682743896 [Eh]
	 SCS Opposite-Spin Energy  =      -2.1184887336255742 [Eh]
	 SCS Correlation Energy    =      -2.2672455018999638 [Eh]
	 SCS Total Energy          =    -395.0977534920134531 [Eh]
	-----------------------------------------------------------

*** Psi4 exiting successfully. Buy a developer a beer!
