                               Psi4 1.4a2.dev224

  ==> Input File <==

--------------------------------------------------------------------------
#Generated by lconvert.py for cbs job

memory 30 GB

molecule  {
0 1
  C        0.3825220    -0.0706070     0.7668960
  C       -1.0406390     0.3968110     1.0609360
  H       -1.7715750    -0.2815000     0.6183300
  H       -1.2247180     0.4357350     2.1355190
  H       -1.2140660     1.3937240     0.6530910
  C        0.5908470    -1.4668180     1.3479780
  H        1.6029140    -1.8229500     1.1501030
  H        0.4389690    -1.4667460     2.4282870
  H       -0.1099190    -2.1786840     0.9093140
  C        1.3782690     0.8984350     1.3991490
  H        2.4043940     0.5854410     1.2007340
  H        1.2437810     0.9459740     2.4807100
  H        1.2483730     1.9050230     0.9989510
  C        0.6019610    -0.1110340    -0.7430970
  H        0.4592120     0.8770390    -1.1828980
  H        1.6136940    -0.4434590    -0.9796720
  H       -0.0995310    -0.7975500    -1.2192210
--
0 1
  C       -0.3818490     0.0705730     6.0133010
  C        1.0409640    -0.3983930     5.7199020
  H        1.2254030    -0.4377220     4.6453810
  H        1.7723980     0.2792800     6.1626370
  H        1.2132270    -1.3953990     6.1280220
  C       -0.5882460     1.4671350     5.4324710
  H       -1.6002090     1.8241200     5.6293180
  H        0.1126730     2.1782060     5.8721930
  H       -0.4351360     1.4673320     4.3523290
  C       -0.6021430     0.1107500     7.5231550
  H       -1.6133590     0.4450270     7.7592280
  H        0.1003690     0.7956990     7.9999930
  H       -0.4615800    -0.8777710     7.9626070
  C       -1.3783110    -0.8972040     5.3801550
  H       -1.2493850    -1.9041800     5.7797340
  H       -2.4042010    -0.5834310     5.5785430
  H       -1.2436070    -0.9441790     4.2985780
units angstrom
no_reorient
symmetry c1
}

set {
scf_type DF
mp2_type DF
e_convergence 7
reference rhf
}

energy('mp2/aug-cc-pv[tq]z', bsse_type='cp')
--------------------------------------------------------------------------

    Molecular point group: c1
  Charge       = 0
  Multiplicity = 1
  Basis Set: AUG-CC-PVTZ
    Blend: AUG-CC-PVTZ
  Basis Set: (AUG-CC-PVTZ AUX)
    Blend: AUG-CC-PVTZ-JKFIT
  @DF-RHF Final Energy:  -196.40455999815529
    Total Energy =                       -196.4045599981553210
  Basis Set: (AUG-CC-PVTZ AUX)
    Blend: AUG-CC-PVTZ-RI
	 Reference Energy          =    -196.4045599981552925 [Eh]
	 Singles Energy            =      -0.0000000000000000 [Eh]
	 Same-Spin Energy          =      -0.2117373231415457 [Eh]
	 Opposite-Spin Energy      =      -0.7978209421260508 [Eh]
	 Correlation Energy        =      -1.0095582652675965 [Eh]
	 Total Energy              =    -197.4141182634228926 [Eh]
	 SCS Total Energy          =    -197.4325242364203916 [Eh]
    Molecular point group: c1
  Basis Set: AUG-CC-PVQZ
    Blend: AUG-CC-PVQZ
  Basis Set: (AUG-CC-PVQZ AUX)
    Blend: AUG-CC-PVQZ-JKFIT
  @DF-RHF Final Energy:  -196.41640696111273
    Total Energy =                       -196.4164069611127275
  Basis Set: (AUG-CC-PVQZ AUX)
  @DF-RHF Final Energy:  -196.40460292463277
    Total Energy =                       -196.4046029246327976
  @DF-RHF Final Energy:  -196.41641972207012
    Total Energy =                       -196.4164197220701453
  @DF-RHF Final Energy:  -196.40460295196962
    Total Energy =                       -196.4046029519696503
  @DF-RHF Final Energy:  -196.41641974878908
    Total Energy =                       -196.4164197487891101
  @DF-RHF Final Energy:  -196.40456002461386
    Total Energy =                       -196.4045600246138292
  @DF-RHF Final Energy:  -196.41640698401113
    Total Energy =                       -196.4164069840111324
  Multiplicity = 1
  @DF-RHF Final Energy:  -392.80685868764249
    Total Energy =                       -392.8068586876424888
	 Singles Energy            =      -0.0000000000000000 [Eh]
	 Same-Spin Energy          =      -0.4262276316176734 [Eh]
	 Opposite-Spin Energy      =      -1.6011024912805762 [Eh]
	 Correlation Energy        =      -2.0273301228982499 [Eh]
	 Total Energy              =    -394.8341888105407520 [Eh]
	 SCS Total Energy          =    -394.8702575543850912 [Eh]
    Molecular point group: c1

    Geometry (in Angstrom), charge = 0, multiplicity = 1:

       Center              X                  Y                   Z               Mass
    ------------   -----------------  -----------------  -----------------  -----------------
         C            0.382184353217    -0.070570917904    -2.623187066467    12.000000000000
         C           -1.040976646783     0.396847082096    -2.329147066467    12.000000000000
         H           -1.771912646783    -0.281463917904    -2.771753066467     1.007825032230
         H           -1.225055646783     0.435771082096    -1.254564066467     1.007825032230
         H           -1.214403646783     1.393760082096    -2.736992066467     1.007825032230
         C            0.590509353217    -1.466781917904    -2.042105066467    12.000000000000
         H            1.602576353217    -1.822913917904    -2.239980066467     1.007825032230
         H            0.438631353217    -1.466709917904    -0.961796066467     1.007825032230
         H           -0.110256646783    -2.178647917904    -2.480769066467     1.007825032230
         C            1.377931353217     0.898471082096    -1.990934066467    12.000000000000
         H            2.404056353217     0.585477082096    -2.189349066467     1.007825032230
         H            1.243443353217     0.946010082096    -0.909373066467     1.007825032230
         H            1.248035353217     1.905059082096    -2.391132066467     1.007825032230
         C            0.601623353217    -0.110997917904    -4.133180066467    12.000000000000
         H            0.458874353217     0.877075082096    -4.572981066467     1.007825032230
         H            1.613356353217    -0.443422917904    -4.369755066467     1.007825032230
         H           -0.099868646783    -0.797513917904    -4.609304066467     1.007825032230
         C           -0.382186646783     0.070609082096     2.623217933533    12.000000000000
         C            1.040626353217    -0.398356917904     2.329818933533    12.000000000000
         H            1.225065353217    -0.437685917904     1.255297933533     1.007825032230
         H            1.772060353217     0.279316082096     2.772553933533     1.007825032230
         H            1.212889353217    -1.395362917904     2.737938933533     1.007825032230
         C           -0.588583646783     1.467171082096     2.042387933533    12.000000000000
         H           -1.600546646783     1.824156082096     2.239234933533     1.007825032230
         H            0.112335353217     2.178242082096     2.482109933533     1.007825032230
         H           -0.435473646783     1.467368082096     0.962245933533     1.007825032230
         C           -0.602480646783     0.110786082096     4.133071933533    12.000000000000
         H           -1.613696646783     0.445063082096     4.369144933533     1.007825032230
         H            0.100031353217     0.795735082096     4.609909933533     1.007825032230
         H           -0.461917646783    -0.877734917904     4.572523933533     1.007825032230
         C           -1.378648646783    -0.897167917904     1.990071933533    12.000000000000
         H           -1.249722646783    -1.904143917904     2.389650933533     1.007825032230
         H           -2.404538646783    -0.583394917904     2.188459933533     1.007825032230
         H           -1.243944646783    -0.944142917904     0.908494933533     1.007825032230

  Charge       = 0
  Multiplicity = 1
  Basis Set: AUG-CC-PVQZ
    Blend: AUG-CC-PVQZ
  Basis Set: (AUG-CC-PVQZ AUX)
    Blend: AUG-CC-PVQZ-JKFIT

    Orbital Energies [Eh]
    ---------------------

    Doubly Occupied:

       1A    -11.226082     2A    -11.226082     3A    -11.204906
       4A    -11.204906     5A    -11.204905     6A    -11.204904
       7A    -11.204878     8A    -11.204876     9A    -11.204673
      10A    -11.204667    11A     -1.107154    12A     -1.106322
      13A     -0.930015    14A     -0.930010    15A     -0.929783
      16A     -0.928484    17A     -0.928482    18A     -0.928149
      19A     -0.732309    20A     -0.728843    21A     -0.618621
      22A     -0.612605    23A     -0.612602    24A     -0.612542
      25A     -0.612538    26A     -0.606545    27A     -0.557120
      28A     -0.557110    29A     -0.550572    30A     -0.550566
      31A     -0.512704    32A     -0.512694    33A     -0.510119
      34A     -0.509725    35A     -0.506998    36A     -0.506988
      37A     -0.460863    38A     -0.453415    39A     -0.453411
      40A     -0.452634    41A     -0.452630    42A     -0.444651

  @DF-RHF Final Energy:  -392.83049528899102

   => Energetics <=

    Nuclear Repulsion Energy =            571.5356100999096043
    One-Electron Energy =               -1662.7160572471791511
    Two-Electron Energy =                 698.3499518582785868
    Total Energy =                       -392.8304952889910737

  Dipole Moment: [D]
     X:    -0.0000      Y:     0.0000      Z:     0.0001     Total:     0.0001

  Basis Set: (AUG-CC-PVQZ AUX)
    Blend: AUG-CC-PVQZ-RI
	 Reference Energy          =    -392.8304952889910169 [Eh]
	 Singles Energy            =      -0.0000000000000000 [Eh]
	 Same-Spin Energy          =      -0.4495700635703403 [Eh]
	 Opposite-Spin Energy      =      -1.7689855540539665 [Eh]
	 Correlation Energy        =      -2.2185556176243066 [Eh]
	 Total Energy              =    -395.0490509066153209 [Eh]

	 ================> DF-SCS-MP2 Energies <==================
	-----------------------------------------------------------
	 SCS Same-Spin Scale       =       0.3333333333333333 [-]
	 SCS Opposite-Spin Scale   =       1.2000000000000000 [-]
	 SCS Same-Spin Energy      =      -0.1498566878567801 [Eh]
	 SCS Opposite-Spin Energy  =      -2.1227826648647596 [Eh]
	 SCS Correlation Energy    =      -2.2726393527215398 [Eh]
	 SCS Total Energy          =    -395.1031346417125292 [Eh]
	-----------------------------------------------------------

*** Psi4 exiting successfully. Buy a developer a beer!
