                               Psi4 1.4a2.dev224

  ==> Input File <==

--------------------------------------------------------------------------
#Generated by lconvert.py for cbs job

memory 30 GB

molecule  {
0 1
  C        0.3825220    -0.0706070     0.7668960
  C       -1.0406390     0.3968110     1.0609360
  H       -1.7715750    -0.2815000     0.6183300
  H       -1.2247180     0.4357350     2.1355190
  H       -1.2140660     1.3937240     0.6530910
  C        0.5908470    -1.4668180     1.3479780
  H        1.6029140    -1.8229500     1.1501030
  H        0.4389690    -1.4667460     2.4282870
  H       -0.1099190    -2.1786840     0.9093140
  C        1.3782690     0.8984350     1.3991490
  H        2.4043940     0.5854410     1.2007340
  H        1.2437810     0.9459740     2.4807100
  H        1.2483730     1.9050230     0.9989510
  C        0.6019610    -0.1110340    -0.7430970
  H        0.4592120     0.8770390    -1.1828980
  H        1.6136940    -0.4434590    -0.9796720
  H       -0.0995310    -0.7975500    -1.2192210
--
0 1
  C       -0.3355190     0.0620160     5.6953060
  C        1.0872930    -0.4069500     5.4019060
  H        1.2717320    -0.4462800     4.3273860
  H        1.8187270     0.2707220     5.8446420
  H        1.2595570    -1.4039560     5.8100270
  C       -0.5419160     1.4585770     5.1144750
  H       -1.5538790     1.8155630     5.3113230
  H        0.1590030     2.1696490     5.5541970
  H       -0.3888070     1.4587740     4.0343330
  C       -0.5558140     0.1021920     7.2051590
  H       -1.5670300     0.4364690     7.4412320
  H        0.1466990     0.7871410     7.6819970
  H       -0.4152510    -0.8863290     7.6446110
  C       -1.3319820    -0.9057620     5.0621590
  H       -1.2030560    -1.9127370     5.4617380
  H       -2.3578710    -0.5919890     5.2605470
  H       -1.1972780    -0.9527360     3.9805830
units angstrom
no_reorient
symmetry c1
}

set {
scf_type DF
mp2_type DF
e_convergence 7
reference rhf
}

energy('mp2/aug-cc-pv[tq]z', bsse_type='cp')
--------------------------------------------------------------------------

    Molecular point group: c1
  Charge       = 0
  Multiplicity = 1
  Basis Set: AUG-CC-PVTZ
    Blend: AUG-CC-PVTZ
  Basis Set: (AUG-CC-PVTZ AUX)
    Blend: AUG-CC-PVTZ-JKFIT
  @DF-RHF Final Energy:  -196.40456001183625
    Total Energy =                       -196.4045600118362813
  Basis Set: (AUG-CC-PVTZ AUX)
    Blend: AUG-CC-PVTZ-RI
	 Reference Energy          =    -196.4045600118362529 [Eh]
	 Singles Energy            =      -0.0000000000000000 [Eh]
	 Same-Spin Energy          =      -0.2117373268528105 [Eh]
	 Opposite-Spin Energy      =      -0.7978209312866023 [Eh]
	 Correlation Energy        =      -1.0095582581394127 [Eh]
	 Total Energy              =    -197.4141182699756598 [Eh]
	 SCS Total Energy          =    -197.4325242383311263 [Eh]
    Molecular point group: c1
  Basis Set: AUG-CC-PVQZ
    Blend: AUG-CC-PVQZ
  Basis Set: (AUG-CC-PVQZ AUX)
    Blend: AUG-CC-PVQZ-JKFIT
  @DF-RHF Final Energy:  -196.41640697466292
    Total Energy =                       -196.4164069746629480
  Basis Set: (AUG-CC-PVQZ AUX)
  @DF-RHF Final Energy:  -196.40462433689299
    Total Energy =                       -196.4046243368929936
  @DF-RHF Final Energy:  -196.41642300226806
    Total Energy =                       -196.4164230022680613
  @DF-RHF Final Energy:  -196.40462435014550
    Total Energy =                       -196.4046243501455251
  @DF-RHF Final Energy:  -196.41642301096653
    Total Energy =                       -196.4164230109665255
  @DF-RHF Final Energy:  -196.40456002455241
    Total Energy =                       -196.4045600245523815
  @DF-RHF Final Energy:  -196.41640698518214
    Total Energy =                       -196.4164069851821068
  Multiplicity = 1
  @DF-RHF Final Energy:  -392.80361758220539
    Total Energy =                       -392.8036175822054474
	 Singles Energy            =      -0.0000000000000000 [Eh]
	 Same-Spin Energy          =      -0.4276561327421254 [Eh]
	 Opposite-Spin Energy      =      -1.6033750058339937 [Eh]
	 Correlation Energy        =      -2.0310311385761191 [Eh]
	 Total Energy              =    -394.8346487207815017 [Eh]
	 SCS Total Energy          =    -394.8702196334535302 [Eh]
    Molecular point group: c1

    Geometry (in Angstrom), charge = 0, multiplicity = 1:

       Center              X                  Y                   Z               Mass
    ------------   -----------------  -----------------  -----------------  -----------------
         C            0.359019651819    -0.066292119302    -2.464189184640    12.000000000000
         C           -1.064141348181     0.401125880698    -2.170149184640    12.000000000000
         H           -1.795077348181    -0.277185119302    -2.612755184640     1.007825032230
         H           -1.248220348181     0.440049880698    -1.095566184640     1.007825032230
         H           -1.237568348181     1.398038880698    -2.577994184640     1.007825032230
         C            0.567344651819    -1.462503119302    -1.883107184640    12.000000000000
         H            1.579411651819    -1.818635119302    -2.080982184640     1.007825032230
         H            0.415466651819    -1.462431119302    -0.802798184640     1.007825032230
         H           -0.133421348181    -2.174369119302    -2.321771184640     1.007825032230
         C            1.354766651819     0.902749880698    -1.831936184640    12.000000000000
         H            2.380891651819     0.589755880698    -2.030351184640     1.007825032230
         H            1.220278651819     0.950288880698    -0.750375184640     1.007825032230
         H            1.224870651819     1.909337880698    -2.232134184640     1.007825032230
         C            0.578458651819    -0.106719119302    -3.974182184640    12.000000000000
         H            0.435709651819     0.881353880698    -4.413983184640     1.007825032230
         H            1.590191651819    -0.439144119302    -4.210757184640     1.007825032230
         H           -0.123033348181    -0.793235119302    -4.450306184640     1.007825032230
         C           -0.359021348181     0.066330880698     2.464220815360    12.000000000000
         C            1.063790651819    -0.402635119302     2.170820815360    12.000000000000
         H            1.248229651819    -0.441965119302     1.096300815360     1.007825032230
         H            1.795224651819     0.275036880698     2.613556815360     1.007825032230
         H            1.236054651819    -1.399641119302     2.578941815360     1.007825032230
         C           -0.565418348181     1.462891880698     1.883389815360    12.000000000000
         H           -1.577381348181     1.819877880698     2.080237815360     1.007825032230
         H            0.135500651819     2.173963880698     2.323111815360     1.007825032230
         H           -0.412309348181     1.463088880698     0.803247815360     1.007825032230
         C           -0.579316348181     0.106506880698     3.974073815360    12.000000000000
         H           -1.590532348181     0.440783880698     4.210146815360     1.007825032230
         H            0.123196651819     0.791455880698     4.450911815360     1.007825032230
         H           -0.438753348181    -0.882014119302     4.413525815360     1.007825032230
         C           -1.355484348181    -0.901447119302     1.831073815360    12.000000000000
         H           -1.226558348181    -1.908422119302     2.230652815360     1.007825032230
         H           -2.381373348181    -0.587674119302     2.029461815360     1.007825032230
         H           -1.220780348181    -0.948421119302     0.749497815360     1.007825032230

  Charge       = 0
  Multiplicity = 1
  Basis Set: AUG-CC-PVQZ
    Blend: AUG-CC-PVQZ
  Basis Set: (AUG-CC-PVQZ AUX)
    Blend: AUG-CC-PVQZ-JKFIT

    Orbital Energies [Eh]
    ---------------------

    Doubly Occupied:

       1A    -11.225975     2A    -11.225975     3A    -11.204547
       4A    -11.204546     5A    -11.204545     6A    -11.204544
       7A    -11.204523     8A    -11.204520     9A    -11.204462
      10A    -11.204457    11A     -1.107588    12A     -1.105905
      13A     -0.930809    14A     -0.930803    15A     -0.930510
      16A     -0.927839    17A     -0.927837    18A     -0.927452
      19A     -0.733652    20A     -0.727798    21A     -0.622802
      22A     -0.612753    23A     -0.612747    24A     -0.612526
      25A     -0.612521    26A     -0.603008    27A     -0.559964
      28A     -0.559950    29A     -0.548718    30A     -0.548713
      31A     -0.514069    32A     -0.514055    33A     -0.510240
      34A     -0.509454    35A     -0.505193    36A     -0.505176
      37A     -0.464025    38A     -0.453530    39A     -0.453526
      40A     -0.452258    41A     -0.452255    42A     -0.440291

  @DF-RHF Final Energy:  -392.82722200861065

   => Energetics <=

    Nuclear Repulsion Energy =            582.0600562515735419
    One-Electron Energy =               -1683.7624525218029703
    Two-Electron Energy =                 708.8751742616187812
    Total Energy =                       -392.8272220086106472

  Dipole Moment: [D]
     X:    -0.0000      Y:     0.0000      Z:     0.0001     Total:     0.0001

  Basis Set: (AUG-CC-PVQZ AUX)
    Blend: AUG-CC-PVQZ-RI
	 Reference Energy          =    -392.8272220086106472 [Eh]
	 Singles Energy            =      -0.0000000000000000 [Eh]
	 Same-Spin Energy          =      -0.4509373716647618 [Eh]
	 Opposite-Spin Energy      =      -1.7707402127709879 [Eh]
	 Correlation Energy        =      -2.2216775844357497 [Eh]
	 Total Energy              =    -395.0488995930463716 [Eh]

	 ================> DF-SCS-MP2 Energies <==================
	-----------------------------------------------------------
	 SCS Same-Spin Scale       =       0.3333333333333333 [-]
	 SCS Opposite-Spin Scale   =       1.2000000000000000 [-]
	 SCS Same-Spin Energy      =      -0.1503124572215873 [Eh]
	 SCS Opposite-Spin Energy  =      -2.1248882553251853 [Eh]
	 SCS Correlation Energy    =      -2.2752007125467726 [Eh]
	 SCS Total Energy          =    -395.1024227211574384 [Eh]
	-----------------------------------------------------------

*** Psi4 exiting successfully. Buy a developer a beer!
