                               Psi4 1.4a2.dev224

  ==> Input File <==

--------------------------------------------------------------------------
#Generated by lconvert.py for cbs job

memory 40 GB

molecule  {
0 1
  C        0.3825220    -0.0706070     0.7668960
  C       -1.0406390     0.3968110     1.0609360
  H       -1.7715750    -0.2815000     0.6183300
  H       -1.2247180     0.4357350     2.1355190
  H       -1.2140660     1.3937240     0.6530910
  C        0.5908470    -1.4668180     1.3479780
  H        1.6029140    -1.8229500     1.1501030
  H        0.4389690    -1.4667460     2.4282870
  H       -0.1099190    -2.1786840     0.9093140
  C        1.3782690     0.8984350     1.3991490
  H        2.4043940     0.5854410     1.2007340
  H        1.2437810     0.9459740     2.4807100
  H        1.2483730     1.9050230     0.9989510
  C        0.6019610    -0.1110340    -0.7430970
  H        0.4592120     0.8770390    -1.1828980
  H        1.6136940    -0.4434590    -0.9796720
  H       -0.0995310    -0.7975500    -1.2192210
--
0 1
  C       -0.2279100     0.0421380     4.9566980
  C        1.1949020    -0.4268280     4.6632980
  H        1.3793420    -0.4661570     3.5887780
  H        1.9263370     0.2508450     5.1060340
  H        1.3671660    -1.4238340     5.0714190
  C       -0.4343070     1.4387000     4.3758680
  H       -1.4462700     1.7956850     4.5727150
  H        0.2666120     2.1497710     4.8155890
  H       -0.2811980     1.4388970     3.2957250
  C       -0.4482050     0.0823150     6.4665520
  H       -1.4594210     0.4165920     6.7026250
  H        0.2543080     0.7672640     6.9433900
  H       -0.3076410    -0.9062060     6.9060030
  C       -1.2243730    -0.9256390     4.3235520
  H       -1.0954470    -1.9326150     4.7231310
  H       -2.2502620    -0.6118660     4.5219390
  H       -1.0896680    -0.9726140     3.2419750
units angstrom
no_reorient
symmetry c1
}

set {
scf_type DF
mp2_type DF
e_convergence 7
reference rhf
}

energy('mp2/aug-cc-pv[tq]z', bsse_type='cp')
--------------------------------------------------------------------------

    Molecular point group: c1
  Charge       = 0
  Multiplicity = 1
  Basis Set: AUG-CC-PVTZ
    Blend: AUG-CC-PVTZ
  Basis Set: (AUG-CC-PVTZ AUX)
    Blend: AUG-CC-PVTZ-JKFIT
  @DF-RHF Final Energy:  -196.40455999554203
    Total Energy =                       -196.4045599955420585
  Basis Set: (AUG-CC-PVTZ AUX)
    Blend: AUG-CC-PVTZ-RI
	 Reference Energy          =    -196.4045599955420300 [Eh]
	 Singles Energy            =      -0.0000000000000000 [Eh]
	 Same-Spin Energy          =      -0.2117373218242749 [Eh]
	 Opposite-Spin Energy      =      -0.7978209441707154 [Eh]
	 Correlation Energy        =      -1.0095582659949902 [Eh]
	 Total Energy              =    -197.4141182615370269 [Eh]
	 SCS Total Energy          =    -197.4325242358216599 [Eh]
    Molecular point group: c1
  Basis Set: AUG-CC-PVQZ
    Blend: AUG-CC-PVQZ
  Basis Set: (AUG-CC-PVQZ AUX)
    Blend: AUG-CC-PVQZ-JKFIT
  @DF-RHF Final Energy:  -196.41640695577422
    Total Energy =                       -196.4164069557742209
  Basis Set: (AUG-CC-PVQZ AUX)
  @DF-RHF Final Energy:  -196.40467549413970
    Total Energy =                       -196.4046754941397239
  @DF-RHF Final Energy:  -196.41643669191276
    Total Energy =                       -196.4164366919127360
  @DF-RHF Final Energy:  -196.40467552546363
    Total Energy =                       -196.4046755254636309
  @DF-RHF Final Energy:  -196.41643671868474
    Total Energy =                       -196.4164367186847358
  @DF-RHF Final Energy:  -196.40456002463341
    Total Energy =                       -196.4045600246334402
  @DF-RHF Final Energy:  -196.41640698480856
    Total Energy =                       -196.4164069848085319
  Multiplicity = 1
  @DF-RHF Final Energy:  -392.77204553393148
    Total Energy =                       -392.7720455339315322
	 Singles Energy            =      -0.0000000000000000 [Eh]
	 Same-Spin Energy          =      -0.4347264007703807 [Eh]
	 Opposite-Spin Energy      =      -1.6134210946840739 [Eh]
	 Correlation Energy        =      -2.0481474954544545 [Eh]
	 Total Energy              =    -394.8201930293859050 [Eh]
	 SCS Total Energy          =    -394.8530596478091752 [Eh]
    Molecular point group: c1

    Geometry (in Angstrom), charge = 0, multiplicity = 1:

       Center              X                  Y                   Z               Mass
    ------------   -----------------  -----------------  -----------------  -----------------
         C            0.305215123860    -0.056353417904    -2.094885455283    12.000000000000
         C           -1.117945876140     0.411064582096    -1.800845455283    12.000000000000
         H           -1.848881876140    -0.267246417904    -2.243451455283     1.007825032230
         H           -1.302024876140     0.449988582096    -0.726262455283     1.007825032230
         H           -1.291372876140     1.407977582096    -2.208690455283     1.007825032230
         C            0.513540123860    -1.452564417904    -1.513803455283    12.000000000000
         H            1.525607123860    -1.808696417904    -1.711678455283     1.007825032230
         H            0.361662123860    -1.452492417904    -0.433494455283     1.007825032230
         H           -0.187225876140    -2.164430417904    -1.952467455283     1.007825032230
         C            1.300962123860     0.912688582096    -1.462632455283    12.000000000000
         H            2.327087123860     0.599694582096    -1.661047455283     1.007825032230
         H            1.166474123860     0.960227582096    -0.381071455283     1.007825032230
         H            1.171066123860     1.919276582096    -1.862830455283     1.007825032230
         C            0.524654123860    -0.096780417904    -3.604878455283    12.000000000000
         H            0.381905123860     0.891292582096    -4.044679455283     1.007825032230
         H            1.536387123860    -0.429205417904    -3.841453455283     1.007825032230
         H           -0.176837876140    -0.783296417904    -4.081002455283     1.007825032230
         C           -0.305216876140     0.056391582096     2.094916544717    12.000000000000
         C            1.117595123860    -0.412574417904     1.801516544717    12.000000000000
         H            1.302035123860    -0.451903417904     0.726996544717     1.007825032230
         H            1.849030123860     0.265098582096     2.244252544717     1.007825032230
         H            1.289859123860    -1.409580417904     2.209637544717     1.007825032230
         C           -0.511613876140     1.452953582096     1.514086544717    12.000000000000
         H           -1.523576876140     1.809938582096     1.710933544717     1.007825032230
         H            0.189305123860     2.164024582096     1.953807544717     1.007825032230
         H           -0.358504876140     1.453150582096     0.433943544717     1.007825032230
         C           -0.525511876140     0.096568582096     3.604770544717    12.000000000000
         H           -1.536727876140     0.430845582096     3.840843544717     1.007825032230
         H            0.177001123860     0.781517582096     4.081608544717     1.007825032230
         H           -0.384947876140    -0.891952417904     4.044221544717     1.007825032230
         C           -1.301679876140    -0.911385417904     1.461770544717    12.000000000000
         H           -1.172753876140    -1.918361417904     1.861349544717     1.007825032230
         H           -2.327568876140    -0.597612417904     1.660157544717     1.007825032230
         H           -1.166974876140    -0.958360417904     0.380193544717     1.007825032230

  Charge       = 0
  Multiplicity = 1
  Basis Set: AUG-CC-PVQZ
    Blend: AUG-CC-PVQZ
  Basis Set: (AUG-CC-PVQZ AUX)
    Blend: AUG-CC-PVQZ-JKFIT

    Orbital Energies [Eh]
    ---------------------

    Doubly Occupied:

       1A    -11.225756     2A    -11.225756     3A    -11.203644
       4A    -11.203638     5A    -11.201706     6A    -11.201704
       7A    -11.201699     8A    -11.201696     9A    -11.201676
      10A    -11.201669    11A     -1.111665    12A     -1.103415
      13A     -0.936891    14A     -0.936872    15A     -0.935787
      16A     -0.923916    17A     -0.923907    18A     -0.923653
      19A     -0.741154    20A     -0.723243    21A     -0.641195
      22A     -0.615801    23A     -0.615786    24A     -0.611757
      25A     -0.611733    26A     -0.586951    27A     -0.576321
      28A     -0.576292    29A     -0.541435    30A     -0.541429
      31A     -0.516708    32A     -0.516682    33A     -0.511497
      34A     -0.507625    35A     -0.496223    36A     -0.496160
      37A     -0.471662    38A     -0.454143    39A     -0.454139
      40A     -0.450120    41A     -0.450117    42A     -0.421742

  @DF-RHF Final Energy:  -392.79563106997273

   => Energetics <=

    Nuclear Repulsion Energy =            611.7682954432056022
    One-Electron Energy =               -1743.1379624290116226
    Two-Electron Energy =                 738.5740359158331785
    Total Energy =                       -392.7956310699727283

  Dipole Moment: [D]
     X:     0.0001      Y:     0.0001      Z:     0.0001     Total:     0.0001

  Basis Set: (AUG-CC-PVQZ AUX)
    Blend: AUG-CC-PVQZ-RI
	 Reference Energy          =    -392.7956310699727283 [Eh]
	 Singles Energy            =      -0.0000000000000000 [Eh]
	 Same-Spin Energy          =      -0.4579499894037883 [Eh]
	 Opposite-Spin Energy      =      -1.7796042085475614 [Eh]
	 Correlation Energy        =      -2.2375541979513498 [Eh]
	 Total Energy              =    -395.0331852679240683 [Eh]

	 ================> DF-SCS-MP2 Energies <==================
	-----------------------------------------------------------
	 SCS Same-Spin Scale       =       0.3333333333333333 [-]
	 SCS Opposite-Spin Scale   =       1.2000000000000000 [-]
	 SCS Same-Spin Energy      =      -0.1526499964679294 [Eh]
	 SCS Opposite-Spin Energy  =      -2.1355250502570735 [Eh]
	 SCS Correlation Energy    =      -2.2881750467250028 [Eh]
	 SCS Total Energy          =    -395.0838061166977582 [Eh]
	-----------------------------------------------------------

*** Psi4 exiting successfully. Buy a developer a beer!
