                               Psi4 1.4a2.dev224

  ==> Input File <==

--------------------------------------------------------------------------
#Generated by lconvert.py for cbs job

memory 20 GB

molecule  {
0 1
  C       0.382520   -0.070610    0.766900
  C      -1.040640    0.396810    1.060940
  H      -1.771570   -0.281500    0.618330
  H      -1.224720    0.435730    2.135520
  H      -1.214070    1.393720    0.653090
  C       0.590850   -1.466820    1.347980
  H       1.602910   -1.822950    1.150100
  H       0.438970   -1.466750    2.428290
  H      -0.109920   -2.178680    0.909310
  C       1.378270    0.898430    1.399150
  H       2.404390    0.585440    1.200730
  H       1.243780    0.945970    2.480710
  H       1.248370    1.905020    0.998950
  C       0.601960   -0.111030   -0.743100
  H       0.459210    0.877040   -1.182900
  H       1.613690   -0.443460   -0.979670
  H      -0.099530   -0.797550   -1.219220
--
0 1
  C      -0.886130    0.163720    9.474580
  C       0.536680   -0.305240    9.181180
  H       0.721120   -0.344570    8.106660
  H       1.268120    0.372430    9.623920
  H       0.708950   -1.302250    9.589300
  C      -1.092530    1.560280    8.893750
  H      -2.104490    1.917270    9.090600
  H      -0.391610    2.271360    9.333470
  H      -0.939420    1.560480    7.813610
  C      -1.106420    0.203900   10.984430
  H      -2.117640    0.538180   11.220510
  H      -0.403910    0.888850   11.461270
  H      -0.965860   -0.784620   11.423890
  C      -1.882590   -0.804050    8.841440
  H      -1.753670   -1.811030    9.241010
  H      -2.908480   -0.490280    9.039820
  H      -1.747890   -0.851030    7.759860
units angstrom
no_reorient
symmetry c1
}

set {
scf_type DF
mp2_type DF
e_convergence 7
reference rhf
}

energy('mp2/aug-cc-pv[tq]z', bsse_type='cp')
--------------------------------------------------------------------------

    Molecular point group: c1
  Charge       = 0
  Multiplicity = 1
  Basis Set: AUG-CC-PVTZ
    Blend: AUG-CC-PVTZ
  Basis Set: (AUG-CC-PVTZ AUX)
    Blend: AUG-CC-PVTZ-JKFIT
  @DF-RHF Final Energy:  -196.40455981165164
    Total Energy =                       -196.4045598116516658
  Basis Set: (AUG-CC-PVTZ AUX)
    Blend: AUG-CC-PVTZ-RI
	 Reference Energy          =    -196.4045598116516373 [Eh]
	 Singles Energy            =      -0.0000000000000000 [Eh]
	 Same-Spin Energy          =      -0.2117374551003110 [Eh]
	 Opposite-Spin Energy      =      -0.7978210595180421 [Eh]
	 Correlation Energy        =      -1.0095585146183530 [Eh]
	 Total Energy              =    -197.4141183262699997 [Eh]
	 SCS Total Energy          =    -197.4325242347733820 [Eh]
    Molecular point group: c1
  Basis Set: AUG-CC-PVQZ
    Blend: AUG-CC-PVQZ
  Basis Set: (AUG-CC-PVQZ AUX)
    Blend: AUG-CC-PVQZ-JKFIT
  @DF-RHF Final Energy:  -196.41640677154010
    Total Energy =                       -196.4164067715400961
  Basis Set: (AUG-CC-PVQZ AUX)
  @DF-RHF Final Energy:  -196.40456192357291
    Total Energy =                       -196.4045619235728850
  @DF-RHF Final Energy:  -196.41640798544233
    Total Energy =                       -196.4164079854423335
  @DF-RHF Final Energy:  -196.40456227992775
    Total Energy =                       -196.4045622799277453
  @DF-RHF Final Energy:  -196.41640834896955
    Total Energy =                       -196.4164083489695258
  @DF-RHF Final Energy:  -196.40456016724193
    Total Energy =                       -196.4045601672419252
  @DF-RHF Final Energy:  -196.41640713490571
    Total Energy =                       -196.4164071349056826
  Multiplicity = 1
  @DF-RHF Final Energy:  -392.80911613517952
    Total Energy =                       -392.8091161351794653
	 Singles Energy            =      -0.0000000000000000 [Eh]
	 Same-Spin Energy          =      -0.4235608023783932 [Eh]
	 Opposite-Spin Energy      =      -1.5958499457988122 [Eh]
	 Correlation Energy        =      -2.0194107481772052 [Eh]
	 Total Energy              =    -394.8285268833567443 [Eh]
	 SCS Total Energy          =    -394.8653230042642122 [Eh]
    Molecular point group: c1

    Geometry (in Angstrom), charge = 0, multiplicity = 1:

       Center              X                  Y                   Z               Mass
    ------------   -----------------  -----------------  -----------------  -----------------
         C            0.634322986021    -0.117148189198    -4.353823322479    12.000000000000
         C           -0.788837013979     0.350271810802    -4.059783322479    12.000000000000
         H           -1.519767013979    -0.328038189198    -4.502393322479     1.007825032230
         H           -0.972917013979     0.389191810802    -2.985203322479     1.007825032230
         H           -0.962267013979     1.347181810802    -4.467633322479     1.007825032230
         C            0.842652986021    -1.513358189198    -3.772743322479    12.000000000000
         H            1.854712986021    -1.869488189198    -3.970623322479     1.007825032230
         H            0.690772986021    -1.513288189198    -2.692433322479     1.007825032230
         H            0.141882986021    -2.225218189198    -4.211413322479     1.007825032230
         C            1.630072986021     0.851891810802    -3.721573322479    12.000000000000
         H            2.656192986021     0.538901810802    -3.919993322479     1.007825032230
         H            1.495582986021     0.899431810802    -2.640013322479     1.007825032230
         H            1.500172986021     1.858481810802    -4.121773322479     1.007825032230
         C            0.853762986021    -0.157568189198    -5.863823322479    12.000000000000
         H            0.711012986021     0.830501810802    -6.303623322479     1.007825032230
         H            1.865492986021    -0.489998189198    -6.100393322479     1.007825032230
         H            0.152272986021    -0.844088189198    -6.339943322479     1.007825032230
         C           -0.634327013979     0.117181810802     4.353856677521    12.000000000000
         C            0.788482986021    -0.351778189198     4.060456677521    12.000000000000
         H            0.972922986021    -0.391108189198     2.985936677521     1.007825032230
         H            1.519922986021     0.325891810802     4.503196677521     1.007825032230
         H            0.960752986021    -1.348788189198     4.468576677521     1.007825032230
         C           -0.840727013979     1.513741810802     3.773026677521    12.000000000000
         H           -1.852687013979     1.870731810802     3.969876677521     1.007825032230
         H           -0.139807013979     2.224821810802     4.212746677521     1.007825032230
         H           -0.687617013979     1.513941810802     2.692886677521     1.007825032230
         C           -0.854617013979     0.157361810802     5.863706677521    12.000000000000
         H           -1.865837013979     0.491641810802     6.099786677521     1.007825032230
         H           -0.152107013979     0.842311810802     6.340546677521     1.007825032230
         H           -0.714057013979    -0.831158189198     6.303166677521     1.007825032230
         C           -1.630787013979    -0.850588189198     3.720716677521    12.000000000000
         H           -1.501867013979    -1.857568189198     4.120286677521     1.007825032230
         H           -2.656677013979    -0.536818189198     3.919096677521     1.007825032230
         H           -1.496087013979    -0.897568189198     2.639136677521     1.007825032230

  Charge       = 0
  Multiplicity = 1
  Basis Set: AUG-CC-PVQZ
    Blend: AUG-CC-PVQZ
  Basis Set: (AUG-CC-PVQZ AUX)
    Blend: AUG-CC-PVQZ-JKFIT

    Orbital Energies [Eh]
    ---------------------

    Doubly Occupied:

       1A    -11.225861     2A    -11.225860     3A    -11.204742
       4A    -11.204741     5A    -11.204740     6A    -11.204738
       7A    -11.204715     8A    -11.204713     9A    -11.204630
      10A    -11.204625    11A     -1.106373    12A     -1.106370
      13A     -0.928803    14A     -0.928798    15A     -0.928797
      16A     -0.928795    17A     -0.928672    18A     -0.928664
      19A     -0.730120    20A     -0.730114    21A     -0.612193
      22A     -0.612191    23A     -0.612190    24A     -0.612188
      25A     -0.611796    26A     -0.611771    27A     -0.553137
      28A     -0.553131    29A     -0.553127    30A     -0.553120
      31A     -0.509631    32A     -0.509629    33A     -0.509523
      34A     -0.509519    35A     -0.509508    36A     -0.509505
      37A     -0.452790    38A     -0.452782    39A     -0.452776
      40A     -0.452775    41A     -0.452732    42A     -0.452640

  @DF-RHF Final Energy:  -392.83280807890225

   => Energetics <=

    Nuclear Repulsion Energy =            504.2804310560055114
    One-Electron Energy =               -1528.2394777168360633
    Two-Electron Energy =                 631.1262385819283054
    Total Energy =                       -392.8328080789023034

  Dipole Moment: [D]
     X:    -0.0000      Y:     0.0000      Z:     0.0001     Total:     0.0001

  Basis Set: (AUG-CC-PVQZ AUX)
    Blend: AUG-CC-PVQZ-RI
	 Reference Energy          =    -392.8328080789022465 [Eh]
	 Singles Energy            =      -0.0000000000000000 [Eh]
	 Same-Spin Energy          =      -0.4470914976047124 [Eh]
	 Opposite-Spin Energy      =      -1.7656008707468587 [Eh]
	 Correlation Energy        =      -2.2126923683515711 [Eh]
	 Total Energy              =    -395.0455004472538008 [Eh]

	 ================> DF-SCS-MP2 Energies <==================
	-----------------------------------------------------------
	 SCS Same-Spin Scale       =       0.3333333333333333 [-]
	 SCS Opposite-Spin Scale   =       1.2000000000000000 [-]
	 SCS Same-Spin Energy      =      -0.1490304992015708 [Eh]
	 SCS Opposite-Spin Energy  =      -2.1187210448962301 [Eh]
	 SCS Correlation Energy    =      -2.2677515440978011 [Eh]
	 SCS Total Energy          =    -395.1005596230000378 [Eh]
	-----------------------------------------------------------

*** Psi4 exiting successfully. Buy a developer a beer!
