                               Psi4 1.4a2.dev224

  ==> Input File <==

--------------------------------------------------------------------------
#Generated by lconvert.py for cbs job

memory 30 GB

molecule  {
0 1
  C        0.3825220    -0.0706070     0.7668960
  C       -1.0406390     0.3968110     1.0609360
  H       -1.7715750    -0.2815000     0.6183300
  H       -1.2247180     0.4357350     2.1355190
  H       -1.2140660     1.3937240     0.6530910
  C        0.5908470    -1.4668180     1.3479780
  H        1.6029140    -1.8229500     1.1501030
  H        0.4389690    -1.4667460     2.4282870
  H       -0.1099190    -2.1786840     0.9093140
  C        1.3782690     0.8984350     1.3991490
  H        2.4043940     0.5854410     1.2007340
  H        1.2437810     0.9459740     2.4807100
  H        1.2483730     1.9050230     0.9989510
  C        0.6019610    -0.1110340    -0.7430970
  H        0.4592120     0.8770390    -1.1828980
  H        1.6136940    -0.4434590    -0.9796720
  H       -0.0995310    -0.7975500    -1.2192210
--
0 1
  C       -0.4041380     0.0746910     6.1662900
  C        1.0186750    -0.3942750     5.8728900
  H        1.2031140    -0.4336050     4.7983700
  H        1.7501090     0.2833970     6.3156260
  H        1.1909380    -1.3912810     6.2810110
  C       -0.6105350     1.4712520     5.5854590
  H       -1.6224980     1.8282380     5.7823070
  H        0.0903840     2.1823240     6.0251810
  H       -0.4574260     1.4714490     4.5053170
  C       -0.6244320     0.1148670     7.6761430
  H       -1.6356490     0.4491440     7.9122170
  H        0.0780800     0.7998160     8.1529820
  H       -0.4838690    -0.8736530     8.1155950
  C       -1.4006010    -0.8930870     5.5331430
  H       -1.2716750    -1.9000620     5.9327220
  H       -2.4264900    -0.5793140     5.7315310
  H       -1.2658960    -0.9400610     4.4515670
units angstrom
no_reorient
symmetry c1
}

set {
scf_type DF
mp2_type DF
e_convergence 7
reference rhf
}

energy('mp2/aug-cc-pv[tq]z', bsse_type='cp')
--------------------------------------------------------------------------

    Molecular point group: c1
  Charge       = 0
  Multiplicity = 1
  Basis Set: AUG-CC-PVTZ
    Blend: AUG-CC-PVTZ
  Basis Set: (AUG-CC-PVTZ AUX)
    Blend: AUG-CC-PVTZ-JKFIT
  @DF-RHF Final Energy:  -196.40456001998734
    Total Energy =                       -196.4045600199873434
  Basis Set: (AUG-CC-PVTZ AUX)
    Blend: AUG-CC-PVTZ-RI
	 Reference Energy          =    -196.4045600199873434 [Eh]
	 Singles Energy            =      -0.0000000000000000 [Eh]
	 Same-Spin Energy          =      -0.2117373178255381 [Eh]
	 Opposite-Spin Energy      =      -0.7978209252855275 [Eh]
	 Correlation Energy        =      -1.0095582431110657 [Eh]
	 Total Energy              =    -197.4141182630984019 [Eh]
	 SCS Total Energy          =    -197.4325242362718313 [Eh]
    Molecular point group: c1
  Basis Set: AUG-CC-PVQZ
    Blend: AUG-CC-PVQZ
  Basis Set: (AUG-CC-PVQZ AUX)
    Blend: AUG-CC-PVQZ-JKFIT
  @DF-RHF Final Energy:  -196.41640698453685
    Total Energy =                       -196.4164069845368203
  Basis Set: (AUG-CC-PVQZ AUX)
  @DF-RHF Final Energy:  -196.40459518890194
    Total Energy =                       -196.4045951889019079
  @DF-RHF Final Energy:  -196.41641832777290
    Total Energy =                       -196.4164183277729308
  @DF-RHF Final Energy:  -196.40459519551143
    Total Energy =                       -196.4045951955114333
  @DF-RHF Final Energy:  -196.41641833094806
    Total Energy =                       -196.4164183309480904
  @DF-RHF Final Energy:  -196.40456002417727
    Total Energy =                       -196.4045600241772718
  @DF-RHF Final Energy:  -196.41640698555952
    Total Energy =                       -196.4164069855594903
  Multiplicity = 1
  @DF-RHF Final Energy:  -392.80765827254788
    Total Energy =                       -392.8076582725478829
	 Singles Energy            =      -0.0000000000000000 [Eh]
	 Same-Spin Energy          =      -0.4257384752473484 [Eh]
	 Opposite-Spin Energy      =      -1.6002839235377113 [Eh]
	 Correlation Energy        =      -2.0260223987850599 [Eh]
	 Total Energy              =    -394.8336806713329565 [Eh]
	 SCS Total Energy          =    -394.8699118058755744 [Eh]
    Molecular point group: c1

    Geometry (in Angstrom), charge = 0, multiplicity = 1:

       Center              X                  Y                   Z               Mass
    ------------   -----------------  -----------------  -----------------  -----------------
         C            0.393328957411    -0.072629626291    -2.699681198619    12.000000000000
         C           -1.029832042589     0.394788373709    -2.405641198619    12.000000000000
         H           -1.760768042589    -0.283522626291    -2.848247198619     1.007825032230
         H           -1.213911042589     0.433712373709    -1.331058198619     1.007825032230
         H           -1.203259042589     1.391701373709    -2.813486198619     1.007825032230
         C            0.601653957411    -1.468840626291    -2.118599198619    12.000000000000
         H            1.613720957411    -1.824972626291    -2.316474198619     1.007825032230
         H            0.449775957411    -1.468768626291    -1.038290198619     1.007825032230
         H           -0.099112042589    -2.180706626291    -2.557263198619     1.007825032230
         C            1.389075957411     0.896412373709    -2.067428198619    12.000000000000
         H            2.415200957411     0.583418373709    -2.265843198619     1.007825032230
         H            1.254587957411     0.943951373709    -0.985867198619     1.007825032230
         H            1.259179957411     1.903000373709    -2.467626198619     1.007825032230
         C            0.612767957411    -0.113056626291    -4.209674198619    12.000000000000
         H            0.470018957411     0.875016373709    -4.649475198619     1.007825032230
         H            1.624500957411    -0.445481626291    -4.446249198619     1.007825032230
         H           -0.088724042589    -0.799572626291    -4.685798198619     1.007825032230
         C           -0.393331042589     0.072668373709     2.699712801381    12.000000000000
         C            1.029481957411    -0.396297626291     2.406312801381    12.000000000000
         H            1.213920957411    -0.435627626291     1.331792801381     1.007825032230
         H            1.760915957411     0.281374373709     2.849048801381     1.007825032230
         H            1.201744957411    -1.393303626291     2.814433801381     1.007825032230
         C           -0.599728042589     1.469229373709     2.118881801381    12.000000000000
         H           -1.611691042589     1.826215373709     2.315729801381     1.007825032230
         H            0.101190957411     2.180301373709     2.558603801381     1.007825032230
         H           -0.446619042589     1.469426373709     1.038739801381     1.007825032230
         C           -0.613625042589     0.112844373709     4.209565801381    12.000000000000
         H           -1.624842042589     0.447121373709     4.445639801381     1.007825032230
         H            0.088886957411     0.797793373709     4.686404801381     1.007825032230
         H           -0.473062042589    -0.875675626291     4.649017801381     1.007825032230
         C           -1.389794042589    -0.895109626291     2.066565801381    12.000000000000
         H           -1.260868042589    -1.902084626291     2.466144801381     1.007825032230
         H           -2.415683042589    -0.581336626291     2.264953801381     1.007825032230
         H           -1.255089042589    -0.942083626291     0.984989801381     1.007825032230

  Charge       = 0
  Multiplicity = 1
  Basis Set: AUG-CC-PVQZ
    Blend: AUG-CC-PVQZ
  Basis Set: (AUG-CC-PVQZ AUX)
    Blend: AUG-CC-PVQZ-JKFIT

    Orbital Energies [Eh]
    ---------------------

    Doubly Occupied:

       1A    -11.226112     2A    -11.226112     3A    -11.204991
       4A    -11.204991     5A    -11.204990     6A    -11.204989
       7A    -11.204963     8A    -11.204961     9A    -11.204734
      10A    -11.204728    11A     -1.107030    12A     -1.106439
      13A     -0.929779    14A     -0.929775    15A     -0.929564
      16A     -0.928672    17A     -0.928670    18A     -0.928362
      19A     -0.731872    20A     -0.729197    21A     -0.617195
      22A     -0.612609    23A     -0.612607    24A     -0.612499
      25A     -0.612495    26A     -0.607753    27A     -0.556229
      28A     -0.556219    29A     -0.551209    30A     -0.551203
      31A     -0.512158    32A     -0.512150    33A     -0.510078
      34A     -0.509795    35A     -0.507607    36A     -0.507599
      37A     -0.459570    38A     -0.453363    39A     -0.453360
      40A     -0.452746    41A     -0.452743    42A     -0.446212

  @DF-RHF Final Energy:  -392.83130651221705

   => Energetics <=

    Nuclear Repulsion Energy =            566.8712217107828337
    One-Electron Energy =               -1653.3884100105749440
    Two-Electron Energy =                 693.6858817875748855
    Total Energy =                       -392.8313065122171110

  Dipole Moment: [D]
     X:    -0.0000      Y:     0.0000      Z:     0.0001     Total:     0.0001

  Basis Set: (AUG-CC-PVQZ AUX)
    Blend: AUG-CC-PVQZ-RI
	 Reference Energy          =    -392.8313065122170542 [Eh]
	 Singles Energy            =      -0.0000000000000000 [Eh]
	 Same-Spin Energy          =      -0.4491043972538311 [Eh]
	 Opposite-Spin Energy      =      -1.7683736504799685 [Eh]
	 Correlation Energy        =      -2.2174780477337999 [Eh]
	 Total Energy              =    -395.0487845599508319 [Eh]

	 ================> DF-SCS-MP2 Energies <==================
	-----------------------------------------------------------
	 SCS Same-Spin Scale       =       0.3333333333333333 [-]
	 SCS Opposite-Spin Scale   =       1.2000000000000000 [-]
	 SCS Same-Spin Energy      =      -0.1497014657512770 [Eh]
	 SCS Opposite-Spin Energy  =      -2.1220483805759622 [Eh]
	 SCS Correlation Energy    =      -2.2717498463272392 [Eh]
	 SCS Total Energy          =    -395.1030563585442792 [Eh]
	-----------------------------------------------------------

*** Psi4 exiting successfully. Buy a developer a beer!
