                               Psi4 1.4a2.dev224

  ==> Input File <==

--------------------------------------------------------------------------
#Generated by lconvert.py for cbs job

memory 30 GB

molecule  {
0 1
  C        0.3825220    -0.0706070     0.7668960
  C       -1.0406390     0.3968110     1.0609360
  H       -1.7715750    -0.2815000     0.6183300
  H       -1.2247180     0.4357350     2.1355190
  H       -1.2140660     1.3937240     0.6530910
  C        0.5908470    -1.4668180     1.3479780
  H        1.6029140    -1.8229500     1.1501030
  H        0.4389690    -1.4667460     2.4282870
  H       -0.1099190    -2.1786840     0.9093140
  C        1.3782690     0.8984350     1.3991490
  H        2.4043940     0.5854410     1.2007340
  H        1.2437810     0.9459740     2.4807100
  H        1.2483730     1.9050230     0.9989510
  C        0.6019610    -0.1110340    -0.7430970
  H        0.4592120     0.8770390    -1.1828980
  H        1.6136940    -0.4434590    -0.9796720
  H       -0.0995310    -0.7975500    -1.2192210
--
0 1
  C       -0.4259690     0.0787230     6.3161340
  C        0.9968430    -0.3902430     6.0227340
  H        1.1812830    -0.4295720     4.9482140
  H        1.7282780     0.2874300     6.4654700
  H        1.1691070    -1.3872490     6.4308550
  C       -0.6323660     1.4752850     5.7353030
  H       -1.6443290     1.8322700     5.9321510
  H        0.0685530     2.1863560     6.1750250
  H       -0.4792570     1.4754810     4.6551610
  C       -0.6462630     0.1188990     7.8259870
  H       -1.6574800     0.4531760     8.0620610
  H        0.0562490     0.8038480     8.3028260
  H       -0.5057000    -0.8696210     8.2654390
  C       -1.4224320    -0.8890540     5.6829870
  H       -1.2935060    -1.8960300     6.0825660
  H       -2.4483210    -0.5752820     5.8813750
  H       -1.2877270    -0.9360290     4.6014110
units angstrom
no_reorient
symmetry c1
}

set {
scf_type DF
mp2_type DF
e_convergence 7
reference rhf
}

energy('mp2/aug-cc-pv[tq]z', bsse_type='cp')
--------------------------------------------------------------------------

    Molecular point group: c1
  Charge       = 0
  Multiplicity = 1
  Basis Set: AUG-CC-PVTZ
    Blend: AUG-CC-PVTZ
  Basis Set: (AUG-CC-PVTZ AUX)
    Blend: AUG-CC-PVTZ-JKFIT
  @DF-RHF Final Energy:  -196.40456000625372
    Total Energy =                       -196.4045600062536892
  Basis Set: (AUG-CC-PVTZ AUX)
    Blend: AUG-CC-PVTZ-RI
	 Reference Energy          =    -196.4045600062537176 [Eh]
	 Singles Energy            =      -0.0000000000000000 [Eh]
	 Same-Spin Energy          =      -0.2117373238519590 [Eh]
	 Opposite-Spin Energy      =      -0.7978209356426151 [Eh]
	 Correlation Energy        =      -1.0095582594945742 [Eh]
	 Total Energy              =    -197.4141182657483000 [Eh]
	 SCS Total Energy          =    -197.4325242369754960 [Eh]
    Molecular point group: c1
  Basis Set: AUG-CC-PVQZ
    Blend: AUG-CC-PVQZ
  Basis Set: (AUG-CC-PVQZ AUX)
    Blend: AUG-CC-PVQZ-JKFIT
  @DF-RHF Final Energy:  -196.41640697017587
    Total Energy =                       -196.4164069701758422
  Basis Set: (AUG-CC-PVQZ AUX)
  @DF-RHF Final Energy:  -196.40459000232210
    Total Energy =                       -196.4045900023220952
  @DF-RHF Final Energy:  -196.41641706208986
    Total Energy =                       -196.4164170620898631
  @DF-RHF Final Energy:  -196.40459002097157
    Total Energy =                       -196.4045900209715683
  @DF-RHF Final Energy:  -196.41641708050037
    Total Energy =                       -196.4164170805003664
  @DF-RHF Final Energy:  -196.40456002418043
    Total Energy =                       -196.4045600241804550
  @DF-RHF Final Energy:  -196.41640698396134
    Total Energy =                       -196.4164069839613376
  Multiplicity = 1
  @DF-RHF Final Energy:  -392.80817120480560
    Total Energy =                       -392.8081712048056033
	 Singles Energy            =      -0.0000000000000000 [Eh]
	 Same-Spin Energy          =      -0.4253524773927093 [Eh]
	 Opposite-Spin Energy      =      -1.5996172375576090 [Eh]
	 Correlation Energy        =      -2.0249697149503181 [Eh]
	 Total Energy              =    -394.8331409197559196 [Eh]
	 SCS Total Energy          =    -394.8694960490056474 [Eh]
    Molecular point group: c1

    Geometry (in Angstrom), charge = 0, multiplicity = 1:

       Center              X                  Y                   Z               Mass
    ------------   -----------------  -----------------  -----------------  -----------------
         C            0.404244540636    -0.074645806720    -2.774603198619    12.000000000000
         C           -1.018916459364     0.392772193280    -2.480563198619    12.000000000000
         H           -1.749852459364    -0.285538806720    -2.923169198619     1.007825032230
         H           -1.202995459364     0.431696193280    -1.405980198619     1.007825032230
         H           -1.192343459364     1.389685193280    -2.888408198619     1.007825032230
         C            0.612569540636    -1.470856806720    -2.193521198619    12.000000000000
         H            1.624636540636    -1.826988806720    -2.391396198619     1.007825032230
         H            0.460691540636    -1.470784806720    -1.113212198619     1.007825032230
         H           -0.088196459364    -2.182722806720    -2.632185198619     1.007825032230
         C            1.399991540636     0.894396193280    -2.142350198619    12.000000000000
         H            2.426116540636     0.581402193280    -2.340765198619     1.007825032230
         H            1.265503540636     0.941935193280    -1.060789198619     1.007825032230
         H            1.270095540636     1.900984193280    -2.542548198619     1.007825032230
         C            0.623683540636    -0.115072806720    -4.284596198619    12.000000000000
         H            0.480934540636     0.873000193280    -4.724397198619     1.007825032230
         H            1.635416540636    -0.447497806720    -4.521171198619     1.007825032230
         H           -0.077808459364    -0.801588806720    -4.760720198619     1.007825032230
         C           -0.404246459364     0.074684193280     2.774634801381    12.000000000000
         C            1.018565540636    -0.394281806720     2.481234801381    12.000000000000
         H            1.203005540636    -0.433610806720     1.406714801381     1.007825032230
         H            1.750000540636     0.283391193280     2.923970801381     1.007825032230
         H            1.190829540636    -1.391287806720     2.889355801381     1.007825032230
         C           -0.610643459364     1.471246193280     2.193803801381    12.000000000000
         H           -1.622606459364     1.828231193280     2.390651801381     1.007825032230
         H            0.090275540636     2.182317193280     2.633525801381     1.007825032230
         H           -0.457534459364     1.471442193280     1.113661801381     1.007825032230
         C           -0.624540459364     0.114860193280     4.284487801381    12.000000000000
         H           -1.635757459364     0.449137193280     4.520561801381     1.007825032230
         H            0.077971540636     0.799809193280     4.761326801381     1.007825032230
         H           -0.483977459364    -0.873659806720     4.723939801381     1.007825032230
         C           -1.400709459364    -0.893092806720     2.141487801381    12.000000000000
         H           -1.271783459364    -1.900068806720     2.541066801381     1.007825032230
         H           -2.426598459364    -0.579320806720     2.339875801381     1.007825032230
         H           -1.266004459364    -0.940067806720     1.059911801381     1.007825032230

  Charge       = 0
  Multiplicity = 1
  Basis Set: AUG-CC-PVQZ
    Blend: AUG-CC-PVQZ
  Basis Set: (AUG-CC-PVQZ AUX)
    Blend: AUG-CC-PVQZ-JKFIT

    Orbital Energies [Eh]
    ---------------------

    Doubly Occupied:

       1A    -11.226128     2A    -11.226128     3A    -11.205039
       4A    -11.205039     5A    -11.205038     6A    -11.205037
       7A    -11.205011     8A    -11.205009     9A    -11.204774
      10A    -11.204768    11A     -1.106937    12A     -1.106516
      13A     -0.929605    14A     -0.929601    15A     -0.929401
      16A     -0.928802    17A     -0.928799    18A     -0.928514
      19A     -0.731536    20A     -0.729468    21A     -0.616081
      22A     -0.612601    23A     -0.612599    24A     -0.612473
      25A     -0.612470    26A     -0.608695    27A     -0.555561
      28A     -0.555552    29A     -0.551703    30A     -0.551697
      31A     -0.511699    32A     -0.511693    33A     -0.510044
      34A     -0.509839    35A     -0.508078    36A     -0.508072
      37A     -0.458459    38A     -0.453314    39A     -0.453310
      40A     -0.452825    41A     -0.452821    42A     -0.447470

  @DF-RHF Final Energy:  -392.83182651352035

   => Energetics <=

    Nuclear Repulsion Energy =            562.5303170007098288
    One-Electron Energy =               -1644.7078873733164528
    Two-Electron Energy =                 689.3457438590862694
    Total Energy =                       -392.8318265135203546

  Dipole Moment: [D]
     X:    -0.0000      Y:     0.0000      Z:     0.0001     Total:     0.0001

  Basis Set: (AUG-CC-PVQZ AUX)
    Blend: AUG-CC-PVQZ-RI
	 Reference Energy          =    -392.8318265135203546 [Eh]
	 Singles Energy            =      -0.0000000000000000 [Eh]
	 Same-Spin Energy          =      -0.4487370938703225 [Eh]
	 Opposite-Spin Energy      =      -1.7678857212748793 [Eh]
	 Correlation Energy        =      -2.2166228151452017 [Eh]
	 Total Energy              =    -395.0484493286655834 [Eh]

	 ================> DF-SCS-MP2 Energies <==================
	-----------------------------------------------------------
	 SCS Same-Spin Scale       =       0.3333333333333333 [-]
	 SCS Opposite-Spin Scale   =       1.2000000000000000 [-]
	 SCS Same-Spin Energy      =      -0.1495790312901075 [Eh]
	 SCS Opposite-Spin Energy  =      -2.1214628655298551 [Eh]
	 SCS Correlation Energy    =      -2.2710418968199626 [Eh]
	 SCS Total Energy          =    -395.1028684103403066 [Eh]
	-----------------------------------------------------------

*** Psi4 exiting successfully. Buy a developer a beer!
