                               Psi4 1.4a2.dev224

  ==> Input File <==

--------------------------------------------------------------------------
#Generated by lconvert.py for cbs job

memory 20 GB

molecule  {
0 1
  C       0.382520   -0.070610    0.766900
  C      -1.040640    0.396810    1.060940
  H      -1.771570   -0.281500    0.618330
  H      -1.224720    0.435730    2.135520
  H      -1.214070    1.393720    0.653090
  C       0.590850   -1.466820    1.347980
  H       1.602910   -1.822950    1.150100
  H       0.438970   -1.466750    2.428290
  H      -0.109920   -2.178680    0.909310
  C       1.378270    0.898430    1.399150
  H       2.404390    0.585440    1.200730
  H       1.243780    0.945970    2.480710
  H       1.248370    1.905020    0.998950
  C       0.601960   -0.111030   -0.743100
  H       0.459210    0.877040   -1.182900
  H       1.613690   -0.443460   -0.979670
  H      -0.099530   -0.797550   -1.219220
--
0 1
  C      -0.541010    0.099970    7.105750
  C       0.881800   -0.368990    6.812350
  H       1.066240   -0.408320    5.737830
  H       1.613240    0.308680    7.255080
  H       1.054070   -1.366000    7.220470
  C      -0.747410    1.496530    6.524920
  H      -1.759370    1.853520    6.721760
  H      -0.046490    2.207610    6.964640
  H      -0.594300    1.496730    5.444770
  C      -0.761300    0.140150    8.615600
  H      -1.772520    0.474430    8.851670
  H      -0.058790    0.825100    9.092440
  H      -0.620740   -0.848370    9.055050
  C      -1.537470   -0.867800    6.472600
  H      -1.408550   -1.874780    6.872180
  H      -2.563360   -0.554030    6.670990
  H      -1.402770   -0.914780    5.391020
units angstrom
no_reorient
symmetry c1
}

set {
scf_type DF
mp2_type DF
e_convergence 7
reference rhf
}

energy('mp2/aug-cc-pv[tq]z', bsse_type='cp')
--------------------------------------------------------------------------

    Molecular point group: c1
  Charge       = 0
  Multiplicity = 1
  Basis Set: AUG-CC-PVTZ
    Blend: AUG-CC-PVTZ
  Basis Set: (AUG-CC-PVTZ AUX)
    Blend: AUG-CC-PVTZ-JKFIT
  @DF-RHF Final Energy:  -196.40455977778913
    Total Energy =                       -196.4045597777891317
  Basis Set: (AUG-CC-PVTZ AUX)
    Blend: AUG-CC-PVTZ-RI
	 Reference Energy          =    -196.4045597777891317 [Eh]
	 Singles Energy            =      -0.0000000000000000 [Eh]
	 Same-Spin Energy          =      -0.2117374324646895 [Eh]
	 Opposite-Spin Energy      =      -0.7978210937807342 [Eh]
	 Correlation Energy        =      -1.0095585262454236 [Eh]
	 Total Energy              =    -197.4141183040345595 [Eh]
	 SCS Total Energy          =    -197.4325242344809226 [Eh]
    Molecular point group: c1
  Basis Set: AUG-CC-PVQZ
    Blend: AUG-CC-PVQZ
  Basis Set: (AUG-CC-PVQZ AUX)
    Blend: AUG-CC-PVQZ-JKFIT
  @DF-RHF Final Energy:  -196.41640673133818
    Total Energy =                       -196.4164067313381565
  Basis Set: (AUG-CC-PVQZ AUX)
  @DF-RHF Final Energy:  -196.40457777349323
    Total Energy =                       -196.4045777734932017
  @DF-RHF Final Energy:  -196.41641255529436
    Total Energy =                       -196.4164125552943574
  @DF-RHF Final Energy:  -196.40457816361820
    Total Energy =                       -196.4045781636181687
  @DF-RHF Final Energy:  -196.41641296184741
    Total Energy =                       -196.4164129618474135
  @DF-RHF Final Energy:  -196.40456016745949
    Total Energy =                       -196.4045601674595218
  @DF-RHF Final Energy:  -196.41640713397288
    Total Energy =                       -196.4164071339728821
  Multiplicity = 1
  @DF-RHF Final Energy:  -392.80902575335341
    Total Energy =                       -392.8090257533533531
	 Singles Energy            =      -0.0000000000000000 [Eh]
	 Same-Spin Energy          =      -0.4242355833615669 [Eh]
	 Opposite-Spin Energy      =      -1.5975993799187909 [Eh]
	 Correlation Energy        =      -2.0218349632803578 [Eh]
	 Total Energy              =    -394.8308607166337652 [Eh]
	 SCS Total Energy          =    -394.8675568703764611 [Eh]
    Molecular point group: c1

    Geometry (in Angstrom), charge = 0, multiplicity = 1:

       Center              X                  Y                   Z               Mass
    ------------   -----------------  -----------------  -----------------  -----------------
         C            0.461762986021    -0.085273189198    -3.169407070851    12.000000000000
         C           -0.961397013979     0.382146810802    -2.875367070851    12.000000000000
         H           -1.692327013979    -0.296163189198    -3.317977070851     1.007825032230
         H           -1.145477013979     0.421066810802    -1.800787070851     1.007825032230
         H           -1.134827013979     1.379056810802    -3.283217070851     1.007825032230
         C            0.670092986021    -1.481483189198    -2.588327070851    12.000000000000
         H            1.682152986021    -1.837613189198    -2.786207070851     1.007825032230
         H            0.518212986021    -1.481413189198    -1.508017070851     1.007825032230
         H           -0.030677013979    -2.193343189198    -3.026997070851     1.007825032230
         C            1.457512986021     0.883766810802    -2.537157070851    12.000000000000
         H            2.483632986021     0.570776810802    -2.735577070851     1.007825032230
         H            1.323022986021     0.931306810802    -1.455597070851     1.007825032230
         H            1.327612986021     1.890356810802    -2.937357070851     1.007825032230
         C            0.681202986021    -0.125693189198    -4.679407070851    12.000000000000
         H            0.538452986021     0.862376810802    -5.119207070851     1.007825032230
         H            1.692932986021    -0.458123189198    -4.915977070851     1.007825032230
         H           -0.020287013979    -0.812213189198    -5.155527070851     1.007825032230
         C           -0.461767013979     0.085306810802     3.169442929149    12.000000000000
         C            0.961042986021    -0.383653189198     2.876042929149    12.000000000000
         H            1.145482986021    -0.422983189198     1.801522929149     1.007825032230
         H            1.692482986021     0.294016810802     3.318772929149     1.007825032230
         H            1.133312986021    -1.380663189198     3.284162929149     1.007825032230
         C           -0.668167013979     1.481866810802     2.588612929149    12.000000000000
         H           -1.680127013979     1.838856810802     2.785452929149     1.007825032230
         H            0.032752986021     2.192946810802     3.028332929149     1.007825032230
         H           -0.515057013979     1.482066810802     1.508462929149     1.007825032230
         C           -0.682057013979     0.125486810802     4.679292929149    12.000000000000
         H           -1.693277013979     0.459766810802     4.915362929149     1.007825032230
         H            0.020452986021     0.810436810802     5.156132929149     1.007825032230
         H           -0.541497013979    -0.863033189198     5.118742929149     1.007825032230
         C           -1.458227013979    -0.882463189198     2.536292929149    12.000000000000
         H           -1.329307013979    -1.889443189198     2.935872929149     1.007825032230
         H           -2.484117013979    -0.568693189198     2.734682929149     1.007825032230
         H           -1.323527013979    -0.929443189198     1.454712929149     1.007825032230

  Charge       = 0
  Multiplicity = 1
  Basis Set: AUG-CC-PVQZ
    Blend: AUG-CC-PVQZ
  Basis Set: (AUG-CC-PVQZ AUX)
    Blend: AUG-CC-PVQZ-JKFIT

    Orbital Energies [Eh]
    ---------------------

    Doubly Occupied:

       1A    -11.226093     2A    -11.226092     3A    -11.205023
       4A    -11.205022     5A    -11.205020     6A    -11.205019
       7A    -11.204994     8A    -11.204991     9A    -11.204803
      10A    -11.204798    11A     -1.106666    12A     -1.106597
      13A     -0.929147    14A     -0.929143    15A     -0.929005
      16A     -0.929001    17A     -0.928970    18A     -0.928799
      19A     -0.730621    20A     -0.730116    21A     -0.613070
      22A     -0.612470    23A     -0.612468    24A     -0.612398
      25A     -0.612395    26A     -0.611152    27A     -0.553869
      28A     -0.553862    29A     -0.552941    30A     -0.552935
      31A     -0.510287    32A     -0.510283    33A     -0.509890
      34A     -0.509853    35A     -0.509287    36A     -0.509283
      37A     -0.454795    38A     -0.453090    39A     -0.453085
      40A     -0.452950    41A     -0.452946    42A     -0.451137

  @DF-RHF Final Energy:  -392.83269514110134

   => Energetics <=

    Nuclear Repulsion Energy =            542.8135635765036113
    One-Electron Energy =               -1605.2837983777783393
    Two-Electron Energy =                 669.6375396601733883
    Total Energy =                       -392.8326951411013397

  Dipole Moment: [D]
     X:    -0.0000      Y:     0.0000      Z:     0.0001     Total:     0.0001

  Basis Set: (AUG-CC-PVQZ AUX)
    Blend: AUG-CC-PVQZ-RI
	 Reference Energy          =    -392.8326951411013397 [Eh]
	 Singles Energy            =      -0.0000000000000000 [Eh]
	 Same-Spin Energy          =      -0.4476800544155202 [Eh]
	 Opposite-Spin Energy      =      -1.7664446682186301 [Eh]
	 Correlation Energy        =      -2.2141247226341503 [Eh]
	 Total Energy              =    -395.0468198637354931 [Eh]

	 ================> DF-SCS-MP2 Energies <==================
	-----------------------------------------------------------
	 SCS Same-Spin Scale       =       0.3333333333333333 [-]
	 SCS Opposite-Spin Scale   =       1.2000000000000000 [-]
	 SCS Same-Spin Energy      =      -0.1492266848051734 [Eh]
	 SCS Opposite-Spin Energy  =      -2.1197336018623560 [Eh]
	 SCS Correlation Energy    =      -2.2689602866675296 [Eh]
	 SCS Total Energy          =    -395.1016554277688897 [Eh]
	-----------------------------------------------------------

*** Psi4 exiting successfully. Buy a developer a beer!
