                               Psi4 1.4a2.dev224

  ==> Input File <==

--------------------------------------------------------------------------
#Generated by lconvert.py for cbs job

memory 40 GB

molecule  {
0 1
  C        0.3825220    -0.0706070     0.7668960
  C       -1.0406390     0.3968110     1.0609360
  H       -1.7715750    -0.2815000     0.6183300
  H       -1.2247180     0.4357350     2.1355190
  H       -1.2140660     1.3937240     0.6530910
  C        0.5908470    -1.4668180     1.3479780
  H        1.6029140    -1.8229500     1.1501030
  H        0.4389690    -1.4667460     2.4282870
  H       -0.1099190    -2.1786840     0.9093140
  C        1.3782690     0.8984350     1.3991490
  H        2.4043940     0.5854410     1.2007340
  H        1.2437810     0.9459740     2.4807100
  H        1.2483730     1.9050230     0.9989510
  C        0.6019610    -0.1110340    -0.7430970
  H        0.4592120     0.8770390    -1.1828980
  H        1.6136940    -0.4434590    -0.9796720
  H       -0.0995310    -0.7975500    -1.2192210
--
0 1
  C       -0.2854300     0.0527630     5.3515040
  C        1.1373820    -0.4162030     5.0581040
  H        1.3218220    -0.4555320     3.9835840
  H        1.8688170     0.2614700     5.5008400
  H        1.3096460    -1.4132090     5.4662250
  C       -0.4918270     1.4493250     4.7706740
  H       -1.5037900     1.8063100     4.9675210
  H        0.2090920     2.1603960     5.2103950
  H       -0.3387180     1.4495210     3.6905310
  C       -0.5057250     0.0929400     6.8613580
  H       -1.5169410     0.4272170     7.0974310
  H        0.1967880     0.7778890     7.3381960
  H       -0.3651610    -0.8955810     7.3008090
  C       -1.2818930    -0.9150140     4.7183580
  H       -1.1529670    -1.9219900     5.1179370
  H       -2.3077820    -0.6012410     4.9167450
  H       -1.1471880    -0.9619890     3.6367810
units angstrom
no_reorient
symmetry c1
}

set {
scf_type DF
mp2_type DF
e_convergence 7
reference rhf
}

energy('mp2/aug-cc-pv[tq]z', bsse_type='cp')
--------------------------------------------------------------------------

    Molecular point group: c1
  Charge       = 0
  Multiplicity = 1
  Basis Set: AUG-CC-PVTZ
    Blend: AUG-CC-PVTZ
  Basis Set: (AUG-CC-PVTZ AUX)
    Blend: AUG-CC-PVTZ-JKFIT
  @DF-RHF Final Energy:  -196.40455999420061
    Total Energy =                       -196.4045599942006106
  Basis Set: (AUG-CC-PVTZ AUX)
    Blend: AUG-CC-PVTZ-RI
	 Reference Energy          =    -196.4045599942006106 [Eh]
	 Singles Energy            =      -0.0000000000000000 [Eh]
	 Same-Spin Energy          =      -0.2117373227733166 [Eh]
	 Opposite-Spin Energy      =      -0.7978209459682117 [Eh]
	 Correlation Energy        =      -1.0095582687415283 [Eh]
	 Total Energy              =    -197.4141182629421394 [Eh]
	 SCS Total Energy          =    -197.4325242369535829 [Eh]
    Molecular point group: c1
  Basis Set: AUG-CC-PVQZ
    Blend: AUG-CC-PVQZ
  Basis Set: (AUG-CC-PVQZ AUX)
    Blend: AUG-CC-PVQZ-JKFIT
  @DF-RHF Final Energy:  -196.41640695689557
    Total Energy =                       -196.4164069568955711
  Basis Set: (AUG-CC-PVQZ AUX)
  @DF-RHF Final Energy:  -196.40464137951915
    Total Energy =                       -196.4046413795191484
  @DF-RHF Final Energy:  -196.41642847845827
    Total Energy =                       -196.4164284784582719
  @DF-RHF Final Energy:  -196.40464141059158
    Total Energy =                       -196.4046414105915801
  @DF-RHF Final Energy:  -196.41642850826540
    Total Energy =                       -196.4164285082654260
  @DF-RHF Final Energy:  -196.40456002379130
    Total Energy =                       -196.4045600237913050
  @DF-RHF Final Energy:  -196.41640698517020
    Total Energy =                       -196.4164069851701697
  Multiplicity = 1
  @DF-RHF Final Energy:  -392.79527470180290
    Total Energy =                       -392.7952747018028958
	 Singles Energy            =      -0.0000000000000000 [Eh]
	 Same-Spin Energy          =      -0.4300864029859676 [Eh]
	 Opposite-Spin Energy      =      -1.6069658592755878 [Eh]
	 Correlation Energy        =      -2.0370522622615552 [Eh]
	 Total Energy              =    -394.8323269640644639 [Eh]
	 SCS Total Energy          =    -394.8669958672622329 [Eh]
    Molecular point group: c1

    Geometry (in Angstrom), charge = 0, multiplicity = 1:

       Center              X                  Y                   Z               Mass
    ------------   -----------------  -----------------  -----------------  -----------------
         C            0.333975123860    -0.061665910914    -2.292288455283    12.000000000000
         C           -1.089185876140     0.405752089086    -1.998248455283    12.000000000000
         H           -1.820121876140    -0.272558910914    -2.440854455283     1.007825032230
         H           -1.273264876140     0.444676089086    -0.923665455283     1.007825032230
         H           -1.262612876140     1.402665089086    -2.406093455283     1.007825032230
         C            0.542300123860    -1.457876910914    -1.711206455283    12.000000000000
         H            1.554367123860    -1.814008910914    -1.909081455283     1.007825032230
         H            0.390422123860    -1.457804910914    -0.630897455283     1.007825032230
         H           -0.158465876140    -2.169742910914    -2.149870455283     1.007825032230
         C            1.329722123860     0.907376089086    -1.660035455283    12.000000000000
         H            2.355847123860     0.594382089086    -1.858450455283     1.007825032230
         H            1.195234123860     0.954915089086    -0.578474455283     1.007825032230
         H            1.199826123860     1.913964089086    -2.060233455283     1.007825032230
         C            0.553414123860    -0.102092910914    -3.802281455283    12.000000000000
         H            0.410665123860     0.885980089086    -4.242082455283     1.007825032230
         H            1.565147123860    -0.434517910914    -4.038856455283     1.007825032230
         H           -0.148077876140    -0.788608910914    -4.278405455283     1.007825032230
         C           -0.333976876140     0.061704089086     2.292319544717    12.000000000000
         C            1.088835123860    -0.407261910914     1.998919544717    12.000000000000
         H            1.273275123860    -0.446590910914     0.924399544717     1.007825032230
         H            1.820270123860     0.270411089086     2.441655544717     1.007825032230
         H            1.261099123860    -1.404267910914     2.407040544717     1.007825032230
         C           -0.540373876140     1.458266089086     1.711489544717    12.000000000000
         H           -1.552336876140     1.815251089086     1.908336544717     1.007825032230
         H            0.160545123860     2.169337089086     2.151210544717     1.007825032230
         H           -0.387264876140     1.458462089086     0.631346544717     1.007825032230
         C           -0.554271876140     0.101881089086     3.802173544717    12.000000000000
         H           -1.565487876140     0.436158089086     4.038246544717     1.007825032230
         H            0.148241123860     0.786830089086     4.279011544717     1.007825032230
         H           -0.413707876140    -0.886639910914     4.241624544717     1.007825032230
         C           -1.330439876140    -0.906072910914     1.659173544717    12.000000000000
         H           -1.201513876140    -1.913048910914     2.058752544717     1.007825032230
         H           -2.356328876140    -0.592299910914     1.857560544717     1.007825032230
         H           -1.195734876140    -0.953047910914     0.577596544717     1.007825032230

  Charge       = 0
  Multiplicity = 1
  Basis Set: AUG-CC-PVQZ
    Blend: AUG-CC-PVQZ
  Basis Set: (AUG-CC-PVQZ AUX)
    Blend: AUG-CC-PVQZ-JKFIT

    Orbital Energies [Eh]
    ---------------------

    Doubly Occupied:

       1A    -11.225814     2A    -11.225814     3A    -11.204112
       4A    -11.204106     5A    -11.203696     6A    -11.203695
       7A    -11.203693     8A    -11.203691     9A    -11.203667
      10A    -11.203662    11A     -1.108625    12A     -1.105069
      13A     -0.932532    14A     -0.932522    15A     -0.932047
      16A     -0.926559    17A     -0.926555    18A     -0.926146
      19A     -0.736140    20A     -0.726081    21A     -0.629741
      22A     -0.613435    23A     -0.613426    24A     -0.612282
      25A     -0.612272    26A     -0.597125    27A     -0.565422
      28A     -0.565402    29A     -0.545779    30A     -0.545773
      31A     -0.515654    32A     -0.515634    33A     -0.510529
      34A     -0.508875    35A     -0.502091    36A     -0.502059
      37A     -0.467853    38A     -0.453695    39A     -0.453691
      40A     -0.451541    41A     -0.451537    42A     -0.433366

  @DF-RHF Final Energy:  -392.81887012673724

   => Energetics <=

    Nuclear Repulsion Energy =            594.8746229673013204
    One-Electron Energy =               -1709.3841944741677707
    Two-Electron Energy =                 721.6907013801292123
    Total Energy =                       -392.8188701267372380

  Dipole Moment: [D]
     X:    -0.0000      Y:     0.0000      Z:     0.0001     Total:     0.0001

  Basis Set: (AUG-CC-PVQZ AUX)
    Blend: AUG-CC-PVQZ-RI
	 Reference Energy          =    -392.8188701267372380 [Eh]
	 Singles Energy            =      -0.0000000000000000 [Eh]
	 Same-Spin Energy          =      -0.4533289905822224 [Eh]
	 Opposite-Spin Energy      =      -1.7738123045330219 [Eh]
	 Correlation Energy        =      -2.2271412951152443 [Eh]
	 Total Energy              =    -395.0460114218524836 [Eh]

	 ================> DF-SCS-MP2 Energies <==================
	-----------------------------------------------------------
	 SCS Same-Spin Scale       =       0.3333333333333333 [-]
	 SCS Opposite-Spin Scale   =       1.2000000000000000 [-]
	 SCS Same-Spin Energy      =      -0.1511096635274075 [Eh]
	 SCS Opposite-Spin Energy  =      -2.1285747654396263 [Eh]
	 SCS Correlation Energy    =      -2.2796844289670339 [Eh]
	 SCS Total Energy          =    -395.0985545557042542 [Eh]
	-----------------------------------------------------------

*** Psi4 exiting successfully. Buy a developer a beer!
