                               Psi4 1.4a2.dev224

  ==> Input File <==

--------------------------------------------------------------------------
#Generated by lconvert.py for cbs job

memory 30 GB

molecule  {
0 1
  C        0.3825220    -0.0706070     0.7668960
  C       -1.0406390     0.3968110     1.0609360
  H       -1.7715750    -0.2815000     0.6183300
  H       -1.2247180     0.4357350     2.1355190
  H       -1.2140660     1.3937240     0.6530910
  C        0.5908470    -1.4668180     1.3479780
  H        1.6029140    -1.8229500     1.1501030
  H        0.4389690    -1.4667460     2.4282870
  H       -0.1099190    -2.1786840     0.9093140
  C        1.3782690     0.8984350     1.3991490
  H        2.4043940     0.5854410     1.2007340
  H        1.2437810     0.9459740     2.4807100
  H        1.2483730     1.9050230     0.9989510
  C        0.6019610    -0.1110340    -0.7430970
  H        0.4592120     0.8770390    -1.1828980
  H        1.6136940    -0.4434590    -0.9796720
  H       -0.0995310    -0.7975500    -1.2192210
--
0 1
  C       -0.3590390     0.0663600     5.8567400
  C        1.0637730    -0.4026060     5.5633410
  H        1.2482130    -0.4419350     4.4888200
  H        1.7952080     0.2750670     6.0060760
  H        1.2360370    -1.3996120     5.9714610
  C       -0.5654360     1.4629220     5.2759100
  H       -1.5773990     1.8199070     5.4727570
  H        0.1354830     2.1739930     5.7156310
  H       -0.4123270     1.4631180     4.1957670
  C       -0.5793330     0.1065360     7.3665940
  H       -1.5905500     0.4408130     7.6026670
  H        0.1231790     0.7914850     7.8434320
  H       -0.4387700    -0.8819840     7.8060450
  C       -1.3555020    -0.9014180     5.2235940
  H       -1.2265760    -1.9083930     5.6231730
  H       -2.3813910    -0.5876450     5.4219820
  H       -1.2207970    -0.9483920     4.1420170
units angstrom
no_reorient
symmetry c1
}

set {
scf_type DF
mp2_type DF
e_convergence 7
reference rhf
}

energy('mp2/aug-cc-pv[tq]z', bsse_type='cp')
--------------------------------------------------------------------------

    Molecular point group: c1
  Charge       = 0
  Multiplicity = 1
  Basis Set: AUG-CC-PVTZ
    Blend: AUG-CC-PVTZ
  Basis Set: (AUG-CC-PVTZ AUX)
    Blend: AUG-CC-PVTZ-JKFIT
  @DF-RHF Final Energy:  -196.40456000613605
    Total Energy =                       -196.4045600061360233
  Basis Set: (AUG-CC-PVTZ AUX)
    Blend: AUG-CC-PVTZ-RI
	 Reference Energy          =    -196.4045600061360517 [Eh]
	 Singles Energy            =      -0.0000000000000000 [Eh]
	 Same-Spin Energy          =      -0.2117373199877260 [Eh]
	 Opposite-Spin Energy      =      -0.7978209362161343 [Eh]
	 Correlation Energy        =      -1.0095582562038603 [Eh]
	 Total Energy              =    -197.4141182623399118 [Eh]
	 SCS Total Energy          =    -197.4325242362579900 [Eh]
    Molecular point group: c1
  Basis Set: AUG-CC-PVQZ
    Blend: AUG-CC-PVQZ
  Basis Set: (AUG-CC-PVQZ AUX)
    Blend: AUG-CC-PVQZ-JKFIT
  @DF-RHF Final Energy:  -196.41640696724465
    Total Energy =                       -196.4164069672446544
  Basis Set: (AUG-CC-PVQZ AUX)
  @DF-RHF Final Energy:  -196.40461323648731
    Total Energy =                       -196.4046132364873074
  @DF-RHF Final Energy:  -196.41642124298997
    Total Energy =                       -196.4164212429899976
  @DF-RHF Final Energy:  -196.40461325644426
    Total Energy =                       -196.4046132564442928
  @DF-RHF Final Energy:  -196.41642125960945
    Total Energy =                       -196.4164212596094217
  @DF-RHF Final Energy:  -196.40456002405830
    Total Energy =                       -196.4045600240582985
  @DF-RHF Final Energy:  -196.41640698363355
    Total Energy =                       -196.4164069836335784
  Multiplicity = 1
  @DF-RHF Final Energy:  -392.80560520369897
    Total Energy =                       -392.8056052036989740
	 Singles Energy            =      -0.0000000000000000 [Eh]
	 Same-Spin Energy          =      -0.4268518184554463 [Eh]
	 Opposite-Spin Energy      =      -1.6021140933699811 [Eh]
	 Correlation Energy        =      -2.0289659118254275 [Eh]
	 Total Energy              =    -394.8345711155243976 [Eh]
	 SCS Total Energy          =    -394.8704260552281085 [Eh]
    Molecular point group: c1

    Geometry (in Angstrom), charge = 0, multiplicity = 1:

       Center              X                  Y                   Z               Mass
    ------------   -----------------  -----------------  -----------------  -----------------
         C            0.370779540636    -0.068464223495    -2.544906545498    12.000000000000
         C           -1.052381459364     0.398953776505    -2.250866545498    12.000000000000
         H           -1.783317459364    -0.279357223495    -2.693472545498     1.007825032230
         H           -1.236460459364     0.437877776505    -1.176283545498     1.007825032230
         H           -1.225808459364     1.395866776505    -2.658711545498     1.007825032230
         C            0.579104540636    -1.464675223495    -1.963824545498    12.000000000000
         H            1.591171540636    -1.820807223495    -2.161699545498     1.007825032230
         H            0.427226540636    -1.464603223495    -0.883515545498     1.007825032230
         H           -0.121661459364    -2.176541223495    -2.402488545498     1.007825032230
         C            1.366526540636     0.900577776505    -1.912653545498    12.000000000000
         H            2.392651540636     0.587583776505    -2.111068545498     1.007825032230
         H            1.232038540636     0.948116776505    -0.831092545498     1.007825032230
         H            1.236630540636     1.907165776505    -2.312851545498     1.007825032230
         C            0.590218540636    -0.108891223495    -4.054899545498    12.000000000000
         H            0.447469540636     0.879181776505    -4.494700545498     1.007825032230
         H            1.601951540636    -0.441316223495    -4.291474545498     1.007825032230
         H           -0.111273459364    -0.795407223495    -4.531023545498     1.007825032230
         C           -0.370781459364     0.068502776505     2.544937454502    12.000000000000
         C            1.052030540636    -0.400463223495     2.251538454502    12.000000000000
         H            1.236470540636    -0.439792223495     1.177017454502     1.007825032230
         H            1.783465540636     0.277209776505     2.694273454502     1.007825032230
         H            1.224294540636    -1.397469223495     2.659658454502     1.007825032230
         C           -0.577178459364     1.465064776505     1.964107454502    12.000000000000
         H           -1.589141459364     1.822049776505     2.160954454502     1.007825032230
         H            0.123740540636     2.176135776505     2.403828454502     1.007825032230
         H           -0.424069459364     1.465260776505     0.883964454502     1.007825032230
         C           -0.591075459364     0.108678776505     4.054791454502    12.000000000000
         H           -1.602292459364     0.442955776505     4.290864454502     1.007825032230
         H            0.111436540636     0.793627776505     4.531629454502     1.007825032230
         H           -0.450512459364    -0.879841223495     4.494242454502     1.007825032230
         C           -1.367244459364    -0.899275223495     1.911791454502    12.000000000000
         H           -1.238318459364    -1.906250223495     2.311370454502     1.007825032230
         H           -2.393133459364    -0.585502223495     2.110179454502     1.007825032230
         H           -1.232539459364    -0.946249223495     0.830214454502     1.007825032230

  Charge       = 0
  Multiplicity = 1
  Basis Set: AUG-CC-PVQZ
    Blend: AUG-CC-PVQZ
  Basis Set: (AUG-CC-PVQZ AUX)
    Blend: AUG-CC-PVQZ-JKFIT

    Orbital Energies [Eh]
    ---------------------

    Doubly Occupied:

       1A    -11.226037     2A    -11.226037     3A    -11.204767
       4A    -11.204766     5A    -11.204765     6A    -11.204764
       7A    -11.204739     8A    -11.204737     9A    -11.204586
      10A    -11.204580    11A     -1.107330    12A     -1.106151
      13A     -0.930342    14A     -0.930337    15A     -0.930085
      16A     -0.928217    17A     -0.928215    18A     -0.927855
      19A     -0.732884    20A     -0.728386    21A     -0.620449
      22A     -0.612619    23A     -0.612614    24A     -0.612579
      25A     -0.612576    26A     -0.604997    27A     -0.558321
      28A     -0.558309    29A     -0.549756    30A     -0.549751
      31A     -0.513342    32A     -0.513331    33A     -0.510169
      34A     -0.509616    35A     -0.506213    36A     -0.506200
      37A     -0.462347    38A     -0.453470    39A     -0.453466
      40A     -0.452477    41A     -0.452473    42A     -0.442713

  @DF-RHF Final Energy:  -392.82922573389720

   => Energetics <=

    Nuclear Repulsion Energy =            576.5702671659979615
    One-Electron Energy =               -1672.7842739674529184
    Two-Electron Energy =                 703.3847810675579240
    Total Energy =                       -392.8292257338971467

  Dipole Moment: [D]
     X:    -0.0000      Y:     0.0000      Z:     0.0001     Total:     0.0001

  Basis Set: (AUG-CC-PVQZ AUX)
    Blend: AUG-CC-PVQZ-RI
	 Reference Energy          =    -392.8292257338972036 [Eh]
	 Singles Energy            =      -0.0000000000000000 [Eh]
	 Same-Spin Energy          =      -0.4501652339582956 [Eh]
	 Opposite-Spin Energy      =      -1.7697551958751370 [Eh]
	 Correlation Energy        =      -2.2199204298334325 [Eh]
	 Total Energy              =    -395.0491461637306543 [Eh]

	 ================> DF-SCS-MP2 Energies <==================
	-----------------------------------------------------------
	 SCS Same-Spin Scale       =       0.3333333333333333 [-]
	 SCS Opposite-Spin Scale   =       1.2000000000000000 [-]
	 SCS Same-Spin Energy      =      -0.1500550779860985 [Eh]
	 SCS Opposite-Spin Energy  =      -2.1237062350501641 [Eh]
	 SCS Correlation Energy    =      -2.2737613130362626 [Eh]
	 SCS Total Energy          =    -395.1029870469334924 [Eh]
	-----------------------------------------------------------

*** Psi4 exiting successfully. Buy a developer a beer!
