                               Psi4 1.4a2.dev224

  ==> Input File <==

--------------------------------------------------------------------------
#Generated by lconvert.py for cbs job

memory 20 GB

molecule  {
0 1
  C       0.382520   -0.070610    0.766900
  C      -1.040640    0.396810    1.060940
  H      -1.771570   -0.281500    0.618330
  H      -1.224720    0.435730    2.135520
  H      -1.214070    1.393720    0.653090
  C       0.590850   -1.466820    1.347980
  H       1.602910   -1.822950    1.150100
  H       0.438970   -1.466750    2.428290
  H      -0.109920   -2.178680    0.909310
  C       1.378270    0.898430    1.399150
  H       2.404390    0.585440    1.200730
  H       1.243780    0.945970    2.480710
  H       1.248370    1.905020    0.998950
  C       0.601960   -0.111030   -0.743100
  H       0.459210    0.877040   -1.182900
  H       1.613690   -0.443460   -0.979670
  H      -0.099530   -0.797550   -1.219220
--
0 1
  C      -0.713570    0.131850    8.290160
  C       0.709240   -0.337120    7.996760
  H       0.893680   -0.376450    6.922240
  H       1.440680    0.340550    8.439500
  H       0.881510   -1.334120    8.404890
  C      -0.919970    1.528410    7.709330
  H      -1.931930    1.885390    7.906180
  H      -0.219050    2.239480    8.149060
  H      -0.766860    1.528610    6.629190
  C      -0.933860    0.172020    9.800020
  H      -1.945080    0.506300   10.036090
  H      -0.231350    0.856970   10.276860
  H      -0.793300   -0.816500   10.239470
  C      -1.710030   -0.835930    7.657020
  H      -1.581110   -1.842910    8.056600
  H      -2.735920   -0.522160    7.855410
  H      -1.575330   -0.882900    6.575440
units angstrom
no_reorient
symmetry c1
}

set {
scf_type DF
mp2_type DF
e_convergence 7
reference rhf
}

energy('mp2/aug-cc-pv[tq]z', bsse_type='cp')
--------------------------------------------------------------------------

    Molecular point group: c1
  Charge       = 0
  Multiplicity = 1
  Basis Set: AUG-CC-PVTZ
    Blend: AUG-CC-PVTZ
  Basis Set: (AUG-CC-PVTZ AUX)
    Blend: AUG-CC-PVTZ-JKFIT
  @DF-RHF Final Energy:  -196.40455995812678
    Total Energy =                       -196.4045599581268107
  Basis Set: (AUG-CC-PVTZ AUX)
    Blend: AUG-CC-PVTZ-RI
	 Reference Energy          =    -196.4045599581267822 [Eh]
	 Singles Energy            =      -0.0000000000000000 [Eh]
	 Same-Spin Energy          =      -0.2117373136738587 [Eh]
	 Opposite-Spin Energy      =      -0.7978209773497903 [Eh]
	 Correlation Energy        =      -1.0095582910236489 [Eh]
	 Total Energy              =    -197.4141182491504196 [Eh]
	 SCS Total Energy          =    -197.4325242355044736 [Eh]
    Molecular point group: c1
  Basis Set: AUG-CC-PVQZ
    Blend: AUG-CC-PVQZ
  Basis Set: (AUG-CC-PVQZ AUX)
    Blend: AUG-CC-PVQZ-JKFIT
  @DF-RHF Final Energy:  -196.41640691469274
    Total Energy =                       -196.4164069146927432
  Basis Set: (AUG-CC-PVQZ AUX)
  @DF-RHF Final Energy:  -196.40456823234138
    Total Energy =                       -196.4045682323413757
  @DF-RHF Final Energy:  -196.41640946270280
    Total Energy =                       -196.4164094627028021
  @DF-RHF Final Energy:  -196.40456844290284
    Total Energy =                       -196.4045684429028711
  @DF-RHF Final Energy:  -196.41640968356569
    Total Energy =                       -196.4164096835656892
  @DF-RHF Final Energy:  -196.40456016870513
    Total Energy =                       -196.4045601687051317
  @DF-RHF Final Energy:  -196.41640713585298
    Total Energy =                       -196.4164071358529782
  Multiplicity = 1
  @DF-RHF Final Energy:  -392.80911522852557
    Total Energy =                       -392.8091152285255703
	 Singles Energy            =      -0.0000000000000000 [Eh]
	 Same-Spin Energy          =      -0.4237168355606626 [Eh]
	 Opposite-Spin Energy      =      -1.5963452468646597 [Eh]
	 Correlation Energy        =      -2.0200620824253224 [Eh]
	 Total Energy              =    -394.8291773109509109 [Eh]
	 SCS Total Energy          =    -394.8659684699500758 [Eh]
    Molecular point group: c1

    Geometry (in Angstrom), charge = 0, multiplicity = 1:

       Center              X                  Y                   Z               Mass
    ------------   -----------------  -----------------  -----------------  -----------------
         C            0.548042986021    -0.101210063384    -3.761614504211    12.000000000000
         C           -0.875117013979     0.366209936616    -3.467574504211    12.000000000000
         H           -1.606047013979    -0.312100063384    -3.910184504211     1.007825032230
         H           -1.059197013979     0.405129936616    -2.392994504211     1.007825032230
         H           -1.048547013979     1.363119936616    -3.875424504211     1.007825032230
         C            0.756372986021    -1.497420063384    -3.180534504211    12.000000000000
         H            1.768432986021    -1.853550063384    -3.378414504211     1.007825032230
         H            0.604492986021    -1.497350063384    -2.100224504211     1.007825032230
         H            0.055602986021    -2.209280063384    -3.619204504211     1.007825032230
         C            1.543792986021     0.867829936616    -3.129364504211    12.000000000000
         H            2.569912986021     0.554839936616    -3.327784504211     1.007825032230
         H            1.409302986021     0.915369936616    -2.047804504211     1.007825032230
         H            1.413892986021     1.874419936616    -3.529564504211     1.007825032230
         C            0.767482986021    -0.141630063384    -5.271614504211    12.000000000000
         H            0.624732986021     0.846439936616    -5.711414504211     1.007825032230
         H            1.779212986021    -0.474060063384    -5.508184504211     1.007825032230
         H            0.065992986021    -0.828150063384    -5.747734504211     1.007825032230
         C           -0.548047013979     0.101249936616     3.761645495789    12.000000000000
         C            0.874762986021    -0.367720063384     3.468245495789    12.000000000000
         H            1.059202986021    -0.407050063384     2.393725495789     1.007825032230
         H            1.606202986021     0.309949936616     3.910985495789     1.007825032230
         H            1.047032986021    -1.364720063384     3.876375495789     1.007825032230
         C           -0.754447013979     1.497809936616     3.180815495789    12.000000000000
         H           -1.766407013979     1.854789936616     3.377665495789     1.007825032230
         H           -0.053527013979     2.208879936616     3.620545495789     1.007825032230
         H           -0.601337013979     1.498009936616     2.100675495789     1.007825032230
         C           -0.768337013979     0.141419936616     5.271505495789    12.000000000000
         H           -1.779557013979     0.475699936616     5.507575495789     1.007825032230
         H           -0.065827013979     0.826369936616     5.748345495789     1.007825032230
         H           -0.627777013979    -0.847100063384     5.710955495789     1.007825032230
         C           -1.544507013979    -0.866530063384     3.128505495789    12.000000000000
         H           -1.415587013979    -1.873510063384     3.528085495789     1.007825032230
         H           -2.570397013979    -0.552760063384     3.326895495789     1.007825032230
         H           -1.409807013979    -0.913500063384     2.046925495789     1.007825032230

  Charge       = 0
  Multiplicity = 1
  Basis Set: AUG-CC-PVQZ
    Blend: AUG-CC-PVQZ
  Basis Set: (AUG-CC-PVQZ AUX)
    Blend: AUG-CC-PVQZ-JKFIT

    Orbital Energies [Eh]
    ---------------------

    Doubly Occupied:

       1A    -11.225955     2A    -11.225955     3A    -11.204854
       4A    -11.204852     5A    -11.204851     6A    -11.204850
       7A    -11.204825     8A    -11.204823     9A    -11.204701
      10A    -11.204697    11A     -1.106473    12A     -1.106468
      13A     -0.928911    14A     -0.928907    15A     -0.928899
      16A     -0.928896    17A     -0.928759    18A     -0.928744
      19A     -0.730239    20A     -0.730186    21A     -0.612291
      22A     -0.612288    23A     -0.612279    24A     -0.612277
      25A     -0.612011    26A     -0.611785    27A     -0.553283
      28A     -0.553276    29A     -0.553182    30A     -0.553175
      31A     -0.509727    32A     -0.509724    33A     -0.509681
      34A     -0.509677    35A     -0.509556    36A     -0.509552
      37A     -0.453096    38A     -0.452889    39A     -0.452883
      40A     -0.452863    41A     -0.452862    42A     -0.452488

  @DF-RHF Final Energy:  -392.83279750833236

   => Energetics <=

    Nuclear Repulsion Energy =            520.6251723569606611
    One-Electron Energy =               -1560.9206228618165824
    Two-Electron Energy =                 647.4626529965236159
    Total Energy =                       -392.8327975083324191

  Dipole Moment: [D]
     X:    -0.0000      Y:     0.0000      Z:     0.0001     Total:     0.0001

  Basis Set: (AUG-CC-PVQZ AUX)
    Blend: AUG-CC-PVQZ-RI
	 Reference Energy          =    -392.8327975083323622 [Eh]
	 Singles Energy            =      -0.0000000000000000 [Eh]
	 Same-Spin Energy          =      -0.4472153546533021 [Eh]
	 Opposite-Spin Energy      =      -1.7657902085222981 [Eh]
	 Correlation Energy        =      -2.2130055631756003 [Eh]
	 Total Energy              =    -395.0458030715079758 [Eh]

	 ================> DF-SCS-MP2 Energies <==================
	-----------------------------------------------------------
	 SCS Same-Spin Scale       =       0.3333333333333333 [-]
	 SCS Opposite-Spin Scale   =       1.2000000000000000 [-]
	 SCS Same-Spin Energy      =      -0.1490717848844340 [Eh]
	 SCS Opposite-Spin Energy  =      -2.1189482502267576 [Eh]
	 SCS Correlation Energy    =      -2.2680200351111917 [Eh]
	 SCS Total Energy          =    -395.1008175434435543 [Eh]
	-----------------------------------------------------------

*** Psi4 exiting successfully. Buy a developer a beer!
