                               Psi4 1.4a2.dev224

  ==> Input File <==

--------------------------------------------------------------------------
#Generated by lconvert.py for cbs job

memory 40 GB

molecule  {
0 1
  C        0.7999140    -1.0220520     0.6877370
  H        0.8535560    -1.1220510    -0.3980140
  H        1.4914020    -1.7441690     1.1197200
  C        1.1168870     0.4249530     1.0996620
  H        1.8381420     0.8901450     0.4304530
  H        1.5555700     0.4398250     2.0970840
  C       -0.2445590     1.1656900     1.1029770
  H       -0.2580780     2.0008630     0.4053230
  H       -0.4488040     1.5769960     2.0909840
  C       -1.2987140     0.1038120     0.7393090
  H       -1.4735610     0.1052430    -0.3380050
  H       -2.2567340     0.2780410     1.2271580
  C       -0.6468800    -1.2200680     1.1363070
  H       -1.1244390    -2.0876270     0.6829930
  H       -0.6860190    -1.3452830     2.2202200
--
0 1
  C        0.0460780     0.0868700     5.4474860
  C       -0.0502660    -0.0652160     6.9631260
  H        0.9422810    -0.0806820     7.4154840
  H       -0.6091910     0.7626690     7.4015610
  H       -0.5574310    -0.9938820     7.2284760
  C        0.7601320     1.3937750     5.1118610
  H        0.8416510     1.5272740     4.0321790
  H        0.2166590     2.2484640     5.5173620
  H        1.7677360     1.4044260     5.5300940
  C       -1.3589330     0.1066950     4.8501660
  H       -1.3220020     0.2238850     3.7663170
  H       -1.9412330     0.9341180     5.2585120
  H       -1.8888370    -0.8210920     5.0714960
  C        0.8339780    -1.0866150     4.8701480
  H        0.3387580    -2.0336060     5.0903910
  H        0.9288210    -0.9994320     3.7870130
  H        1.8386960    -1.1240190     5.2938960
units angstrom
no_reorient
symmetry c1
}

set {
scf_type DF
mp2_type DF
e_convergence 7
reference rhf
}

energy('mp2/aug-cc-pv[tq]z', bsse_type='cp')
--------------------------------------------------------------------------

    Molecular point group: c1
  Charge       = 0
  Multiplicity = 1
  Basis Set: AUG-CC-PVTZ
    Blend: AUG-CC-PVTZ
  Basis Set: (AUG-CC-PVTZ AUX)
    Blend: AUG-CC-PVTZ-JKFIT
  @DF-RHF Final Energy:  -196.40455360561691
    Total Energy =                       -196.4045536056169112
  Basis Set: (AUG-CC-PVTZ AUX)
    Blend: AUG-CC-PVTZ-RI
	 Reference Energy          =    -196.4045536056169112 [Eh]
	 Singles Energy            =      -0.0000000000000000 [Eh]
	 Same-Spin Energy          =      -0.2117338553229710 [Eh]
	 Opposite-Spin Energy      =      -0.7978224958348947 [Eh]
	 Correlation Energy        =      -1.0095563511578658 [Eh]
	 Total Energy              =    -197.4141099567747801 [Eh]
	 SCS Total Energy          =    -197.4325185523931054 [Eh]
    Molecular point group: c1
  Basis Set: AUG-CC-PVQZ
    Blend: AUG-CC-PVQZ
  Basis Set: (AUG-CC-PVQZ AUX)
    Blend: AUG-CC-PVQZ-JKFIT
  @DF-RHF Final Energy:  -196.41640021225533
    Total Energy =                       -196.4164002122553256
  Basis Set: (AUG-CC-PVQZ AUX)
  @DF-RHF Final Energy:  -196.40462243175500
    Total Energy =                       -196.4046224317550013
  @DF-RHF Final Energy:  -196.41641754387439
    Total Energy =                       -196.4164175438743882
  @DF-RHF Final Energy:  -195.23028842101010
    Total Energy =                       -195.2302884210101013
  @DF-RHF Final Energy:  -195.24172120604217
    Total Energy =                       -195.2417212060421718
  @DF-RHF Final Energy:  -195.23021071583935
    Total Energy =                       -195.2302107158393483
  @DF-RHF Final Energy:  -195.24169902205298
    Total Energy =                       -195.2416990220529840
  Multiplicity = 1
  @DF-RHF Final Energy:  -391.62900655089538
    Total Energy =                       -391.6290065508953830
	 Singles Energy            =      -0.0000000000000000 [Eh]
	 Same-Spin Energy          =      -0.4273216935927607 [Eh]
	 Opposite-Spin Energy      =      -1.5732876762063708 [Eh]
	 Correlation Energy        =      -2.0006093697991316 [Eh]
	 Total Energy              =    -393.6296159206945049 [Eh]
	 SCS Total Energy          =    -393.6593923268739559 [Eh]
    Molecular point group: c1

    Geometry (in Angstrom), charge = 0, multiplicity = 1:

       Center              X                  Y                   Z               Mass
    ------------   -----------------  -----------------  -----------------  -----------------
         C            0.803156869066    -1.012869806703    -2.545121037434    12.000000000000
         H            0.856798869066    -1.112868806703    -3.630872037434     1.007825032230
         H            1.494644869066    -1.734986806703    -2.113138037434     1.007825032230
         C            1.120129869066     0.434135193297    -2.133196037434    12.000000000000
         H            1.841384869066     0.899327193297    -2.802405037434     1.007825032230
         H            1.558812869066     0.449007193297    -1.135774037434     1.007825032230
         C           -0.241316130934     1.174872193297    -2.129881037434    12.000000000000
         H           -0.254835130934     2.010045193297    -2.827535037434     1.007825032230
         H           -0.445561130934     1.586178193297    -1.141874037434     1.007825032230
         C           -1.295471130934     0.112994193297    -2.493549037434    12.000000000000
         H           -1.470318130934     0.114425193297    -3.570863037434     1.007825032230
         H           -2.253491130934     0.287223193297    -2.005700037434     1.007825032230
         C           -0.643637130934    -1.210885806703    -2.096551037434    12.000000000000
         H           -1.121196130934    -2.078444806703    -2.549865037434     1.007825032230
         H           -0.682776130934    -1.336100806703    -1.012638037434     1.007825032230
         C            0.049320869066     0.096052193297     2.214627962566    12.000000000000
         C           -0.047023130934    -0.056033806703     3.730267962566    12.000000000000
         H            0.945523869066    -0.071499806703     4.182625962566     1.007825032230
         H           -0.605948130934     0.771851193297     4.168702962566     1.007825032230
         H           -0.554188130934    -0.984699806703     3.995617962566     1.007825032230
         C            0.763374869066     1.402957193297     1.879002962566    12.000000000000
         H            0.844893869066     1.536456193297     0.799320962566     1.007825032230
         H            0.219901869066     2.257646193297     2.284503962566     1.007825032230
         H            1.770978869066     1.413608193297     2.297235962566     1.007825032230
         C           -1.355690130934     0.115877193297     1.617307962566    12.000000000000
         H           -1.318759130934     0.233067193297     0.533458962566     1.007825032230
         H           -1.937990130934     0.943300193297     2.025653962566     1.007825032230
         H           -1.885594130934    -0.811909806703     1.838637962566     1.007825032230
         C            0.837220869066    -1.077432806703     1.637289962566    12.000000000000
         H            0.342000869066    -2.024423806703     1.857532962566     1.007825032230
         H            0.932063869066    -0.990249806703     0.554154962566     1.007825032230
         H            1.841938869066    -1.114836806703     2.061037962566     1.007825032230

  Charge       = 0
  Multiplicity = 1
  Basis Set: AUG-CC-PVQZ
    Blend: AUG-CC-PVQZ
  Basis Set: (AUG-CC-PVQZ AUX)
    Blend: AUG-CC-PVQZ-JKFIT

    Orbital Energies [Eh]
    ---------------------

    Doubly Occupied:

       1A    -11.225893     2A    -11.209879     3A    -11.209551
       4A    -11.209274     5A    -11.208916     6A    -11.207847
       7A    -11.204410     8A    -11.204382     9A    -11.204349
      10A    -11.204288    11A     -1.116743    12A     -1.106362
      13A     -0.957634    14A     -0.957159    15A     -0.929313
      16A     -0.928926    17A     -0.928798    18A     -0.777799
      19A     -0.768480    20A     -0.730615    21A     -0.653840
      22A     -0.645348    23A     -0.612906    24A     -0.612471
      25A     -0.609924    26A     -0.575293    27A     -0.572262
      28A     -0.551727    29A     -0.550416    30A     -0.509790
      31A     -0.509620    32A     -0.509390    33A     -0.476043
      34A     -0.475579    35A     -0.464905    36A     -0.464646
      37A     -0.460327    38A     -0.453292    39A     -0.452586
      40A     -0.449527    41A     -0.445776

  @DF-RHF Final Energy:  -391.65224337384018

   => Energetics <=

    Nuclear Repulsion Energy =            575.5673993364613352
    One-Electron Energy =               -1669.7467122694529280
    Two-Electron Energy =                 702.5270695591515278
    Total Energy =                       -391.6522433738401787

  Dipole Moment: [D]
     X:    -0.0071      Y:    -0.0150      Z:    -0.0548     Total:     0.0572

  Basis Set: (AUG-CC-PVQZ AUX)
    Blend: AUG-CC-PVQZ-RI
	 Reference Energy          =    -391.6522433738401787 [Eh]
	 Singles Energy            =      -0.0000000000000000 [Eh]
	 Same-Spin Energy          =      -0.4505370536247162 [Eh]
	 Opposite-Spin Energy      =      -1.7384576531981495 [Eh]
	 Correlation Energy        =      -2.1889947068228657 [Eh]
	 Total Energy              =    -393.8412380806630608 [Eh]

	 ================> DF-SCS-MP2 Energies <==================
	-----------------------------------------------------------
	 SCS Same-Spin Scale       =       0.3333333333333333 [-]
	 SCS Opposite-Spin Scale   =       1.2000000000000000 [-]
	 SCS Same-Spin Energy      =      -0.1501790178749054 [Eh]
	 SCS Opposite-Spin Energy  =      -2.0861491838377795 [Eh]
	 SCS Correlation Energy    =      -2.2363282017126851 [Eh]
	 SCS Total Energy          =    -393.8885715755528736 [Eh]
	-----------------------------------------------------------

*** Psi4 exiting successfully. Buy a developer a beer!
