                               Psi4 1.4a2.dev224

  ==> Input File <==

--------------------------------------------------------------------------
#Generated by lconvert.py for cbs job

memory 20 GB

molecule  {
0 1
  C       0.799910   -1.022050    0.687740
  H       0.853560   -1.122050   -0.398010
  H       1.491400   -1.744170    1.119720
  C       1.116890    0.424950    1.099660
  H       1.838140    0.890140    0.430450
  H       1.555570    0.439830    2.097080
  C      -0.244560    1.165690    1.102980
  H      -0.258080    2.000860    0.405320
  H      -0.448800    1.577000    2.090980
  C      -1.298710    0.103810    0.739310
  H      -1.473560    0.105240   -0.338000
  H      -2.256730    0.278040    1.227160
  C      -0.646880   -1.220070    1.136310
  H      -1.124440   -2.087630    0.682990
  H      -0.686020   -1.345280    2.220220
--
0 1
  C       0.094150    0.180480    7.600880
  C      -0.002200    0.028390    9.116510
  H       0.990350    0.012930    9.568870
  H      -0.561120    0.856280    9.554950
  H      -0.509360   -0.900270    9.381860
  C       0.808200    1.487380    7.265250
  H       0.889720    1.620880    6.185570
  H       0.264730    2.342070    7.670750
  H       1.815800    1.498040    7.683480
  C      -1.310870    0.200310    7.003560
  H      -1.273940    0.317490    5.919710
  H      -1.893170    1.027730    7.411900
  H      -1.840770   -0.727480    7.224880
  C       0.882040   -0.993010    7.023540
  H       0.386820   -1.940000    7.243780
  H       0.976890   -0.905820    5.940400
  H       1.886760   -1.030410    7.447280
units angstrom
no_reorient
symmetry c1
}

set {
scf_type DF
mp2_type DF
e_convergence 7
reference rhf
}

energy('mp2/aug-cc-pv[tq]z', bsse_type='cp')
--------------------------------------------------------------------------

    Molecular point group: c1
  Charge       = 0
  Multiplicity = 1
  Basis Set: AUG-CC-PVTZ
    Blend: AUG-CC-PVTZ
  Basis Set: (AUG-CC-PVTZ AUX)
    Blend: AUG-CC-PVTZ-JKFIT
  @DF-RHF Final Energy:  -196.40455368389843
    Total Energy =                       -196.4045536838984276
  Basis Set: (AUG-CC-PVTZ AUX)
    Blend: AUG-CC-PVTZ-RI
	 Reference Energy          =    -196.4045536838984276 [Eh]
	 Singles Energy            =      -0.0000000000000000 [Eh]
	 Same-Spin Energy          =      -0.2117338973573702 [Eh]
	 Opposite-Spin Energy      =      -0.7978224179939742 [Eh]
	 Correlation Energy        =      -1.0095563153513445 [Eh]
	 Total Energy              =    -197.4141099992497743 [Eh]
	 SCS Total Energy          =    -197.4325185512769849 [Eh]
    Molecular point group: c1
  Basis Set: AUG-CC-PVQZ
    Blend: AUG-CC-PVQZ
  Basis Set: (AUG-CC-PVQZ AUX)
    Blend: AUG-CC-PVQZ-JKFIT
  @DF-RHF Final Energy:  -196.41640030034512
    Total Energy =                       -196.4164003003451171
  Basis Set: (AUG-CC-PVQZ AUX)
  @DF-RHF Final Energy:  -196.40456510443090
    Total Energy =                       -196.4045651044309011
  @DF-RHF Final Energy:  -196.41640418461878
    Total Energy =                       -196.4164041846187843
  @DF-RHF Final Energy:  -195.23022281546417
    Total Energy =                       -195.2302228154641739
  @DF-RHF Final Energy:  -195.24170417428559
    Total Energy =                       -195.2417041742855872
  @DF-RHF Final Energy:  -195.23021081132836
    Total Energy =                       -195.2302108113283623
  @DF-RHF Final Energy:  -195.24169912501597
    Total Energy =                       -195.2416991250159697
  Multiplicity = 1
  @DF-RHF Final Energy:  -391.63476260902644
    Total Energy =                       -391.6347626090264384
	 Singles Energy            =      -0.0000000000000000 [Eh]
	 Same-Spin Energy          =      -0.4225952887293842 [Eh]
	 Opposite-Spin Energy      =      -1.5652443844111843 [Eh]
	 Correlation Energy        =      -1.9878396731405685 [Eh]
	 Total Energy              =    -393.6226022821670085 [Eh]
	 SCS Total Energy          =    -393.6539209665629642 [Eh]
    Molecular point group: c1

    Geometry (in Angstrom), charge = 0, multiplicity = 1:

       Center              X                  Y                   Z               Mass
    ------------   -----------------  -----------------  -----------------  -----------------
         C            0.778778780919    -1.060335161840    -3.637078580269    12.000000000000
         H            0.832428780919    -1.160335161840    -4.722828580269     1.007825032230
         H            1.470268780919    -1.782455161840    -3.205098580269     1.007825032230
         C            1.095758780919     0.386664838160    -3.225158580269    12.000000000000
         H            1.817008780919     0.851854838160    -3.894368580269     1.007825032230
         H            1.534438780919     0.401544838160    -2.227738580269     1.007825032230
         C           -0.265691219081     1.127404838160    -3.221838580269    12.000000000000
         H           -0.279211219081     1.962574838160    -3.919498580269     1.007825032230
         H           -0.469931219081     1.538714838160    -2.233838580269     1.007825032230
         C           -1.319841219081     0.065524838160    -3.585508580269    12.000000000000
         H           -1.494691219081     0.066954838160    -4.662818580269     1.007825032230
         H           -2.277861219081     0.239754838160    -3.097658580269     1.007825032230
         C           -0.668011219081    -1.258355161840    -3.188508580269    12.000000000000
         H           -1.145571219081    -2.125915161840    -3.641828580269     1.007825032230
         H           -0.707151219081    -1.383565161840    -2.104598580269     1.007825032230
         C            0.073018780919     0.142194838160     3.276061419731    12.000000000000
         C           -0.023331219081    -0.009895161840     4.791691419731    12.000000000000
         H            0.969218780919    -0.025355161840     5.244051419731     1.007825032230
         H           -0.582251219081     0.817994838160     5.230131419731     1.007825032230
         H           -0.530491219081    -0.938555161840     5.057041419731     1.007825032230
         C            0.787068780919     1.449094838160     2.940431419731    12.000000000000
         H            0.868588780919     1.582594838160     1.860751419731     1.007825032230
         H            0.243598780919     2.303784838160     3.345931419731     1.007825032230
         H            1.794668780919     1.459754838160     3.358661419731     1.007825032230
         C           -1.332001219081     0.162024838160     2.678741419731    12.000000000000
         H           -1.295071219081     0.279204838160     1.594891419731     1.007825032230
         H           -1.914301219081     0.989444838160     3.087081419731     1.007825032230
         H           -1.861901219081    -0.765765161840     2.900061419731     1.007825032230
         C            0.860908780919    -1.031295161840     2.698721419731    12.000000000000
         H            0.365688780919    -1.978285161840     2.918961419731     1.007825032230
         H            0.955758780919    -0.944105161840     1.615581419731     1.007825032230
         H            1.865628780919    -1.068695161840     3.122461419731     1.007825032230

  Charge       = 0
  Multiplicity = 1
  Basis Set: AUG-CC-PVQZ
    Blend: AUG-CC-PVQZ
  Basis Set: (AUG-CC-PVQZ AUX)
    Blend: AUG-CC-PVQZ-JKFIT

    Orbital Energies [Eh]
    ---------------------

    Doubly Occupied:

       1A    -11.226150     2A    -11.209652     3A    -11.209251
       4A    -11.209205     5A    -11.208642     6A    -11.208425
       7A    -11.205105     8A    -11.205086     9A    -11.204956
      10A    -11.204796    11A     -1.115818    12A     -1.106577
      13A     -0.956765    14A     -0.956367    15A     -0.929284
      16A     -0.928987    17A     -0.928737    18A     -0.776824
      19A     -0.767648    20A     -0.730344    21A     -0.650100
      22A     -0.644765    23A     -0.612560    24A     -0.612389
      25A     -0.611950    26A     -0.570397    27A     -0.568511
      28A     -0.553597    29A     -0.553211    30A     -0.509912
      31A     -0.509826    32A     -0.509770    33A     -0.475074
      34A     -0.474673    35A     -0.464225    36A     -0.460464
      37A     -0.460027    38A     -0.453159    39A     -0.452972
      40A     -0.452786    41A     -0.449191

  @DF-RHF Final Energy:  -391.65808301096149

   => Energetics <=

    Nuclear Repulsion Energy =            518.2785249795924756
    One-Electron Energy =               -1555.1968693012954645
    Two-Electron Energy =                 645.2602613107414982
    Total Energy =                       -391.6580830109614908

  Dipole Moment: [D]
     X:    -0.0077      Y:    -0.0168      Z:    -0.0004     Total:     0.0185

  Basis Set: (AUG-CC-PVQZ AUX)
    Blend: AUG-CC-PVQZ-RI
	 Reference Energy          =    -391.6580830109614908 [Eh]
	 Singles Energy            =      -0.0000000000000000 [Eh]
	 Same-Spin Energy          =      -0.4460445438935879 [Eh]
	 Opposite-Spin Energy      =      -1.7326540334079090 [Eh]
	 Correlation Energy        =      -2.1786985773014971 [Eh]
	 Total Energy              =    -393.8367815882629657 [Eh]

	 ================> DF-SCS-MP2 Energies <==================
	-----------------------------------------------------------
	 SCS Same-Spin Scale       =       0.3333333333333333 [-]
	 SCS Opposite-Spin Scale   =       1.2000000000000000 [-]
	 SCS Same-Spin Energy      =      -0.1486815146311960 [Eh]
	 SCS Opposite-Spin Energy  =      -2.0791848400894906 [Eh]
	 SCS Correlation Energy    =      -2.2278663547206867 [Eh]
	 SCS Total Energy          =    -393.8859493656821655 [Eh]
	-----------------------------------------------------------

*** Psi4 exiting successfully. Buy a developer a beer!
