                               Psi4 1.4a2.dev224

  ==> Input File <==

--------------------------------------------------------------------------
#Generated by lconvert.py for cbs job

memory 40 GB

molecule  {
0 1
  C        0.7999140    -1.0220520     0.6877370
  H        0.8535560    -1.1220510    -0.3980140
  H        1.4914020    -1.7441690     1.1197200
  C        1.1168870     0.4249530     1.0996620
  H        1.8381420     0.8901450     0.4304530
  H        1.5555700     0.4398250     2.0970840
  C       -0.2445590     1.1656900     1.1029770
  H       -0.2580780     2.0008630     0.4053230
  H       -0.4488040     1.5769960     2.0909840
  C       -1.2987140     0.1038120     0.7393090
  H       -1.4735610     0.1052430    -0.3380050
  H       -2.2567340     0.2780410     1.2271580
  C       -0.6468800    -1.2200680     1.1363070
  H       -1.1244390    -2.0876270     0.6829930
  H       -0.6860190    -1.3452830     2.2202200
--
0 1
  C        0.0345810     0.0644800     4.9324220
  C       -0.0617630    -0.0876060     6.4480620
  H        0.9307830    -0.1030730     6.9004200
  H       -0.6206880     0.7402780     6.8864970
  H       -0.5689280    -1.0162720     6.7134120
  C        0.7486340     1.3713850     4.5967970
  H        0.8301540     1.5048840     3.5171150
  H        0.2051620     2.2260730     5.0022980
  H        1.7562390     1.3820350     5.0150300
  C       -1.3704310     0.0843040     4.3351020
  H       -1.3334990     0.2014940     3.2512530
  H       -1.9527300     0.9117280     4.7434480
  H       -1.9003340    -0.8434830     4.5564320
  C        0.8224810    -1.1090050     4.3550840
  H        0.3272610    -2.0559960     4.5753270
  H        0.9173240    -1.0218220     3.2719490
  H        1.8271990    -1.1464100     4.7788320
units angstrom
no_reorient
symmetry c1
}

set {
scf_type DF
mp2_type DF
e_convergence 7
reference rhf
}

energy('mp2/aug-cc-pv[tq]z', bsse_type='cp')
--------------------------------------------------------------------------

    Molecular point group: c1
  Charge       = 0
  Multiplicity = 1
  Basis Set: AUG-CC-PVTZ
    Blend: AUG-CC-PVTZ
  Basis Set: (AUG-CC-PVTZ AUX)
    Blend: AUG-CC-PVTZ-JKFIT
  @DF-RHF Final Energy:  -196.40455362470126
    Total Energy =                       -196.4045536247012933
  Basis Set: (AUG-CC-PVTZ AUX)
    Blend: AUG-CC-PVTZ-RI
	 Reference Energy          =    -196.4045536247012649 [Eh]
	 Singles Energy            =      -0.0000000000000000 [Eh]
	 Same-Spin Energy          =      -0.2117338518098335 [Eh]
	 Opposite-Spin Energy      =      -0.7978224819140446 [Eh]
	 Correlation Energy        =      -1.0095563337238782 [Eh]
	 Total Energy              =    -197.4141099584251435 [Eh]
	 SCS Total Energy          =    -197.4325185536013976 [Eh]
    Molecular point group: c1
  Basis Set: AUG-CC-PVQZ
    Blend: AUG-CC-PVQZ
  Basis Set: (AUG-CC-PVQZ AUX)
    Blend: AUG-CC-PVQZ-JKFIT
  @DF-RHF Final Energy:  -196.41640023164982
    Total Energy =                       -196.4164002316497886
  Basis Set: (AUG-CC-PVQZ AUX)
  @DF-RHF Final Energy:  -196.40465487015652
    Total Energy =                       -196.4046548701564916
  @DF-RHF Final Energy:  -196.41642654814996
    Total Energy =                       -196.4164265481499569
  @DF-RHF Final Energy:  -195.23032671264937
    Total Energy =                       -195.2303267126493722
  @DF-RHF Final Energy:  -195.24173217284618
    Total Energy =                       -195.2417321728461843
  @DF-RHF Final Energy:  -195.23021071669362
    Total Energy =                       -195.2302107166936196
  @DF-RHF Final Energy:  -195.24169901714686
    Total Energy =                       -195.2416990171468569
  Multiplicity = 1
  @DF-RHF Final Energy:  -391.61120829185751
    Total Energy =                       -391.6112082918575652
	 Singles Energy            =      -0.0000000000000000 [Eh]
	 Same-Spin Energy          =      -0.4326380472448834 [Eh]
	 Opposite-Spin Energy      =      -1.5807865257935507 [Eh]
	 Correlation Energy        =      -2.0134245730384341 [Eh]
	 Total Energy              =    -393.6246328648959434 [Eh]
	 SCS Total Energy          =    -393.6523648052247495 [Eh]
    Molecular point group: c1

    Geometry (in Angstrom), charge = 0, multiplicity = 1:

       Center              X                  Y                   Z               Mass
    ------------   -----------------  -----------------  -----------------  -----------------
         C            0.808987044500    -1.001515955218    -2.283937869538    12.000000000000
         H            0.862629044500    -1.101514955218    -3.369688869538     1.007825032230
         H            1.500475044500    -1.723632955218    -1.851954869538     1.007825032230
         C            1.125960044500     0.445489044782    -1.872012869538    12.000000000000
         H            1.847215044500     0.910681044782    -2.541221869538     1.007825032230
         H            1.564643044500     0.460361044782    -0.874590869538     1.007825032230
         C           -0.235485955500     1.186226044782    -1.868697869538    12.000000000000
         H           -0.249004955500     2.021399044782    -2.566351869538     1.007825032230
         H           -0.439730955500     1.597532044782    -0.880690869538     1.007825032230
         C           -1.289640955500     0.124348044782    -2.232365869538    12.000000000000
         H           -1.464487955500     0.125779044782    -3.309679869538     1.007825032230
         H           -2.247660955500     0.298577044782    -1.744516869538     1.007825032230
         C           -0.637806955500    -1.199531955218    -1.835367869538    12.000000000000
         H           -1.115365955500    -2.067090955218    -2.288681869538     1.007825032230
         H           -0.676945955500    -1.324746955218    -0.751454869538     1.007825032230
         C            0.043654044500     0.085016044782     1.960747130462    12.000000000000
         C           -0.052689955500    -0.067069955218     3.476387130462    12.000000000000
         H            0.939856044500    -0.082536955218     3.928745130462     1.007825032230
         H           -0.611614955500     0.760814044782     3.914822130462     1.007825032230
         H           -0.559854955500    -0.995735955218     3.741737130462     1.007825032230
         C            0.757707044500     1.391921044782     1.625122130462    12.000000000000
         H            0.839227044500     1.525420044782     0.545440130462     1.007825032230
         H            0.214235044500     2.246609044782     2.030623130462     1.007825032230
         H            1.765312044500     1.402571044782     2.043355130462     1.007825032230
         C           -1.361357955500     0.104840044782     1.363427130462    12.000000000000
         H           -1.324425955500     0.222030044782     0.279578130462     1.007825032230
         H           -1.943656955500     0.932264044782     1.771773130462     1.007825032230
         H           -1.891260955500    -0.822946955218     1.584757130462     1.007825032230
         C            0.831554044500    -1.088468955218     1.383409130462    12.000000000000
         H            0.336334044500    -2.035459955218     1.603652130462     1.007825032230
         H            0.926397044500    -1.001285955218     0.300274130462     1.007825032230
         H            1.836272044500    -1.125873955218     1.807157130462     1.007825032230

  Charge       = 0
  Multiplicity = 1
  Basis Set: AUG-CC-PVQZ
    Blend: AUG-CC-PVQZ
  Basis Set: (AUG-CC-PVQZ AUX)
    Blend: AUG-CC-PVQZ-JKFIT

    Orbital Energies [Eh]
    ---------------------

    Doubly Occupied:

       1A    -11.224865     2A    -11.209916     3A    -11.209834
       4A    -11.209094     5A    -11.208566     6A    -11.206196
       7A    -11.203182     8A    -11.202074     9A    -11.201896
      10A    -11.201557    11A     -1.119360    12A     -1.104801
      13A     -0.960053    14A     -0.959249    15A     -0.928620
      16A     -0.928160    17A     -0.927854    18A     -0.779989
      19A     -0.769815    20A     -0.731027    21A     -0.661768
      22A     -0.646119    23A     -0.613806    24A     -0.612515
      25A     -0.603918    26A     -0.585091    27A     -0.580770
      28A     -0.546344    29A     -0.542951    30A     -0.508945
      31A     -0.506865    32A     -0.506200    33A     -0.477298
      34A     -0.476481    35A     -0.466064    36A     -0.465420
      37A     -0.460777    38A     -0.453136    39A     -0.451043
      40A     -0.449471    41A     -0.437798

  @DF-RHF Final Energy:  -391.63442066980758

   => Energetics <=

    Nuclear Repulsion Energy =            596.9112316565407355
    One-Electron Energy =               -1712.4135302640424925
    Two-Electron Energy =                 723.8678779376942884
    Total Energy =                       -391.6344206698075823

  Dipole Moment: [D]
     X:     0.0003      Y:    -0.0008      Z:    -0.1745     Total:     0.1745

  Basis Set: (AUG-CC-PVQZ AUX)
    Blend: AUG-CC-PVQZ-RI
	 Reference Energy          =    -391.6344206698075823 [Eh]
	 Singles Energy            =      -0.0000000000000000 [Eh]
	 Same-Spin Energy          =      -0.4557894429361762 [Eh]
	 Opposite-Spin Energy      =      -1.7449755130261786 [Eh]
	 Correlation Energy        =      -2.2007649559623550 [Eh]
	 Total Energy              =    -393.8351856257699524 [Eh]

	 ================> DF-SCS-MP2 Energies <==================
	-----------------------------------------------------------
	 SCS Same-Spin Scale       =       0.3333333333333333 [-]
	 SCS Opposite-Spin Scale   =       1.2000000000000000 [-]
	 SCS Same-Spin Energy      =      -0.1519298143120587 [Eh]
	 SCS Opposite-Spin Energy  =      -2.0939706156314144 [Eh]
	 SCS Correlation Energy    =      -2.2459004299434731 [Eh]
	 SCS Total Energy          =    -393.8803210997510291 [Eh]
	-----------------------------------------------------------

*** Psi4 exiting successfully. Buy a developer a beer!
