                               Psi4 1.4a2.dev224

  ==> Input File <==

--------------------------------------------------------------------------
#Generated by lconvert.py for cbs job

memory 40 GB

molecule  {
0 1
  C        0.7999140    -1.0220520     0.6877370
  H        0.8535560    -1.1220510    -0.3980140
  H        1.4914020    -1.7441690     1.1197200
  C        1.1168870     0.4249530     1.0996620
  H        1.8381420     0.8901450     0.4304530
  H        1.5555700     0.4398250     2.0970840
  C       -0.2445590     1.1656900     1.1029770
  H       -0.2580780     2.0008630     0.4053230
  H       -0.4488040     1.5769960     2.0909840
  C       -1.2987140     0.1038120     0.7393090
  H       -1.4735610     0.1052430    -0.3380050
  H       -2.2567340     0.2780410     1.2271580
  C       -0.6468800    -1.2200680     1.1363070
  H       -1.1244390    -2.0876270     0.6829930
  H       -0.6860190    -1.3452830     2.2202200
--
0 1
  C        0.0270910     0.0498930     4.5968640
  C       -0.0692540    -0.1021930     6.1125040
  H        0.9232930    -0.1176600     6.5648610
  H       -0.6281780     0.7256910     6.5509390
  H       -0.5764180    -1.0308590     6.3778540
  C        0.7411440     1.3567980     4.2612390
  H        0.8226630     1.4902970     3.1815570
  H        0.1976720     2.2114860     4.6667400
  H        1.7487480     1.3674480     4.6794720
  C       -1.3779210     0.0697170     3.9995440
  H       -1.3409900     0.1869070     2.9156950
  H       -1.9602210     0.8971410     4.4078900
  H       -1.9078240    -0.8580700     4.2208730
  C        0.8149900    -1.1235920     4.0195250
  H        0.3197700    -2.0705830     4.2397690
  H        0.9098340    -1.0364100     2.9363910
  H        1.8197090    -1.1609970     4.4432740
units angstrom
no_reorient
symmetry c1
}

set {
scf_type DF
mp2_type DF
e_convergence 7
reference rhf
}

energy('mp2/aug-cc-pv[tq]z', bsse_type='cp')
--------------------------------------------------------------------------

    Molecular point group: c1
  Charge       = 0
  Multiplicity = 1
  Basis Set: AUG-CC-PVTZ
    Blend: AUG-CC-PVTZ
  Basis Set: (AUG-CC-PVTZ AUX)
    Blend: AUG-CC-PVTZ-JKFIT
  @DF-RHF Final Energy:  -196.40455362990761
    Total Energy =                       -196.4045536299075820
  Basis Set: (AUG-CC-PVTZ AUX)
    Blend: AUG-CC-PVTZ-RI
	 Reference Energy          =    -196.4045536299076105 [Eh]
	 Singles Energy            =      -0.0000000000000000 [Eh]
	 Same-Spin Energy          =      -0.2117338515377340 [Eh]
	 Opposite-Spin Energy      =      -0.7978224763396602 [Eh]
	 Correlation Energy        =      -1.0095563278773942 [Eh]
	 Total Energy              =    -197.4141099577850014 [Eh]
	 SCS Total Energy          =    -197.4325185520277728 [Eh]
    Molecular point group: c1
  Basis Set: AUG-CC-PVQZ
    Blend: AUG-CC-PVQZ
  Basis Set: (AUG-CC-PVQZ AUX)
    Blend: AUG-CC-PVQZ-JKFIT
  @DF-RHF Final Energy:  -196.41640023944569
    Total Energy =                       -196.4164002394456929
  Basis Set: (AUG-CC-PVQZ AUX)
  @DF-RHF Final Energy:  -196.40468932914592
    Total Energy =                       -196.4046893291459241
  @DF-RHF Final Energy:  -196.41643354023765
    Total Energy =                       -196.4164335402376196
  @DF-RHF Final Energy:  -195.23036302727630
    Total Energy =                       -195.2303630272762973
  @DF-RHF Final Energy:  -195.24174097387197
    Total Energy =                       -195.2417409738719698
  @DF-RHF Final Energy:  -195.23021071552040
    Total Energy =                       -195.2302107155203998
  @DF-RHF Final Energy:  -195.24169901851843
    Total Energy =                       -195.2416990185184318
  @DF-RHF Final Energy:  -391.57850991584547
    Total Energy =                       -391.5785099158455296
  @DF-RHF Final Energy:  -391.60169673885338
    Total Energy =                       -391.6016967388533203
*** Psi4 exiting successfully. Buy a developer a beer!
                               Psi4 1.4a2.dev224
  @DF-RHF Final Energy:  -196.40455362470126
    Total Energy =                       -196.4045536247012933
  @DF-RHF Final Energy:  -196.41640023164982
    Total Energy =                       -196.4164002316497886
  @DF-RHF Final Energy:  -196.40465487015652
    Total Energy =                       -196.4046548701564916
  @DF-RHF Final Energy:  -196.41642654814996
    Total Energy =                       -196.4164265481499569
  @DF-RHF Final Energy:  -195.23032671264937
    Total Energy =                       -195.2303267126493722
  @DF-RHF Final Energy:  -195.24173217284618
    Total Energy =                       -195.2417321728461843
  @DF-RHF Final Energy:  -195.23021071669362
    Total Energy =                       -195.2302107166936196
  @DF-RHF Final Energy:  -195.24169901714686
    Total Energy =                       -195.2416990171468569
  @DF-RHF Final Energy:  -391.61120829185751
    Total Energy =                       -391.6112082918575652
  @DF-RHF Final Energy:  -391.63442066980758
    Total Energy =                       -391.6344206698075823
*** Psi4 exiting successfully. Buy a developer a beer!
                               Psi4 1.4a2.dev224
                               Psi4 1.4a2.dev224
                               Psi4 1.4a2.dev224
                               Psi4 1.4a2.dev224
                               Psi4 1.4a2.dev224
                               Psi4 1.4a2.dev224
                               Psi4 1.4a2.dev224
  @DF-RHF Final Energy:  -196.40455368389843
    Total Energy =                       -196.4045536838984276
  @DF-RHF Final Energy:  -196.41640030034512
    Total Energy =                       -196.4164003003451171
  @DF-RHF Final Energy:  -196.40456510443090
    Total Energy =                       -196.4045651044309011
  @DF-RHF Final Energy:  -196.41640418461878
    Total Energy =                       -196.4164041846187843
  @DF-RHF Final Energy:  -195.23022281546417
    Total Energy =                       -195.2302228154641739
  @DF-RHF Final Energy:  -195.24170417428559
    Total Energy =                       -195.2417041742855872
  @DF-RHF Final Energy:  -195.23021081132836
    Total Energy =                       -195.2302108113283623
  @DF-RHF Final Energy:  -195.24169912501597
    Total Energy =                       -195.2416991250159697
  @DF-RHF Final Energy:  -391.63476260902644
    Total Energy =                       -391.6347626090264384
  @DF-RHF Final Energy:  -391.65808301096149
    Total Energy =                       -391.6580830109614908
*** Psi4 exiting successfully. Buy a developer a beer!
                               Psi4 1.4a2.dev224
  @DF-RHF Final Energy:  -196.40455378839874
    Total Energy =                       -196.4045537883987436
  @DF-RHF Final Energy:  -196.41640040565770
    Total Energy =                       -196.4164004056576687
  @DF-RHF Final Energy:  -196.40455837948855
    Total Energy =                       -196.4045583794885488
  @DF-RHF Final Energy:  -196.41640223846230
    Total Energy =                       -196.4164022384622967
  @DF-RHF Final Energy:  -195.23021466493472
    Total Energy =                       -195.2302146649347208
  @DF-RHF Final Energy:  -195.24170142181654
    Total Energy =                       -195.2417014218165434
  @DF-RHF Final Energy:  -195.23021081206272
    Total Energy =                       -195.2302108120627224
  @DF-RHF Final Energy:  -195.24169912087601
    Total Energy =                       -195.2416991208760066
  Multiplicity = 1
  @DF-RHF Final Energy:  -391.63476346611623
    Total Energy =                       -391.6347634661162829
	 Singles Energy            =      -0.0000000000000000 [Eh]
	 Same-Spin Energy          =      -0.4223364026589093 [Eh]
	 Opposite-Spin Energy      =      -1.5645978898363242 [Eh]
	 Correlation Energy        =      -1.9869342924952336 [Eh]
	 Total Energy              =    -393.6216977586114467 [Eh]
	 SCS Total Energy          =    -393.6530597348061065 [Eh]
    Molecular point group: c1

    Geometry (in Angstrom), charge = 0, multiplicity = 1:

       Center              X                  Y                   Z               Mass
    ------------   -----------------  -----------------  -----------------  -----------------
         C            0.767385340406    -1.082527125199    -4.147550968062    12.000000000000
         H            0.821035340406    -1.182527125199    -5.233300968062     1.007825032230
         H            1.458875340406    -1.804647125199    -3.715570968062     1.007825032230
         C            1.084365340406     0.364472874801    -3.735630968062    12.000000000000
         H            1.805615340406     0.829662874801    -4.404840968062     1.007825032230
         H            1.523045340406     0.379352874801    -2.738210968062     1.007825032230
         C           -0.277084659594     1.105212874801    -3.732310968062    12.000000000000
         H           -0.290604659594     1.940382874801    -4.429970968062     1.007825032230
         H           -0.481324659594     1.516522874801    -2.744310968062     1.007825032230
         C           -1.331234659594     0.043332874801    -4.095980968062    12.000000000000
         H           -1.506084659594     0.044762874801    -5.173290968062     1.007825032230
         H           -2.289254659594     0.217562874801    -3.608130968062     1.007825032230
         C           -0.679404659594    -1.280547125199    -3.698980968062    12.000000000000
         H           -1.156964659594    -2.148107125199    -4.152300968062     1.007825032230
         H           -0.718544659594    -1.405757125199    -2.615070968062     1.007825032230
         C            0.084085340406     0.163762874801     3.772259031938    12.000000000000
         C           -0.012254659594     0.011672874801     5.287899031938    12.000000000000
         H            0.980295340406    -0.003787125199     5.740259031938     1.007825032230
         H           -0.571174659594     0.839562874801     5.726329031938     1.007825032230
         H           -0.519414659594    -0.916987125199     5.553249031938     1.007825032230
         C            0.798145340406     1.470672874801     3.436629031938    12.000000000000
         H            0.879665340406     1.604162874801     2.356949031938     1.007825032230
         H            0.254675340406     2.325352874801     3.842129031938     1.007825032230
         H            1.805745340406     1.481322874801     3.854869031938     1.007825032230
         C           -1.320924659594     0.183592874801     3.174939031938    12.000000000000
         H           -1.283994659594     0.300772874801     2.091089031938     1.007825032230
         H           -1.903224659594     1.011012874801     3.583289031938     1.007825032230
         H           -1.850824659594    -0.744197125199     3.396269031938     1.007825032230
         C            0.871985340406    -1.009717125199     3.194919031938    12.000000000000
         H            0.376765340406    -1.956707125199     3.415159031938     1.007825032230
         H            0.966835340406    -0.922537125199     2.111789031938     1.007825032230
         H            1.876705340406    -1.047127125199     3.618669031938     1.007825032230

  Charge       = 0
  Multiplicity = 1
  Basis Set: AUG-CC-PVQZ
    Blend: AUG-CC-PVQZ
  Basis Set: (AUG-CC-PVQZ AUX)
    Blend: AUG-CC-PVQZ-JKFIT

    Orbital Energies [Eh]
    ---------------------

    Doubly Occupied:

       1A    -11.226035     2A    -11.209527     3A    -11.209139
       4A    -11.209097     5A    -11.208519     6A    -11.208335
       7A    -11.204961     8A    -11.204940     9A    -11.204848
      10A    -11.204709    11A     -1.115700    12A     -1.106455
      13A     -0.956656    14A     -0.956245    15A     -0.929144
      16A     -0.928881    17A     -0.928621    18A     -0.776724
      19A     -0.767523    20A     -0.730224    21A     -0.649975
      22A     -0.644659    23A     -0.612444    24A     -0.612271
      25A     -0.611817    26A     -0.570255    27A     -0.568398
      28A     -0.553476    29A     -0.553090    30A     -0.509793
      31A     -0.509694    32A     -0.509656    33A     -0.474975
      34A     -0.474559    35A     -0.464103    36A     -0.460331
      37A     -0.459927    38A     -0.453040    39A     -0.452861
      40A     -0.452690    41A     -0.449047

  @DF-RHF Final Energy:  -391.65809411657870

   => Energetics <=

    Nuclear Repulsion Energy =            501.7423976541881530
    One-Electron Energy =               -1522.1342998459126648
    Two-Electron Energy =                 628.7338080751458165
    Total Energy =                       -391.6580941165786953

  Dipole Moment: [D]
     X:    -0.0068      Y:    -0.0154      Z:    -0.0003     Total:     0.0168

  Basis Set: (AUG-CC-PVQZ AUX)
    Blend: AUG-CC-PVQZ-RI
	 Reference Energy          =    -391.6580941165786953 [Eh]
	 Singles Energy            =      -0.0000000000000000 [Eh]
	 Same-Spin Energy          =      -0.4458282077079055 [Eh]
	 Opposite-Spin Energy      =      -1.7323326253866902 [Eh]
	 Correlation Energy        =      -2.1781608330945956 [Eh]
	 Total Energy              =    -393.8362549496732754 [Eh]

	 ================> DF-SCS-MP2 Energies <==================
	-----------------------------------------------------------
	 SCS Same-Spin Scale       =       0.3333333333333333 [-]
	 SCS Opposite-Spin Scale   =       1.2000000000000000 [-]
	 SCS Same-Spin Energy      =      -0.1486094025693018 [Eh]
	 SCS Opposite-Spin Energy  =      -2.0787991504640280 [Eh]
	 SCS Correlation Energy    =      -2.2274085530333299 [Eh]
	 SCS Total Energy          =    -393.8855026696120376 [Eh]
	-----------------------------------------------------------

*** Psi4 exiting successfully. Buy a developer a beer!
