                               Psi4 1.4a2.dev224

  ==> Input File <==

--------------------------------------------------------------------------
#Generated by lconvert.py for cbs job

memory 40 GB

molecule  {
0 1
  C        0.7999140    -1.0220520     0.6877370
  H        0.8535560    -1.1220510    -0.3980140
  H        1.4914020    -1.7441690     1.1197200
  C        1.1168870     0.4249530     1.0996620
  H        1.8381420     0.8901450     0.4304530
  H        1.5555700     0.4398250     2.0970840
  C       -0.2445590     1.1656900     1.1029770
  H       -0.2580780     2.0008630     0.4053230
  H       -0.4488040     1.5769960     2.0909840
  C       -1.2987140     0.1038120     0.7393090
  H       -1.4735610     0.1052430    -0.3380050
  H       -2.2567340     0.2780410     1.2271580
  C       -0.6468800    -1.2200680     1.1363070
  H       -1.1244390    -2.0876270     0.6829930
  H       -0.6860190    -1.3452830     2.2202200
--
0 1
  C        0.0497510     0.0940220     5.6120090
  C       -0.0465930    -0.0580640     7.1276490
  H        0.9459530    -0.0735300     7.5800070
  H       -0.6055180     0.7698210     7.5660840
  H       -0.5537580    -0.9867300     7.3929990
  C        0.7638040     1.4009270     5.2763840
  H        0.8453240     1.5344260     4.1967020
  H        0.2203320     2.2556160     5.6818850
  H        1.7714090     1.4115780     5.6946170
  C       -1.3552610     0.1138470     5.0146890
  H       -1.3183290     0.2310370     3.9308400
  H       -1.9375600     0.9412700     5.4230350
  H       -1.8851640    -0.8139400     5.2360190
  C        0.8376510    -1.0794630     5.0346710
  H        0.3424300    -2.0264540     5.2549140
  H        0.9324940    -0.9922800     3.9515360
  H        1.8423690    -1.1168670     5.4584190
units angstrom
no_reorient
symmetry c1
}

set {
scf_type DF
mp2_type DF
e_convergence 7
reference rhf
}

energy('mp2/aug-cc-pv[tq]z', bsse_type='cp')
--------------------------------------------------------------------------

    Molecular point group: c1
  Charge       = 0
  Multiplicity = 1
  Basis Set: AUG-CC-PVTZ
    Blend: AUG-CC-PVTZ
  Basis Set: (AUG-CC-PVTZ AUX)
    Blend: AUG-CC-PVTZ-JKFIT
  @DF-RHF Final Energy:  -196.40455361428687
    Total Energy =                       -196.4045536142868400
  Basis Set: (AUG-CC-PVTZ AUX)
    Blend: AUG-CC-PVTZ-RI
	 Reference Energy          =    -196.4045536142868684 [Eh]
	 Singles Energy            =      -0.0000000000000000 [Eh]
	 Same-Spin Energy          =      -0.2117338520280981 [Eh]
	 Opposite-Spin Energy      =      -0.7978224899990451 [Eh]
	 Correlation Energy        =      -1.0095563420271432 [Eh]
	 Total Energy              =    -197.4141099563140074 [Eh]
	 SCS Total Energy          =    -197.4325185529617670 [Eh]
    Molecular point group: c1
  Basis Set: AUG-CC-PVQZ
    Blend: AUG-CC-PVQZ
  Basis Set: (AUG-CC-PVQZ AUX)
    Blend: AUG-CC-PVQZ-JKFIT
  @DF-RHF Final Energy:  -196.41640022133470
    Total Energy =                       -196.4164002213346976
  Basis Set: (AUG-CC-PVQZ AUX)
  @DF-RHF Final Energy:  -196.40461128548887
    Total Energy =                       -196.4046112854888975
  @DF-RHF Final Energy:  -196.41641561623280
    Total Energy =                       -196.4164156162328254
  @DF-RHF Final Energy:  -195.23027959404601
    Total Energy =                       -195.2302795940460101
  @DF-RHF Final Energy:  -195.24171832354725
    Total Energy =                       -195.2417183235472464
  @DF-RHF Final Energy:  -195.23021071697065
    Total Energy =                       -195.2302107169706460
  @DF-RHF Final Energy:  -195.24169901906112
    Total Energy =                       -195.2416990190611159
  Multiplicity = 1
  @DF-RHF Final Energy:  -391.63116365827278
    Total Energy =                       -391.6311636582728397
	 Singles Energy            =      -0.0000000000000000 [Eh]
	 Same-Spin Energy          =      -0.4263035871590424 [Eh]
	 Opposite-Spin Energy      =      -1.5717145248063411 [Eh]
	 Correlation Energy        =      -1.9980181119653835 [Eh]
	 Total Energy              =    -393.6291817702381763 [Eh]
	 SCS Total Energy          =    -393.6593222837600479 [Eh]
    Molecular point group: c1

    Geometry (in Angstrom), charge = 0, multiplicity = 1:

       Center              X                  Y                   Z               Mass
    ------------   -----------------  -----------------  -----------------  -----------------
         C            0.801294515017    -1.016496505554    -2.628548802395    12.000000000000
         H            0.854936515017    -1.116495505554    -3.714299802395     1.007825032230
         H            1.492782515017    -1.738613505554    -2.196565802395     1.007825032230
         C            1.118267515017     0.430508494446    -2.216623802395    12.000000000000
         H            1.839522515017     0.895700494446    -2.885832802395     1.007825032230
         H            1.556950515017     0.445380494446    -1.219201802395     1.007825032230
         C           -0.243178484983     1.171245494446    -2.213308802395    12.000000000000
         H           -0.256697484983     2.006418494446    -2.910962802395     1.007825032230
         H           -0.447423484983     1.582551494446    -1.225301802395     1.007825032230
         C           -1.297333484983     0.109367494446    -2.576976802395    12.000000000000
         H           -1.472180484983     0.110798494446    -3.654290802395     1.007825032230
         H           -2.255353484983     0.283596494446    -2.089127802395     1.007825032230
         C           -0.645499484983    -1.214512505554    -2.179978802395    12.000000000000
         H           -1.123058484983    -2.082071505554    -2.633292802395     1.007825032230
         H           -0.684638484983    -1.339727505554    -1.096065802395     1.007825032230
         C            0.051131515017     0.099577494446     2.295723197605    12.000000000000
         C           -0.045212484983    -0.052508505554     3.811363197605    12.000000000000
         H            0.947333515017    -0.067974505554     4.263721197605     1.007825032230
         H           -0.604137484983     0.775376494446     4.249798197605     1.007825032230
         H           -0.552377484983    -0.981174505554     4.076713197605     1.007825032230
         C            0.765184515017     1.406482494446     1.960098197605    12.000000000000
         H            0.846704515017     1.539981494446     0.880416197605     1.007825032230
         H            0.221712515017     2.261171494446     2.365599197605     1.007825032230
         H            1.772789515017     1.417133494446     2.378331197605     1.007825032230
         C           -1.353880484983     0.119402494446     1.698403197605    12.000000000000
         H           -1.316948484983     0.236592494446     0.614554197605     1.007825032230
         H           -1.936179484983     0.946825494446     2.106749197605     1.007825032230
         H           -1.883783484983    -0.808384505554     1.919733197605     1.007825032230
         C            0.839031515017    -1.073907505554     1.718385197605    12.000000000000
         H            0.343810515017    -2.020898505554     1.938628197605     1.007825032230
         H            0.933874515017    -0.986724505554     0.635250197605     1.007825032230
         H            1.843749515017    -1.111311505554     2.142133197605     1.007825032230

  Charge       = 0
  Multiplicity = 1
  Basis Set: AUG-CC-PVQZ
    Blend: AUG-CC-PVQZ
  Basis Set: (AUG-CC-PVQZ AUX)
    Blend: AUG-CC-PVQZ-JKFIT

    Orbital Energies [Eh]
    ---------------------

    Doubly Occupied:

       1A    -11.226046     2A    -11.209917     3A    -11.209542
       4A    -11.209286     5A    -11.208934     6A    -11.208116
       7A    -11.204732     8A    -11.204697     9A    -11.204666
      10A    -11.204538    11A     -1.116480    12A     -1.106537
      13A     -0.957392    14A     -0.956957    15A     -0.929417
      16A     -0.929029    17A     -0.928849    18A     -0.777516
      19A     -0.768301    20A     -0.730593    21A     -0.652601
      22A     -0.645243    23A     -0.612846    24A     -0.612504
      25A     -0.610837    26A     -0.573631    27A     -0.570961
      28A     -0.552553    29A     -0.551586    30A     -0.509915
      31A     -0.509877    32A     -0.509671    33A     -0.475719
      34A     -0.475469    35A     -0.464752    36A     -0.464055
      37A     -0.460290    38A     -0.453338    39A     -0.452791
      40A     -0.449533    41A     -0.447523

  @DF-RHF Final Energy:  -391.65441206092328

   => Energetics <=

    Nuclear Repulsion Energy =            569.5786673113748293
    One-Electron Energy =               -1657.7716776215729624
    Two-Electron Energy =                 696.5385982492748553
    Total Energy =                       -391.6544120609232777

  Dipole Moment: [D]
     X:    -0.0083      Y:    -0.0172      Z:    -0.0375     Total:     0.0421

  Basis Set: (AUG-CC-PVQZ AUX)
    Blend: AUG-CC-PVQZ-RI
	 Reference Energy          =    -391.6544120609232777 [Eh]
	 Singles Energy            =      -0.0000000000000000 [Eh]
	 Same-Spin Energy          =      -0.4495470954596304 [Eh]
	 Opposite-Spin Energy      =      -1.7372312754625530 [Eh]
	 Correlation Energy        =      -2.1867783709221835 [Eh]
	 Total Energy              =    -393.8411904318454617 [Eh]

	 ================> DF-SCS-MP2 Energies <==================
	-----------------------------------------------------------
	 SCS Same-Spin Scale       =       0.3333333333333333 [-]
	 SCS Opposite-Spin Scale   =       1.2000000000000000 [-]
	 SCS Same-Spin Energy      =      -0.1498490318198768 [Eh]
	 SCS Opposite-Spin Energy  =      -2.0846775305550636 [Eh]
	 SCS Correlation Energy    =      -2.2345265623749402 [Eh]
	 SCS Total Energy          =    -393.8889386232982019 [Eh]
	-----------------------------------------------------------

*** Psi4 exiting successfully. Buy a developer a beer!
