                               Psi4 1.4a2.dev224

  ==> Input File <==

--------------------------------------------------------------------------
#Generated by lconvert.py for cbs job

memory 40 GB

molecule  {
0 1
  C        0.7999140    -1.0220520     0.6877370
  H        0.8535560    -1.1220510    -0.3980140
  H        1.4914020    -1.7441690     1.1197200
  C        1.1168870     0.4249530     1.0996620
  H        1.8381420     0.8901450     0.4304530
  H        1.5555700     0.4398250     2.0970840
  C       -0.2445590     1.1656900     1.1029770
  H       -0.2580780     2.0008630     0.4053230
  H       -0.4488040     1.5769960     2.0909840
  C       -1.2987140     0.1038120     0.7393090
  H       -1.4735610     0.1052430    -0.3380050
  H       -2.2567340     0.2780410     1.2271580
  C       -0.6468800    -1.2200680     1.1363070
  H       -1.1244390    -2.0876270     0.6829930
  H       -0.6860190    -1.3452830     2.2202200
--
0 1
  C        0.0270910     0.0498930     4.5968640
  C       -0.0692540    -0.1021930     6.1125040
  H        0.9232930    -0.1176600     6.5648610
  H       -0.6281780     0.7256910     6.5509390
  H       -0.5764180    -1.0308590     6.3778540
  C        0.7411440     1.3567980     4.2612390
  H        0.8226630     1.4902970     3.1815570
  H        0.1976720     2.2114860     4.6667400
  H        1.7487480     1.3674480     4.6794720
  C       -1.3779210     0.0697170     3.9995440
  H       -1.3409900     0.1869070     2.9156950
  H       -1.9602210     0.8971410     4.4078900
  H       -1.9078240    -0.8580700     4.2208730
  C        0.8149900    -1.1235920     4.0195250
  H        0.3197700    -2.0705830     4.2397690
  H        0.9098340    -1.0364100     2.9363910
  H        1.8197090    -1.1609970     4.4432740
units angstrom
no_reorient
symmetry c1
}

set {
scf_type DF
mp2_type DF
e_convergence 7
reference rhf
}

energy('mp2/aug-cc-pv[tq]z', bsse_type='cp')
--------------------------------------------------------------------------

    Molecular point group: c1
  Charge       = 0
  Multiplicity = 1
  Basis Set: AUG-CC-PVTZ
    Blend: AUG-CC-PVTZ
  Basis Set: (AUG-CC-PVTZ AUX)
    Blend: AUG-CC-PVTZ-JKFIT
  @DF-RHF Final Energy:  -196.40455362990761
    Total Energy =                       -196.4045536299075820
  Basis Set: (AUG-CC-PVTZ AUX)
    Blend: AUG-CC-PVTZ-RI
	 Reference Energy          =    -196.4045536299076105 [Eh]
	 Singles Energy            =      -0.0000000000000000 [Eh]
	 Same-Spin Energy          =      -0.2117338515377340 [Eh]
	 Opposite-Spin Energy      =      -0.7978224763396602 [Eh]
	 Correlation Energy        =      -1.0095563278773942 [Eh]
	 Total Energy              =    -197.4141099577850014 [Eh]
	 SCS Total Energy          =    -197.4325185520277728 [Eh]
    Molecular point group: c1
  Basis Set: AUG-CC-PVQZ
    Blend: AUG-CC-PVQZ
  Basis Set: (AUG-CC-PVQZ AUX)
    Blend: AUG-CC-PVQZ-JKFIT
  @DF-RHF Final Energy:  -196.41640023944569
    Total Energy =                       -196.4164002394456929
  Basis Set: (AUG-CC-PVQZ AUX)
  @DF-RHF Final Energy:  -196.40468932914592
    Total Energy =                       -196.4046893291459241
  @DF-RHF Final Energy:  -196.41643354023765
    Total Energy =                       -196.4164335402376196
  @DF-RHF Final Energy:  -195.23036302727630
    Total Energy =                       -195.2303630272762973
  @DF-RHF Final Energy:  -195.24174097387197
    Total Energy =                       -195.2417409738719698
  @DF-RHF Final Energy:  -195.23021071552040
    Total Energy =                       -195.2302107155203998
  @DF-RHF Final Energy:  -195.24169901851843
    Total Energy =                       -195.2416990185184318
  Multiplicity = 1
  @DF-RHF Final Energy:  -391.57850991584547
    Total Energy =                       -391.5785099158455296
	 Singles Energy            =      -0.0000000000000000 [Eh]
	 Same-Spin Energy          =      -0.4389345815580127 [Eh]
	 Opposite-Spin Energy      =      -1.5892780287087258 [Eh]
	 Correlation Energy        =      -2.0282126102667384 [Eh]
	 Total Energy              =    -393.6067225261122076 [Eh]
	 SCS Total Energy          =    -393.6319550774819618 [Eh]
    Molecular point group: c1

    Geometry (in Angstrom), charge = 0, multiplicity = 1:

       Center              X                  Y                   Z               Mass
    ------------   -----------------  -----------------  -----------------  -----------------
         C            0.812785343607    -0.994119044308    -2.113780078993    12.000000000000
         H            0.866427343607    -1.094118044308    -3.199531078993     1.007825032230
         H            1.504273343607    -1.716236044308    -1.681797078993     1.007825032230
         C            1.129758343607     0.452885955692    -1.701855078993    12.000000000000
         H            1.851013343607     0.918077955692    -2.371064078993     1.007825032230
         H            1.568441343607     0.467757955692    -0.704433078993     1.007825032230
         C           -0.231687656393     1.193622955692    -1.698540078993    12.000000000000
         H           -0.245206656393     2.028795955692    -2.396194078993     1.007825032230
         H           -0.435932656393     1.604928955692    -0.710533078993     1.007825032230
         C           -1.285842656393     0.131744955692    -2.062208078993    12.000000000000
         H           -1.460689656393     0.133175955692    -3.139522078993     1.007825032230
         H           -2.243862656393     0.305973955692    -1.574359078993     1.007825032230
         C           -0.634008656393    -1.192135044308    -1.665210078993    12.000000000000
         H           -1.111567656393    -2.059694044308    -2.118524078993     1.007825032230
         H           -0.673147656393    -1.317350044308    -0.581297078993     1.007825032230
         C            0.039962343607     0.077825955692     1.795346921007    12.000000000000
         C           -0.056382656393    -0.074260044308     3.310986921007    12.000000000000
         H            0.936164343607    -0.089727044308     3.763343921007     1.007825032230
         H           -0.615306656393     0.753623955692     3.749421921007     1.007825032230
         H           -0.563546656393    -1.002926044308     3.576336921007     1.007825032230
         C            0.754015343607     1.384730955692     1.459721921007    12.000000000000
         H            0.835534343607     1.518229955692     0.380039921007     1.007825032230
         H            0.210543343607     2.239418955692     1.865222921007     1.007825032230
         H            1.761619343607     1.395380955692     1.877954921007     1.007825032230
         C           -1.365049656393     0.097649955692     1.198026921007    12.000000000000
         H           -1.328118656393     0.214839955692     0.114177921007     1.007825032230
         H           -1.947349656393     0.925073955692     1.606372921007     1.007825032230
         H           -1.894952656393    -0.830137044308     1.419355921007     1.007825032230
         C            0.827861343607    -1.095659044308     1.218007921007    12.000000000000
         H            0.332641343607    -2.042650044308     1.438251921007     1.007825032230
         H            0.922705343607    -1.008477044308     0.134873921007     1.007825032230
         H            1.832580343607    -1.133064044308     1.641756921007     1.007825032230

  Charge       = 0
  Multiplicity = 1
  Basis Set: AUG-CC-PVQZ
    Blend: AUG-CC-PVQZ
  Basis Set: (AUG-CC-PVQZ AUX)
    Blend: AUG-CC-PVQZ-JKFIT

    Orbital Energies [Eh]
    ---------------------

    Doubly Occupied:

       1A    -11.223363     2A    -11.210634     3A    -11.210537
       4A    -11.208662     5A    -11.208084     6A    -11.204439
       7A    -11.201636     8A    -11.198167     9A    -11.198078
      10A    -11.197239    11A     -1.124913    12A     -1.102083
      13A     -0.965617    14A     -0.964198    15A     -0.928422
      16A     -0.925779    17A     -0.925427    18A     -0.783479
      19A     -0.772227    20A     -0.732497    21A     -0.670338
      22A     -0.647796    23A     -0.617095    24A     -0.614206
      25A     -0.603924    26A     -0.589979    27A     -0.586934
      28A     -0.540559    29A     -0.535130    30A     -0.507848
      31A     -0.501511    32A     -0.499009    33A     -0.478253
      34A     -0.477109    35A     -0.467317    36A     -0.465212
      37A     -0.461920    38A     -0.454191    39A     -0.448612
      40A     -0.448441    41A     -0.429876

  @DF-RHF Final Energy:  -391.60169673885338

   => Energetics <=

    Nuclear Repulsion Energy =            613.3340347996635273
    One-Electron Energy =               -1745.2099818865613088
    Two-Electron Energy =                 740.2742503480443474
    Total Energy =                       -391.6016967388533203

  Dipole Moment: [D]
     X:     0.0073      Y:     0.0128      Z:    -0.3574     Total:     0.3577

  Basis Set: (AUG-CC-PVQZ AUX)
    Blend: AUG-CC-PVQZ-RI
	 Reference Energy          =    -391.6016967388533772 [Eh]
	 Singles Energy            =      -0.0000000000000000 [Eh]
	 Same-Spin Energy          =      -0.4620597709721547 [Eh]
	 Opposite-Spin Energy      =      -1.7525347031375014 [Eh]
	 Correlation Energy        =      -2.2145944741096559 [Eh]
	 Total Energy              =    -393.8162912129630513 [Eh]

	 ================> DF-SCS-MP2 Energies <==================
	-----------------------------------------------------------
	 SCS Same-Spin Scale       =       0.3333333333333333 [-]
	 SCS Opposite-Spin Scale   =       1.2000000000000000 [-]
	 SCS Same-Spin Energy      =      -0.1540199236573849 [Eh]
	 SCS Opposite-Spin Energy  =      -2.1030416437650015 [Eh]
	 SCS Correlation Energy    =      -2.2570615674223862 [Eh]
	 SCS Total Energy          =    -393.8587583062757744 [Eh]
	-----------------------------------------------------------

*** Psi4 exiting successfully. Buy a developer a beer!
