                               Psi4 1.4a2.dev224

  ==> Input File <==

--------------------------------------------------------------------------
#Generated by lconvert.py for cbs job

memory 20 GB

molecule  {
0 1
  C       0.799910   -1.022050    0.687740
  H       0.853560   -1.122050   -0.398010
  H       1.491400   -1.744170    1.119720
  C       1.116890    0.424950    1.099660
  H       1.838140    0.890140    0.430450
  H       1.555570    0.439830    2.097080
  C      -0.244560    1.165690    1.102980
  H      -0.258080    2.000860    0.405320
  H      -0.448800    1.577000    2.090980
  C      -1.298710    0.103810    0.739310
  H      -1.473560    0.105240   -0.338000
  H      -2.256730    0.278040    1.227160
  C      -0.646880   -1.220070    1.136310
  H      -1.124440   -2.087630    0.682990
  H      -0.686020   -1.345280    2.220220
--
0 1
  C       0.071680    0.136720    6.594200
  C      -0.024670   -0.015370    8.109840
  H       0.967880   -0.030830    8.562200
  H      -0.583590    0.812520    8.548280
  H      -0.531830   -0.944030    8.375190
  C       0.785730    1.443620    6.258580
  H       0.867250    1.577120    5.178890
  H       0.242260    2.298310    6.664080
  H       1.793330    1.454270    6.676810
  C      -1.333340    0.156540    5.996880
  H      -1.296410    0.273730    4.913030
  H      -1.915640    0.983970    6.405230
  H      -1.863240   -0.771240    6.218210
  C       0.859570   -1.036770    6.016860
  H       0.364350   -1.983760    6.237110
  H       0.954420   -0.949580    4.933730
  H       1.864290   -1.074170    6.440610
units angstrom
no_reorient
symmetry c1
}

set {
scf_type DF
mp2_type DF
e_convergence 7
reference rhf
}

energy('mp2/aug-cc-pv[tq]z', bsse_type='cp')
--------------------------------------------------------------------------

    Molecular point group: c1
  Charge       = 0
  Multiplicity = 1
  Basis Set: AUG-CC-PVTZ
    Blend: AUG-CC-PVTZ
  Basis Set: (AUG-CC-PVTZ AUX)
    Blend: AUG-CC-PVTZ-JKFIT
  @DF-RHF Final Energy:  -196.40455359973694
    Total Energy =                       -196.4045535997369143
  Basis Set: (AUG-CC-PVTZ AUX)
    Blend: AUG-CC-PVTZ-RI
	 Reference Energy          =    -196.4045535997369427 [Eh]
	 Singles Energy            =      -0.0000000000000000 [Eh]
	 Same-Spin Energy          =      -0.2117338491640717 [Eh]
	 Opposite-Spin Energy      =      -0.7978225036689115 [Eh]
	 Correlation Energy        =      -1.0095563528329832 [Eh]
	 Total Energy              =    -197.4141099525699303 [Eh]
	 SCS Total Energy          =    -197.4325185538610015 [Eh]
    Molecular point group: c1
  Basis Set: AUG-CC-PVQZ
    Blend: AUG-CC-PVQZ
  Basis Set: (AUG-CC-PVQZ AUX)
    Blend: AUG-CC-PVQZ-JKFIT
  @DF-RHF Final Energy:  -196.41640020424086
    Total Energy =                       -196.4164002042408583
  Basis Set: (AUG-CC-PVQZ AUX)
  @DF-RHF Final Energy:  -196.40457729484007
    Total Energy =                       -196.4045772948400668
  @DF-RHF Final Energy:  -196.41640785657867
    Total Energy =                       -196.4164078565787008
  @DF-RHF Final Energy:  -195.23023589974594
    Total Energy =                       -195.2302358997459351
  @DF-RHF Final Energy:  -195.24170806511975
    Total Energy =                       -195.2417080651197523
  @DF-RHF Final Energy:  -195.23021081242001
    Total Energy =                       -195.2302108124200117
  @DF-RHF Final Energy:  -195.24169912308446
    Total Energy =                       -195.2416991230844587
  Multiplicity = 1
  @DF-RHF Final Energy:  -391.63458523609734
    Total Energy =                       -391.6345852360973367
	 Singles Energy            =      -0.0000000000000000 [Eh]
	 Same-Spin Energy          =      -0.4233907959918928 [Eh]
	 Opposite-Spin Energy      =      -1.5668459214658785 [Eh]
	 Correlation Energy        =      -1.9902367174577713 [Eh]
	 Total Energy              =    -393.6248219535551129 [Eh]
	 SCS Total Energy          =    -393.6559306071870310 [Eh]
    Molecular point group: c1

    Geometry (in Angstrom), charge = 0, multiplicity = 1:

       Center              X                  Y                   Z               Mass
    ------------   -----------------  -----------------  -----------------  -----------------
         C            0.790173065479    -1.038144042528    -3.126604858820    12.000000000000
         H            0.843823065479    -1.138144042528    -4.212354858820     1.007825032230
         H            1.481663065479    -1.760264042528    -2.694624858820     1.007825032230
         C            1.107153065479     0.408855957472    -2.714684858820    12.000000000000
         H            1.828403065479     0.874045957472    -3.383894858820     1.007825032230
         H            1.545833065479     0.423735957472    -1.717264858820     1.007825032230
         C           -0.254296934521     1.149595957472    -2.711364858820    12.000000000000
         H           -0.267816934521     1.984765957472    -3.409024858820     1.007825032230
         H           -0.458536934521     1.560905957472    -1.723364858820     1.007825032230
         C           -1.308446934521     0.087715957472    -3.075034858820    12.000000000000
         H           -1.483296934521     0.089145957472    -4.152344858820     1.007825032230
         H           -2.266466934521     0.261945957472    -2.587184858820     1.007825032230
         C           -0.656616934521    -1.236164042528    -2.678034858820    12.000000000000
         H           -1.134176934521    -2.103724042528    -3.131354858820     1.007825032230
         H           -0.695756934521    -1.361374042528    -1.594124858820     1.007825032230
         C            0.061943065479     0.120625957472     2.779855141180    12.000000000000
         C           -0.034406934521    -0.031464042528     4.295495141180    12.000000000000
         H            0.958143065479    -0.046924042528     4.747855141180     1.007825032230
         H           -0.593326934521     0.796425957472     4.733935141180     1.007825032230
         H           -0.541566934521    -0.960124042528     4.560845141180     1.007825032230
         C            0.775993065479     1.427525957472     2.444235141180    12.000000000000
         H            0.857513065479     1.561025957472     1.364545141180     1.007825032230
         H            0.232523065479     2.282215957472     2.849735141180     1.007825032230
         H            1.783593065479     1.438175957472     2.862465141180     1.007825032230
         C           -1.343076934521     0.140445957472     2.182535141180    12.000000000000
         H           -1.306146934521     0.257635957472     1.098685141180     1.007825032230
         H           -1.925376934521     0.967875957472     2.590885141180     1.007825032230
         H           -1.872976934521    -0.787334042528     2.403865141180     1.007825032230
         C            0.849833065479    -1.052864042528     2.202515141180    12.000000000000
         H            0.354613065479    -1.999854042528     2.422765141180     1.007825032230
         H            0.944683065479    -0.965674042528     1.119385141180     1.007825032230
         H            1.854553065479    -1.090264042528     2.626265141180     1.007825032230

  Charge       = 0
  Multiplicity = 1
  Basis Set: AUG-CC-PVQZ
    Blend: AUG-CC-PVQZ
  Basis Set: (AUG-CC-PVQZ AUX)
    Blend: AUG-CC-PVQZ-JKFIT

    Orbital Energies [Eh]
    ---------------------

    Doubly Occupied:

       1A    -11.226269     2A    -11.209840     3A    -11.209420
       4A    -11.209326     5A    -11.208817     6A    -11.208514
       7A    -11.205250     8A    -11.205232     9A    -11.205069
      10A    -11.204870    11A     -1.116003    12A     -1.106715
      13A     -0.956937    14A     -0.956556    15A     -0.929457
      16A     -0.929109    17A     -0.928874    18A     -0.776981
      19A     -0.767853    20A     -0.730493    21A     -0.650390
      22A     -0.644929    23A     -0.612706    24A     -0.612523
      25A     -0.612085    26A     -0.570727    27A     -0.568761
      28A     -0.553717    29A     -0.553307    30A     -0.510054
      31A     -0.510000    32A     -0.509912    33A     -0.475222
      34A     -0.474888    35A     -0.464419    36A     -0.461107
      37A     -0.460167    38A     -0.453310    39A     -0.453064
      40A     -0.452338    41A     -0.449411

  @DF-RHF Final Energy:  -391.65788824021342

   => Energetics <=

    Nuclear Repulsion Energy =            540.2016603296102630
    One-Electron Energy =               -1599.0298625848420215
    Two-Electron Energy =                 667.1703140150182207
    Total Energy =                       -391.6578882402134241

  Dipole Moment: [D]
     X:    -0.0092      Y:    -0.0192      Z:    -0.0037     Total:     0.0216

  Basis Set: (AUG-CC-PVQZ AUX)
    Blend: AUG-CC-PVQZ-RI
	 Reference Energy          =    -391.6578882402134241 [Eh]
	 Singles Energy            =      -0.0000000000000000 [Eh]
	 Same-Spin Energy          =      -0.4467697943503387 [Eh]
	 Opposite-Spin Energy      =      -1.7336538382315081 [Eh]
	 Correlation Energy        =      -2.1804236325818467 [Eh]
	 Total Energy              =    -393.8383118727952592 [Eh]

	 ================> DF-SCS-MP2 Energies <==================
	-----------------------------------------------------------
	 SCS Same-Spin Scale       =       0.3333333333333333 [-]
	 SCS Opposite-Spin Scale   =       1.2000000000000000 [-]
	 SCS Same-Spin Energy      =      -0.1489232647834462 [Eh]
	 SCS Opposite-Spin Energy  =      -2.0803846058778097 [Eh]
	 SCS Correlation Energy    =      -2.2293078706612559 [Eh]
	 SCS Total Energy          =    -393.8871961108746973 [Eh]
	-----------------------------------------------------------

*** Psi4 exiting successfully. Buy a developer a beer!
