                               Psi4 1.4a2.dev224

  ==> Input File <==

--------------------------------------------------------------------------
#Generated by lconvert.py for cbs job

memory 40 GB

molecule  {
0 1
  C        0.7999140    -1.0220520     0.6877370
  H        0.8535560    -1.1220510    -0.3980140
  H        1.4914020    -1.7441690     1.1197200
  C        1.1168870     0.4249530     1.0996620
  H        1.8381420     0.8901450     0.4304530
  H        1.5555700     0.4398250     2.0970840
  C       -0.2445590     1.1656900     1.1029770
  H       -0.2580780     2.0008630     0.4053230
  H       -0.4488040     1.5769960     2.0909840
  C       -1.2987140     0.1038120     0.7393090
  H       -1.4735610     0.1052430    -0.3380050
  H       -2.2567340     0.2780410     1.2271580
  C       -0.6468800    -1.2200680     1.1363070
  H       -1.1244390    -2.0876270     0.6829930
  H       -0.6860190    -1.3452830     2.2202200
--
0 1
  C        0.0566950     0.1075450     5.9230850
  C       -0.0396490    -0.0445410     7.4387250
  H        0.9528970    -0.0600070     7.8910820
  H       -0.5985740     0.7833430     7.8771600
  H       -0.5468140    -0.9732070     7.7040750
  C        0.7707480     1.4144500     5.5874600
  H        0.8522680     1.5479490     4.5077780
  H        0.2272760     2.2691380     5.9929610
  H        1.7783530     1.4251000     6.0056930
  C       -1.3483170     0.1273700     5.3257650
  H       -1.3113850     0.2445590     4.2419160
  H       -1.9306170     0.9547930     5.7341110
  H       -1.8782200    -0.8004170     5.5470940
  C        0.8445950    -1.0659400     5.3457470
  H        0.3493740    -2.0129310     5.5659900
  H        0.9394380    -0.9787570     4.2626120
  H        1.8493130    -1.1033450     5.7694950
units angstrom
no_reorient
symmetry c1
}

set {
scf_type DF
mp2_type DF
e_convergence 7
reference rhf
}

energy('mp2/aug-cc-pv[tq]z', bsse_type='cp')
--------------------------------------------------------------------------

    Molecular point group: c1
  Charge       = 0
  Multiplicity = 1
  Basis Set: AUG-CC-PVTZ
    Blend: AUG-CC-PVTZ
  Basis Set: (AUG-CC-PVTZ AUX)
    Blend: AUG-CC-PVTZ-JKFIT
  @DF-RHF Final Energy:  -196.40455362720536
    Total Energy =                       -196.4045536272053596
  Basis Set: (AUG-CC-PVTZ AUX)
    Blend: AUG-CC-PVTZ-RI
	 Reference Energy          =    -196.4045536272053596 [Eh]
	 Singles Energy            =      -0.0000000000000000 [Eh]
	 Same-Spin Energy          =      -0.2117338517811753 [Eh]
	 Opposite-Spin Energy      =      -0.7978224788887069 [Eh]
	 Correlation Energy        =      -1.0095563306698823 [Eh]
	 Total Energy              =    -197.4141099578752403 [Eh]
	 SCS Total Energy          =    -197.4325185524655240 [Eh]
    Molecular point group: c1
  Basis Set: AUG-CC-PVQZ
    Blend: AUG-CC-PVQZ
  Basis Set: (AUG-CC-PVQZ AUX)
    Blend: AUG-CC-PVQZ-JKFIT
  @DF-RHF Final Energy:  -196.41640023395280
    Total Energy =                       -196.4164002339527997
  Basis Set: (AUG-CC-PVQZ AUX)
  @DF-RHF Final Energy:  -196.40459389213075
    Total Energy =                       -196.4045938921307766
  @DF-RHF Final Energy:  -196.41641251114169
    Total Energy =                       -196.4164125111416865
  @DF-RHF Final Energy:  -195.23026157800282
    Total Energy =                       -195.2302615780028248
  @DF-RHF Final Energy:  -195.24171411845262
    Total Energy =                       -195.2417141184526201
  @DF-RHF Final Energy:  -195.23021071567337
    Total Energy =                       -195.2302107156733655
  @DF-RHF Final Energy:  -195.24169902045369
    Total Energy =                       -195.2416990204536944
  Multiplicity = 1
  @DF-RHF Final Energy:  -391.63331688169455
    Total Energy =                       -391.6333168816945545
	 Singles Energy            =      -0.0000000000000000 [Eh]
	 Same-Spin Energy          =      -0.4249236469314985 [Eh]
	 Opposite-Spin Energy      =      -1.5694899778571707 [Eh]
	 Correlation Energy        =      -1.9944136247886692 [Eh]
	 Total Energy              =    -393.6277305064832035 [Eh]
	 SCS Total Energy          =    -393.6583460707669815 [Eh]
    Molecular point group: c1

    Geometry (in Angstrom), charge = 0, multiplicity = 1:

       Center              X                  Y                   Z               Mass
    ------------   -----------------  -----------------  -----------------  -----------------
         C            0.797773297718    -1.023353831485    -2.786291933023    12.000000000000
         H            0.851415297718    -1.123352831485    -3.872042933023     1.007825032230
         H            1.489261297718    -1.745470831485    -2.354308933023     1.007825032230
         C            1.114746297718     0.423651168515    -2.374366933023    12.000000000000
         H            1.836001297718     0.888843168515    -3.043575933023     1.007825032230
         H            1.553429297718     0.438523168515    -1.376944933023     1.007825032230
         C           -0.246699702282     1.164388168515    -2.371051933023    12.000000000000
         H           -0.260218702282     1.999561168515    -3.068705933023     1.007825032230
         H           -0.450944702282     1.575694168515    -1.383044933023     1.007825032230
         C           -1.300854702282     0.102510168515    -2.734719933023    12.000000000000
         H           -1.475701702282     0.103941168515    -3.812033933023     1.007825032230
         H           -2.258874702282     0.276739168515    -2.246870933023     1.007825032230
         C           -0.649020702282    -1.221369831485    -2.337721933023    12.000000000000
         H           -1.126579702282    -2.088928831485    -2.791035933023     1.007825032230
         H           -0.688159702282    -1.346584831485    -1.253808933023     1.007825032230
         C            0.054554297718     0.106243168515     2.449056066977    12.000000000000
         C           -0.041789702282    -0.045842831485     3.964696066977    12.000000000000
         H            0.950756297718    -0.061308831485     4.417053066977     1.007825032230
         H           -0.600714702282     0.782041168515     4.403131066977     1.007825032230
         H           -0.548954702282    -0.974508831485     4.230046066977     1.007825032230
         C            0.768607297718     1.413148168515     2.113431066977    12.000000000000
         H            0.850127297718     1.546647168515     1.033749066977     1.007825032230
         H            0.225135297718     2.267836168515     2.518932066977     1.007825032230
         H            1.776212297718     1.423798168515     2.531664066977     1.007825032230
         C           -1.350457702282     0.126068168515     1.851736066977    12.000000000000
         H           -1.313525702282     0.243257168515     0.767887066977     1.007825032230
         H           -1.932757702282     0.953491168515     2.260082066977     1.007825032230
         H           -1.880360702282    -0.801718831485     2.073065066977     1.007825032230
         C            0.842454297718    -1.067241831485     1.871718066977    12.000000000000
         H            0.347233297718    -2.014232831485     2.091961066977     1.007825032230
         H            0.937297297718    -0.980058831485     0.788583066977     1.007825032230
         H            1.847172297718    -1.104646831485     2.295466066977     1.007825032230

  Charge       = 0
  Multiplicity = 1
  Basis Set: AUG-CC-PVQZ
    Blend: AUG-CC-PVQZ
  Basis Set: (AUG-CC-PVQZ AUX)
    Blend: AUG-CC-PVQZ-JKFIT

    Orbital Energies [Eh]
    ---------------------

    Doubly Occupied:

       1A    -11.226210     2A    -11.209938     3A    -11.209524
       4A    -11.209318     5A    -11.208920     6A    -11.208395
       7A    -11.205093     8A    -11.205061     9A    -11.204970
      10A    -11.204751    11A     -1.116225    12A     -1.106693
      13A     -0.957151    14A     -0.956755    15A     -0.929498
      16A     -0.929117    17A     -0.928898    18A     -0.777219
      19A     -0.768089    20A     -0.730568    21A     -0.651280
      22A     -0.645105    23A     -0.612792    24A     -0.612544
      25A     -0.611721    26A     -0.571858    27A     -0.569606
      28A     -0.553371    29A     -0.552766    30A     -0.510068
      31A     -0.510022    32A     -0.509894    33A     -0.475381
      34A     -0.475267    35A     -0.464608    36A     -0.462835
      37A     -0.460250    38A     -0.453370    39A     -0.452993
      40A     -0.449955    41A     -0.449525

  @DF-RHF Final Energy:  -391.65659003686113

   => Energetics <=

    Nuclear Repulsion Energy =            559.1832736745259353
    One-Electron Energy =               -1636.9845278455738935
    Two-Electron Energy =                 686.1446641341868826
    Total Energy =                       -391.6565900368610755

  Dipole Moment: [D]
     X:    -0.0094      Y:    -0.0194      Z:    -0.0182     Total:     0.0282

  Basis Set: (AUG-CC-PVQZ AUX)
    Blend: AUG-CC-PVQZ-RI
	 Reference Energy          =    -391.6565900368611324 [Eh]
	 Singles Energy            =      -0.0000000000000000 [Eh]
	 Same-Spin Energy          =      -0.4482195623465040 [Eh]
	 Opposite-Spin Energy      =      -1.7355458536664536 [Eh]
	 Correlation Energy        =      -2.1837654160129576 [Eh]
	 Total Energy              =    -393.8403554528740642 [Eh]

	 ================> DF-SCS-MP2 Energies <==================
	-----------------------------------------------------------
	 SCS Same-Spin Scale       =       0.3333333333333333 [-]
	 SCS Opposite-Spin Scale   =       1.2000000000000000 [-]
	 SCS Same-Spin Energy      =      -0.1494065207821680 [Eh]
	 SCS Opposite-Spin Energy  =      -2.0826550243997444 [Eh]
	 SCS Correlation Energy    =      -2.2320615451819124 [Eh]
	 SCS Total Energy          =    -393.8886515820430532 [Eh]
	-----------------------------------------------------------

*** Psi4 exiting successfully. Buy a developer a beer!
