                               Psi4 1.4a2.dev224

  ==> Input File <==

--------------------------------------------------------------------------
#Generated by lconvert.py for cbs job

memory 40 GB

molecule  {
0 1
  C        0.7999140    -1.0220520     0.6877370
  H        0.8535560    -1.1220510    -0.3980140
  H        1.4914020    -1.7441690     1.1197200
  C        1.1168870     0.4249530     1.0996620
  H        1.8381420     0.8901450     0.4304530
  H        1.5555700     0.4398250     2.0970840
  C       -0.2445590     1.1656900     1.1029770
  H       -0.2580780     2.0008630     0.4053230
  H       -0.4488040     1.5769960     2.0909840
  C       -1.2987140     0.1038120     0.7393090
  H       -1.4735610     0.1052430    -0.3380050
  H       -2.2567340     0.2780410     1.2271580
  C       -0.6468800    -1.2200680     1.1363070
  H       -1.1244390    -2.0876270     0.6829930
  H       -0.6860190    -1.3452830     2.2202200
--
0 1
  C        0.0532810     0.1008960     5.7701430
  C       -0.0430630    -0.0511900     7.2857840
  H        0.9494830    -0.0666560     7.7381410
  H       -0.6019880     0.7766950     7.7242190
  H       -0.5502280    -0.9798560     7.5511330
  C        0.7673340     1.4078010     5.4345180
  H        0.8488540     1.5413010     4.3548370
  H        0.2238620     2.2624900     5.8400200
  H        1.7749390     1.4184520     5.8527510
  C       -1.3517310     0.1207210     5.1728240
  H       -1.3147990     0.2379110     4.0889750
  H       -1.9340310     0.9481450     5.5811700
  H       -1.8816340    -0.8070660     5.3941530
  C        0.8411810    -1.0725890     5.1928050
  H        0.3459600    -2.0195790     5.4130480
  H        0.9360240    -0.9854060     4.1096700
  H        1.8458990    -1.1099930     5.6165540
units angstrom
no_reorient
symmetry c1
}

set {
scf_type DF
mp2_type DF
e_convergence 7
reference rhf
}

energy('mp2/aug-cc-pv[tq]z', bsse_type='cp')
--------------------------------------------------------------------------

    Molecular point group: c1
  Charge       = 0
  Multiplicity = 1
  Basis Set: AUG-CC-PVTZ
    Blend: AUG-CC-PVTZ
  Basis Set: (AUG-CC-PVTZ AUX)
    Blend: AUG-CC-PVTZ-JKFIT
  @DF-RHF Final Energy:  -196.40455361922562
    Total Energy =                       -196.4045536192256236
  Basis Set: (AUG-CC-PVTZ AUX)
    Blend: AUG-CC-PVTZ-RI
	 Reference Energy          =    -196.4045536192256236 [Eh]
	 Singles Energy            =      -0.0000000000000000 [Eh]
	 Same-Spin Energy          =      -0.2117338469427139 [Eh]
	 Opposite-Spin Energy      =      -0.7978224853811937 [Eh]
	 Correlation Energy        =      -1.0095563323239076 [Eh]
	 Total Energy              =    -197.4141099515495341 [Eh]
	 SCS Total Energy          =    -197.4325185506639571 [Eh]
    Molecular point group: c1
  Basis Set: AUG-CC-PVQZ
    Blend: AUG-CC-PVQZ
  Basis Set: (AUG-CC-PVQZ AUX)
    Blend: AUG-CC-PVQZ-JKFIT
  @DF-RHF Final Energy:  -196.41640022541347
    Total Energy =                       -196.4164002254134971
  Basis Set: (AUG-CC-PVQZ AUX)
  @DF-RHF Final Energy:  -196.40460134727326
    Total Energy =                       -196.4046013472732284
  @DF-RHF Final Energy:  -196.41641399937407
    Total Energy =                       -196.4164139993740719
  @DF-RHF Final Energy:  -195.23027071459825
    Total Energy =                       -195.2302707145982481
  @DF-RHF Final Energy:  -195.24171595582877
    Total Energy =                       -195.2417159558287665
  @DF-RHF Final Energy:  -195.23021071890074
    Total Energy =                       -195.2302107189007359
  @DF-RHF Final Energy:  -195.24169901652900
    Total Energy =                       -195.2416990165289974
  Multiplicity = 1
  @DF-RHF Final Energy:  -391.63249011912001
    Total Energy =                       -391.6324901191200070
	 Singles Energy            =      -0.0000000000000000 [Eh]
	 Same-Spin Energy          =      -0.4255259506471890 [Eh]
	 Opposite-Spin Energy      =      -1.5704731278005415 [Eh]
	 Correlation Energy        =      -1.9959990784477304 [Eh]
	 Total Energy              =    -393.6284891975677169 [Eh]
	 SCS Total Energy          =    -393.6588998560297341 [Eh]
    Molecular point group: c1

    Geometry (in Angstrom), charge = 0, multiplicity = 1:

       Center              X                  Y                   Z               Mass
    ------------   -----------------  -----------------  -----------------  -----------------
         C            0.799504498764    -1.019982254994    -2.708736988575    12.000000000000
         H            0.853146498764    -1.119981254994    -3.794487988575     1.007825032230
         H            1.490992498764    -1.742099254994    -2.276753988575     1.007825032230
         C            1.116477498764     0.427022745006    -2.296811988575    12.000000000000
         H            1.837732498764     0.892214745006    -2.966020988575     1.007825032230
         H            1.555160498764     0.441894745006    -1.299389988575     1.007825032230
         C           -0.244968501236     1.167759745006    -2.293496988575    12.000000000000
         H           -0.258487501236     2.002932745006    -2.991150988575     1.007825032230
         H           -0.449213501236     1.579065745006    -1.305489988575     1.007825032230
         C           -1.299123501236     0.105881745006    -2.657164988575    12.000000000000
         H           -1.473970501236     0.107312745006    -3.734478988575     1.007825032230
         H           -2.257143501236     0.280110745006    -2.169315988575     1.007825032230
         C           -0.647289501236    -1.217998254994    -2.260166988575    12.000000000000
         H           -1.124848501236    -2.085557254994    -2.713480988575     1.007825032230
         H           -0.686428501236    -1.343213254994    -1.176253988575     1.007825032230
         C            0.052871498764     0.102965745006     2.373669011425    12.000000000000
         C           -0.043472501236    -0.049120254994     3.889310011425    12.000000000000
         H            0.949073498764    -0.064586254994     4.341667011425     1.007825032230
         H           -0.602397501236     0.778764745006     4.327745011425     1.007825032230
         H           -0.550637501236    -0.977786254994     4.154659011425     1.007825032230
         C            0.766924498764     1.409870745006     2.038044011425    12.000000000000
         H            0.848444498764     1.543370745006     0.958363011425     1.007825032230
         H            0.223452498764     2.264559745006     2.443546011425     1.007825032230
         H            1.774529498764     1.420521745006     2.456277011425     1.007825032230
         C           -1.352140501236     0.122790745006     1.776350011425    12.000000000000
         H           -1.315208501236     0.239980745006     0.692501011425     1.007825032230
         H           -1.934440501236     0.950214745006     2.184696011425     1.007825032230
         H           -1.882043501236    -0.804996254994     1.997679011425     1.007825032230
         C            0.840771498764    -1.070519254994     1.796331011425    12.000000000000
         H            0.345550498764    -2.017509254994     2.016574011425     1.007825032230
         H            0.935614498764    -0.983336254994     0.713196011425     1.007825032230
         H            1.845489498764    -1.107923254994     2.220080011425     1.007825032230

  Charge       = 0
  Multiplicity = 1
  Basis Set: AUG-CC-PVQZ
    Blend: AUG-CC-PVQZ
  Basis Set: (AUG-CC-PVQZ AUX)
    Blend: AUG-CC-PVQZ-JKFIT

    Orbital Energies [Eh]
    ---------------------

    Doubly Occupied:

       1A    -11.226146     2A    -11.209936     3A    -11.209536
       4A    -11.209302     5A    -11.208932     6A    -11.208289
       7A    -11.204954     8A    -11.204912     9A    -11.204865
      10A    -11.204666    11A     -1.116324    12A     -1.106637
      13A     -0.957246    14A     -0.956835    15A     -0.929472
      16A     -0.929086    17A     -0.928880    18A     -0.777337
      19A     -0.768178    20A     -0.730579    21A     -0.651800
      22A     -0.645165    23A     -0.612813    24A     -0.612529
      25A     -0.611393    26A     -0.572552    27A     -0.570132
      28A     -0.553065    29A     -0.552321    30A     -0.510015
      31A     -0.509979    32A     -0.509819    33A     -0.475493
      34A     -0.475383    35A     -0.464669    36A     -0.463423
      37A     -0.460267    38A     -0.453362    39A     -0.452917
      40A     -0.449534    41A     -0.448890

  @DF-RHF Final Energy:  -391.65575125583558

   => Energetics <=

    Nuclear Repulsion Energy =            564.1504657704268766
    One-Electron Energy =               -1646.9171730577916151
    Two-Electron Energy =                 691.1109560315289855
    Total Energy =                       -391.6557512558356393

  Dipole Moment: [D]
     X:    -0.0090      Y:    -0.0186      Z:    -0.0260     Total:     0.0332

  Basis Set: (AUG-CC-PVQZ AUX)
    Blend: AUG-CC-PVQZ-RI
	 Reference Energy          =    -391.6557512558355825 [Eh]
	 Singles Energy            =      -0.0000000000000000 [Eh]
	 Same-Spin Energy          =      -0.4487970777402588 [Eh]
	 Opposite-Spin Energy      =      -1.7362866100211061 [Eh]
	 Correlation Energy        =      -2.1850836877613649 [Eh]
	 Total Energy              =    -393.8408349435969740 [Eh]

	 ================> DF-SCS-MP2 Energies <==================
	-----------------------------------------------------------
	 SCS Same-Spin Scale       =       0.3333333333333333 [-]
	 SCS Opposite-Spin Scale   =       1.2000000000000000 [-]
	 SCS Same-Spin Energy      =      -0.1495990259134196 [Eh]
	 SCS Opposite-Spin Energy  =      -2.0835439320253273 [Eh]
	 SCS Correlation Energy    =      -2.2331429579387470 [Eh]
	 SCS Total Energy          =    -393.8888942137743356 [Eh]
	-----------------------------------------------------------

*** Psi4 exiting successfully. Buy a developer a beer!
