                               Psi4 1.4a2.dev224

  ==> Input File <==

--------------------------------------------------------------------------
#Generated by lconvert.py for cbs job

memory 40 GB

molecule  {
0 1
  C        0.7999140    -1.0220520     0.6877370
  H        0.8535560    -1.1220510    -0.3980140
  H        1.4914020    -1.7441690     1.1197200
  C        1.1168870     0.4249530     1.0996620
  H        1.8381420     0.8901450     0.4304530
  H        1.5555700     0.4398250     2.0970840
  C       -0.2445590     1.1656900     1.1029770
  H       -0.2580780     2.0008630     0.4053230
  H       -0.4488040     1.5769960     2.0909840
  C       -1.2987140     0.1038120     0.7393090
  H       -1.4735610     0.1052430    -0.3380050
  H       -2.2567340     0.2780410     1.2271580
  C       -0.6468800    -1.2200680     1.1363070
  H       -1.1244390    -2.0876270     0.6829930
  H       -0.6860190    -1.3452830     2.2202200
--
0 1
  C        0.0422060     0.0793290     5.2740170
  C       -0.0541380    -0.0727570     6.7896580
  H        0.9384080    -0.0882230     7.2420150
  H       -0.6130630     0.7551280     7.2280930
  H       -0.5613030    -1.0014230     7.0550070
  C        0.7562590     1.3862340     4.9383930
  H        0.8377790     1.5197330     3.8587110
  H        0.2127870     2.2409230     5.3438940
  H        1.7638640     1.3968850     5.3566260
  C       -1.3628060     0.0991540     4.6766980
  H       -1.3258740     0.2163440     3.5928490
  H       -1.9451050     0.9265770     5.0850440
  H       -1.8927090    -0.8286330     4.8980270
  C        0.8301060    -1.0941560     4.6966790
  H        0.3348860    -2.0411460     4.9169220
  H        0.9249490    -1.0069730     3.6135440
  H        1.8348240    -1.1315600     5.1204280
units angstrom
no_reorient
symmetry c1
}

set {
scf_type DF
mp2_type DF
e_convergence 7
reference rhf
}

energy('mp2/aug-cc-pv[tq]z', bsse_type='cp')
--------------------------------------------------------------------------

    Molecular point group: c1
  Charge       = 0
  Multiplicity = 1
  Basis Set: AUG-CC-PVTZ
    Blend: AUG-CC-PVTZ
  Basis Set: (AUG-CC-PVTZ AUX)
    Blend: AUG-CC-PVTZ-JKFIT
  @DF-RHF Final Energy:  -196.40455362839430
    Total Energy =                       -196.4045536283942965
  Basis Set: (AUG-CC-PVTZ AUX)
    Blend: AUG-CC-PVTZ-RI
	 Reference Energy          =    -196.4045536283942965 [Eh]
	 Singles Energy            =      -0.0000000000000000 [Eh]
	 Same-Spin Energy          =      -0.2117338495401783 [Eh]
	 Opposite-Spin Energy      =      -0.7978224793012418 [Eh]
	 Correlation Energy        =      -1.0095563288414202 [Eh]
	 Total Energy              =    -197.4141099572357234 [Eh]
	 SCS Total Energy          =    -197.4325185534025024 [Eh]
    Molecular point group: c1
  Basis Set: AUG-CC-PVQZ
    Blend: AUG-CC-PVQZ
  Basis Set: (AUG-CC-PVQZ AUX)
    Blend: AUG-CC-PVQZ-JKFIT
  @DF-RHF Final Energy:  -196.41640023516794
    Total Energy =                       -196.4164002351679414
  Basis Set: (AUG-CC-PVQZ AUX)
  @DF-RHF Final Energy:  -196.40463297476654
    Total Energy =                       -196.4046329747665141
  @DF-RHF Final Energy:  -196.41642011275289
    Total Energy =                       -196.4164201127529168
  @DF-RHF Final Energy:  -195.23029867684278
    Total Energy =                       -195.2302986768427786
  @DF-RHF Final Energy:  -195.24172446092811
    Total Energy =                       -195.2417244609281113
  @DF-RHF Final Energy:  -195.23021071800827
    Total Energy =                       -195.2302107180082658
  @DF-RHF Final Energy:  -195.24169902174955
    Total Energy =                       -195.2416990217495538
  Multiplicity = 1
  @DF-RHF Final Energy:  -391.62541341974395
    Total Energy =                       -391.6254134197439498
	 Singles Energy            =      -0.0000000000000000 [Eh]
	 Same-Spin Energy          =      -0.4286894741457129 [Eh]
	 Opposite-Spin Energy      =      -1.5753028730822505 [Eh]
	 Correlation Energy        =      -2.0039923472279635 [Eh]
	 Total Energy              =    -393.6294057669718995 [Eh]
	 SCS Total Energy          =    -393.6586733588245579 [Eh]
    Molecular point group: c1

    Geometry (in Angstrom), charge = 0, multiplicity = 1:

       Center              X                  Y                   Z               Mass
    ------------   -----------------  -----------------  -----------------  -----------------
         C            0.805120492664    -1.009045857411    -2.457157159213    12.000000000000
         H            0.858762492664    -1.109044857411    -3.542908159213     1.007825032230
         H            1.496608492664    -1.731162857411    -2.025174159213     1.007825032230
         C            1.122093492664     0.437959142589    -2.045232159213    12.000000000000
         H            1.843348492664     0.903151142589    -2.714441159213     1.007825032230
         H            1.560776492664     0.452831142589    -1.047810159213     1.007825032230
         C           -0.239352507336     1.178696142589    -2.041917159213    12.000000000000
         H           -0.252871507336     2.013869142589    -2.739571159213     1.007825032230
         H           -0.443597507336     1.590002142589    -1.053910159213     1.007825032230
         C           -1.293507507336     0.116818142589    -2.405585159213    12.000000000000
         H           -1.468354507336     0.118249142589    -3.482899159213     1.007825032230
         H           -2.251527507336     0.291047142589    -1.917736159213     1.007825032230
         C           -0.641673507336    -1.207061857411    -2.008587159213    12.000000000000
         H           -1.119232507336    -2.074620857411    -2.461901159213     1.007825032230
         H           -0.680812507336    -1.332276857411    -0.924674159213     1.007825032230
         C            0.047412492664     0.092335142589     2.129122840787    12.000000000000
         C           -0.048931507336    -0.059750857411     3.644763840787    12.000000000000
         H            0.943614492664    -0.075216857411     4.097120840787     1.007825032230
         H           -0.607856507336     0.768134142589     4.083198840787     1.007825032230
         H           -0.556096507336    -0.988416857411     3.910112840787     1.007825032230
         C            0.761465492664     1.399240142589     1.793498840787    12.000000000000
         H            0.842985492664     1.532739142589     0.713816840787     1.007825032230
         H            0.217993492664     2.253929142589     2.198999840787     1.007825032230
         H            1.769070492664     1.409891142589     2.211731840787     1.007825032230
         C           -1.357599507336     0.112160142589     1.531803840787    12.000000000000
         H           -1.320667507336     0.229350142589     0.447954840787     1.007825032230
         H           -1.939898507336     0.939583142589     1.940149840787     1.007825032230
         H           -1.887502507336    -0.815626857411     1.753132840787     1.007825032230
         C            0.835312492664    -1.081149857411     1.551784840787    12.000000000000
         H            0.340092492664    -2.028139857411     1.772027840787     1.007825032230
         H            0.930155492664    -0.993966857411     0.468649840787     1.007825032230
         H            1.840030492664    -1.118553857411     1.975533840787     1.007825032230

  Charge       = 0
  Multiplicity = 1
  Basis Set: AUG-CC-PVQZ
    Blend: AUG-CC-PVQZ
  Basis Set: (AUG-CC-PVQZ AUX)
    Blend: AUG-CC-PVQZ-JKFIT

    Orbital Energies [Eh]
    ---------------------

    Doubly Occupied:

       1A    -11.225659     2A    -11.209830     3A    -11.209582
       4A    -11.209263     5A    -11.208860     6A    -11.207438
       7A    -11.204073     8A    -11.203925     9A    -11.203831
      10A    -11.203693    11A     -1.117215    12A     -1.106057
      13A     -0.958063    14A     -0.957522    15A     -0.929122
      16A     -0.928769    17A     -0.928694    18A     -0.778259
      19A     -0.768759    20A     -0.730667    21A     -0.655745
      22A     -0.645503    23A     -0.613031    24A     -0.612437
      25A     -0.608458    26A     -0.577805    27A     -0.574282
      28A     -0.550433    29A     -0.548604    30A     -0.509598
      31A     -0.509109    32A     -0.508854    33A     -0.476464
      34A     -0.475756    35A     -0.465336    36A     -0.464948
      37A     -0.460398    38A     -0.453218    39A     -0.452255
      40A     -0.449524    41A     -0.443542

  @DF-RHF Final Energy:  -391.64864129425627

   => Energetics <=

    Nuclear Repulsion Energy =            582.2912072961482863
    One-Electron Energy =               -1683.1905369159107977
    Two-Electron Energy =                 709.2506883255063030
    Total Energy =                       -391.6486412942562083

  Dipole Moment: [D]
     X:    -0.0052      Y:    -0.0115      Z:    -0.0814     Total:     0.0823

  Basis Set: (AUG-CC-PVQZ AUX)
    Blend: AUG-CC-PVQZ-RI
	 Reference Energy          =    -391.6486412942562652 [Eh]
	 Singles Energy            =      -0.0000000000000000 [Eh]
	 Same-Spin Energy          =      -0.4518794291658549 [Eh]
	 Opposite-Spin Energy      =      -1.7401147738417027 [Eh]
	 Correlation Energy        =      -2.1919942030075577 [Eh]
	 Total Energy              =    -393.8406354972638042 [Eh]

	 ================> DF-SCS-MP2 Energies <==================
	-----------------------------------------------------------
	 SCS Same-Spin Scale       =       0.3333333333333333 [-]
	 SCS Opposite-Spin Scale   =       1.2000000000000000 [-]
	 SCS Same-Spin Energy      =      -0.1506264763886183 [Eh]
	 SCS Opposite-Spin Energy  =      -2.0881377286100431 [Eh]
	 SCS Correlation Energy    =      -2.2387642049986614 [Eh]
	 SCS Total Energy          =    -393.8874054992549532 [Eh]
	-----------------------------------------------------------

*** Psi4 exiting successfully. Buy a developer a beer!
