                               Psi4 1.4a2.dev224

  ==> Input File <==

--------------------------------------------------------------------------
#Generated by lconvert.py for cbs job

memory 40 GB

molecule  {
0 1
  C        0.9568800    -0.8918460     1.1419500
  H        1.5045660    -1.2783580     0.2834200
  H        1.4213840    -1.3147780     2.0310250
  C        0.9909490     0.6585080     1.1455040
  H        1.5105940     1.0230960     0.2599480
  H        1.5162580     1.0598180     2.0105370
  C       -0.4794520     1.1023190     1.1038790
  H       -0.6162690     2.0648770     0.6135670
  H       -0.8747420     1.1890710     2.1180700
  C       -1.1821070    -0.0527970     0.3933460
  H       -0.9488820    -0.0268300    -0.6738050
  H       -2.2656650    -0.0335650     0.5012740
  C       -0.5306600    -1.2748900     1.0393100
  H       -0.6903910    -2.1970210     0.4829920
  H       -0.9508490    -1.4154120     2.0367480
--
0 1
  C       -1.1514630    -0.4230710     4.1666700
  H       -1.4845970    -0.1863730     3.1540850
  H       -1.9562510    -0.9661700     4.6596560
  C        0.1621440    -1.2186160     4.1189080
  H        0.2120890    -1.8763590     3.2527750
  H        0.2424310    -1.8499740     5.0032940
  C        1.2914590    -0.1559110     4.1195040
  H        1.9127240    -0.2165890     3.2276310
  H        1.9488680    -0.3057940     4.9749100
  C        0.5812860     1.2057580     4.2273710
  H        0.4014220     1.6142500     3.2313720
  H        1.1616700     1.9401620     4.7833450
  C       -0.7607670     0.8712860     4.8771830
  H       -1.5004350     1.6637980     4.7723020
  H       -0.6207270     0.6796460     5.9437320
units angstrom
no_reorient
symmetry c1
}

set {
scf_type DF
mp2_type DF
e_convergence 7
reference rhf
}

energy('mp2/aug-cc-pv[tq]z', bsse_type='cp')
--------------------------------------------------------------------------

    Molecular point group: c1
  Charge       = 0
  Multiplicity = 1
  Basis Set: AUG-CC-PVTZ
    Blend: AUG-CC-PVTZ
  Basis Set: (AUG-CC-PVTZ AUX)
    Blend: AUG-CC-PVTZ-JKFIT
  @DF-RHF Final Energy:  -195.23013326337036
    Total Energy =                       -195.2301332633703623
  Basis Set: (AUG-CC-PVTZ AUX)
    Blend: AUG-CC-PVTZ-RI
	 Reference Energy          =    -195.2301332633703623 [Eh]
	 Singles Energy            =      -0.0000000000000000 [Eh]
	 Same-Spin Energy          =      -0.2104921606560913 [Eh]
	 Opposite-Spin Energy      =      -0.7664078415413125 [Eh]
	 Correlation Energy        =      -0.9769000021974037 [Eh]
	 Total Energy              =    -196.2070332655677589 [Eh]
	 SCS Total Energy          =    -196.2199867267719640 [Eh]
    Molecular point group: c1
  Basis Set: AUG-CC-PVQZ
    Blend: AUG-CC-PVQZ
  Basis Set: (AUG-CC-PVQZ AUX)
    Blend: AUG-CC-PVQZ-JKFIT
  @DF-RHF Final Energy:  -195.24162081755969
    Total Energy =                       -195.2416208175596921
  Basis Set: (AUG-CC-PVQZ AUX)
  @DF-RHF Final Energy:  -195.23027860828915
    Total Energy =                       -195.2302786082891544
  @DF-RHF Final Energy:  -195.24165924404781
    Total Energy =                       -195.2416592440478098
  @DF-RHF Final Energy:  -195.23027327738211
    Total Energy =                       -195.2302732773821106
  @DF-RHF Final Energy:  -195.24165391222471
    Total Energy =                       -195.2416539122247059
  @DF-RHF Final Energy:  -195.23012794571451
    Total Energy =                       -195.2301279457145142
  @DF-RHF Final Energy:  -195.24161548471039
    Total Energy =                       -195.2416154847103940
  @DF-RHF Final Energy:  -390.40212846872947
    Total Energy =                       -390.4021284687295292
  @DF-RHF Final Energy:  -390.42496971495916
    Total Energy =                       -390.4249697149591611
*** Psi4 exiting successfully. Buy a developer a beer!
                               Psi4 1.4a2.dev224
  @DF-RHF Final Energy:  -195.23013326053834
    Total Energy =                       -195.2301332605383379
  @DF-RHF Final Energy:  -195.24162081316180
    Total Energy =                       -195.2416208131618021
  @DF-RHF Final Energy:  -195.23024008296852
    Total Energy =                       -195.2302400829685212
  @DF-RHF Final Energy:  -195.24165207624560
    Total Energy =                       -195.2416520762456003
  @DF-RHF Final Energy:  -195.23023475596665
    Total Energy =                       -195.2302347559666487
  @DF-RHF Final Energy:  -195.24164674790208
    Total Energy =                       -195.2416467479020810
  @DF-RHF Final Energy:  -195.23012794545434
    Total Energy =                       -195.2301279454543419
  @DF-RHF Final Energy:  -195.24161548389742
    Total Energy =                       -195.2416154838974194
  @DF-RHF Final Energy:  -390.43670151550964
    Total Energy =                       -390.4367015155096396
  @DF-RHF Final Energy:  -390.45955821505953
    Total Energy =                       -390.4595582150595874
*** Psi4 exiting successfully. Buy a developer a beer!
                               Psi4 1.4a2.dev224
                               Psi4 1.4a2.dev224
                               Psi4 1.4a2.dev224
                               Psi4 1.4a2.dev224
                               Psi4 1.4a2.dev224
                               Psi4 1.4a2.dev224
                               Psi4 1.4a2.dev224
  @DF-RHF Final Energy:  -195.23013328952945
    Total Energy =                       -195.2301332895294479
  @DF-RHF Final Energy:  -195.24162084529684
    Total Energy =                       -195.2416208452968363
  @DF-RHF Final Energy:  -195.23014475447198
    Total Energy =                       -195.2301447544719792
  @DF-RHF Final Energy:  -195.24162650381521
    Total Energy =                       -195.2416265038152119
  @DF-RHF Final Energy:  -195.23013943212968
    Total Energy =                       -195.2301394321296755
  @DF-RHF Final Energy:  -195.24162117023729
    Total Energy =                       -195.2416211702372948
  @DF-RHF Final Energy:  -195.23012796949624
    Total Energy =                       -195.2301279694962375
  @DF-RHF Final Energy:  -195.24161550805732
    Total Energy =                       -195.2416155080573219
  @DF-RHF Final Energy:  -390.46026263992860
    Total Energy =                       -390.4602626399286009
  @DF-RHF Final Energy:  -390.48322598211200
    Total Energy =                       -390.4832259821120033
*** Psi4 exiting successfully. Buy a developer a beer!
                               Psi4 1.4a2.dev224
  @DF-RHF Final Energy:  -195.23013325500796
    Total Energy =                       -195.2301332550079564
  @DF-RHF Final Energy:  -195.24162080908155
    Total Energy =                       -195.2416208090815530
  @DF-RHF Final Energy:  -195.23013769945408
    Total Energy =                       -195.2301376994540760
  @DF-RHF Final Energy:  -195.24162390269200
    Total Energy =                       -195.2416239026919982
  @DF-RHF Final Energy:  -195.23013241465316
    Total Energy =                       -195.2301324146531556
  @DF-RHF Final Energy:  -195.24161860418474
    Total Energy =                       -195.2416186041847368
  @DF-RHF Final Energy:  -195.23012796847379
    Total Energy =                       -195.2301279684737949
  @DF-RHF Final Energy:  -195.24161551106326
    Total Energy =                       -195.2416155110632587
  Multiplicity = 1
  @DF-RHF Final Energy:  -390.46026142921107
    Total Energy =                       -390.4602614292110729
	 Singles Energy            =      -0.0000000000000000 [Eh]
	 Same-Spin Energy          =      -0.4211913257064933 [Eh]
	 Opposite-Spin Energy      =      -1.5332444006626968 [Eh]
	 Correlation Energy        =      -1.9544357263691901 [Eh]
	 Total Energy              =    -392.4146971555802565 [Eh]
	 SCS Total Energy          =    -392.4405518185751589 [Eh]
    Molecular point group: c1

    Geometry (in Angstrom), charge = 0, multiplicity = 1:

       Center              X                  Y                   Z               Mass
    ------------   -----------------  -----------------  -----------------  -----------------
         C            0.927321452122    -0.954868031126    -3.342030483251    12.000000000000
         H            1.475011452122    -1.341378031126    -4.200560483251     1.007825032230
         H            1.391821452122    -1.377798031126    -2.452950483251     1.007825032230
         C            0.961391452122     0.595491968874    -3.338480483251    12.000000000000
         H            1.481031452122     0.960081968874    -4.224030483251     1.007825032230
         H            1.486701452122     0.996801968874    -2.473440483251     1.007825032230
         C           -0.509008547878     1.039301968874    -3.380100483251    12.000000000000
         H           -0.645828547878     2.001861968874    -3.870410483251     1.007825032230
         H           -0.904298547878     1.126051968874    -2.365910483251     1.007825032230
         C           -1.211668547878    -0.115818031126    -4.090630483251    12.000000000000
         H           -0.978438547878    -0.089848031126    -5.157780483251     1.007825032230
         H           -2.295218547878    -0.096578031126    -3.982710483251     1.007825032230
         C           -0.560218547878    -1.337908031126    -3.444670483251    12.000000000000
         H           -0.719948547878    -2.260038031126    -4.000990483251     1.007825032230
         H           -0.980408547878    -1.478428031126    -2.447230483251     1.007825032230
         C           -1.099958547878    -0.323138031126     3.383929516749    12.000000000000
         H           -1.433088547878    -0.086438031126     2.371349516749     1.007825032230
         H           -1.904738547878    -0.866238031126     3.876919516749     1.007825032230
         C            0.213651452122    -1.118678031126     3.336169516749    12.000000000000
         H            0.263591452122    -1.776428031126     2.470039516749     1.007825032230
         H            0.293941452122    -1.750038031126     4.220559516749     1.007825032230
         C            1.342971452122    -0.055978031126     3.336769516749    12.000000000000
         H            1.964231452122    -0.116658031126     2.444889516749     1.007825032230
         H            2.000381452122    -0.205858031126     4.192169516749     1.007825032230
         C            0.632791452122     1.305691968874     3.444629516749    12.000000000000
         H            0.452931452122     1.714181968874     2.448629516749     1.007825032230
         H            1.213181452122     2.040091968874     4.000609516749     1.007825032230
         C           -0.709258547878     0.971221968874     4.094439516749    12.000000000000
         H           -1.448928547878     1.763731968874     3.989559516749     1.007825032230
         H           -0.569218547878     0.779581968874     5.160989516749     1.007825032230

  Charge       = 0
  Multiplicity = 1
  Basis Set: AUG-CC-PVQZ
    Blend: AUG-CC-PVQZ
  Basis Set: (AUG-CC-PVQZ AUX)
    Blend: AUG-CC-PVQZ-JKFIT

    Orbital Energies [Eh]
    ---------------------

    Doubly Occupied:

       1A    -11.209689     2A    -11.209685     3A    -11.209289
       4A    -11.209286     5A    -11.209282     6A    -11.209278
       7A    -11.208668     8A    -11.208664     9A    -11.208521
      10A    -11.208519    11A     -1.116395    12A     -1.116366
      13A     -0.956829    14A     -0.956819    15A     -0.955980
      16A     -0.955965    17A     -0.777199    18A     -0.777161
      19A     -0.767472    20A     -0.767465    21A     -0.650183
      22A     -0.650079    23A     -0.645117    24A     -0.645077
      25A     -0.570294    26A     -0.570224    27A     -0.568475
      28A     -0.568384    29A     -0.475752    30A     -0.475713
      31A     -0.474862    32A     -0.474786    33A     -0.463938
      34A     -0.463925    35A     -0.460940    36A     -0.460724
      37A     -0.459587    38A     -0.459551    39A     -0.449258
      40A     -0.449254

  @DF-RHF Final Energy:  -390.48323378844771

   => Energetics <=

    Nuclear Repulsion Energy =            493.5243815309352726
    One-Electron Energy =               -1504.6659130107113924
    Two-Electron Energy =                 620.6582976913284710
    Total Energy =                       -390.4832337884477056

  Dipole Moment: [D]
     X:    -0.0264      Y:     0.0117      Z:     0.0001     Total:     0.0289

  Basis Set: (AUG-CC-PVQZ AUX)
    Blend: AUG-CC-PVQZ-RI
	 Reference Energy          =    -390.4832337884477056 [Eh]
	 Singles Energy            =      -0.0000000000000000 [Eh]
	 Same-Spin Energy          =      -0.4446603195762734 [Eh]
	 Opposite-Spin Energy      =      -1.6991346199374875 [Eh]
	 Correlation Energy        =      -2.1437949395137608 [Eh]
	 Total Energy              =    -392.6270287279614877 [Eh]

	 ================> DF-SCS-MP2 Energies <==================
	-----------------------------------------------------------
	 SCS Same-Spin Scale       =       0.3333333333333333 [-]
	 SCS Opposite-Spin Scale   =       1.2000000000000000 [-]
	 SCS Same-Spin Energy      =      -0.1482201065254244 [Eh]
	 SCS Opposite-Spin Energy  =      -2.0389615439249851 [Eh]
	 SCS Correlation Energy    =      -2.1871816504504094 [Eh]
	 SCS Total Energy          =    -392.6704154388980896 [Eh]
	-----------------------------------------------------------

*** Psi4 exiting successfully. Buy a developer a beer!
