                               Psi4 1.4a2.dev224

  ==> Input File <==

--------------------------------------------------------------------------
#Generated by lconvert.py for cbs job

memory 40 GB

molecule  {
0 1
  C        0.9568800    -0.8918460     1.1419500
  H        1.5045660    -1.2783580     0.2834200
  H        1.4213840    -1.3147780     2.0310250
  C        0.9909490     0.6585080     1.1455040
  H        1.5105940     1.0230960     0.2599480
  H        1.5162580     1.0598180     2.0105370
  C       -0.4794520     1.1023190     1.1038790
  H       -0.6162690     2.0648770     0.6135670
  H       -0.8747420     1.1890710     2.1180700
  C       -1.1821070    -0.0527970     0.3933460
  H       -0.9488820    -0.0268300    -0.6738050
  H       -2.2656650    -0.0335650     0.5012740
  C       -0.5306600    -1.2748900     1.0393100
  H       -0.6903910    -2.1970210     0.4829920
  H       -0.9508490    -1.4154120     2.0367480
--
0 1
  C       -1.1446280    -0.4093320     4.4787310
  H       -1.4777620    -0.1726340     3.4661460
  H       -1.9494160    -0.9524310     4.9717170
  C        0.1689790    -1.2048770     4.4309690
  H        0.2189240    -1.8626200     3.5648360
  H        0.2492660    -1.8362350     5.3153550
  C        1.2982940    -0.1421710     4.4315650
  H        1.9195590    -0.2028500     3.5396920
  H        1.9557030    -0.2920550     5.2869710
  C        0.5881200     1.2194970     4.5394320
  H        0.4082570     1.6279890     3.5434330
  H        1.1685040     1.9539010     5.0954060
  C       -0.7539320     0.8850250     5.1892440
  H       -1.4936010     1.6775370     5.0843630
  H       -0.6138920     0.6933850     6.2557930
units angstrom
no_reorient
symmetry c1
}

set {
scf_type DF
mp2_type DF
e_convergence 7
reference rhf
}

energy('mp2/aug-cc-pv[tq]z', bsse_type='cp')
--------------------------------------------------------------------------

    Molecular point group: c1
  Charge       = 0
  Multiplicity = 1
  Basis Set: AUG-CC-PVTZ
    Blend: AUG-CC-PVTZ
  Basis Set: (AUG-CC-PVTZ AUX)
    Blend: AUG-CC-PVTZ-JKFIT
  @DF-RHF Final Energy:  -195.23013326053834
    Total Energy =                       -195.2301332605383379
  Basis Set: (AUG-CC-PVTZ AUX)
    Blend: AUG-CC-PVTZ-RI
	 Reference Energy          =    -195.2301332605383379 [Eh]
	 Singles Energy            =      -0.0000000000000000 [Eh]
	 Same-Spin Energy          =      -0.2104921647343787 [Eh]
	 Opposite-Spin Energy      =      -0.7664078448109192 [Eh]
	 Correlation Energy        =      -0.9769000095452978 [Eh]
	 Total Energy              =    -196.2070332700836275 [Eh]
	 SCS Total Energy          =    -196.2199867292229101 [Eh]
    Molecular point group: c1
  Basis Set: AUG-CC-PVQZ
    Blend: AUG-CC-PVQZ
  Basis Set: (AUG-CC-PVQZ AUX)
    Blend: AUG-CC-PVQZ-JKFIT
  @DF-RHF Final Energy:  -195.24162081316180
    Total Energy =                       -195.2416208131618021
  Basis Set: (AUG-CC-PVQZ AUX)
  @DF-RHF Final Energy:  -195.23024008296852
    Total Energy =                       -195.2302400829685212
  @DF-RHF Final Energy:  -195.24165207624560
    Total Energy =                       -195.2416520762456003
  @DF-RHF Final Energy:  -195.23023475596665
    Total Energy =                       -195.2302347559666487
  @DF-RHF Final Energy:  -195.24164674790208
    Total Energy =                       -195.2416467479020810
  @DF-RHF Final Energy:  -195.23012794545434
    Total Energy =                       -195.2301279454543419
  @DF-RHF Final Energy:  -195.24161548389742
    Total Energy =                       -195.2416154838974194
  Multiplicity = 1
  @DF-RHF Final Energy:  -390.43670151550964
    Total Energy =                       -390.4367015155096396
	 Singles Energy            =      -0.0000000000000000 [Eh]
	 Same-Spin Energy          =      -0.4321727194356905 [Eh]
	 Opposite-Spin Energy      =      -1.5498754088165472 [Eh]
	 Correlation Energy        =      -1.9820481282522378 [Eh]
	 Total Energy              =    -392.4187496437618847 [Eh]
	 SCS Total Energy          =    -392.4406095792347173 [Eh]
    Molecular point group: c1

    Geometry (in Angstrom), charge = 0, multiplicity = 1:

       Center              X                  Y                   Z               Mass
    ------------   -----------------  -----------------  -----------------  -----------------
         C            0.964437295937    -0.880257580791    -1.647440325055    12.000000000000
         H            1.512123295937    -1.266769580791    -2.505970325055     1.007825032230
         H            1.428941295937    -1.303189580791    -0.758365325055     1.007825032230
         C            0.998506295937     0.670096419209    -1.643886325055    12.000000000000
         H            1.518151295937     1.034684419209    -2.529442325055     1.007825032230
         H            1.523815295937     1.071406419209    -0.778853325055     1.007825032230
         C           -0.471894704063     1.113907419209    -1.685511325055    12.000000000000
         H           -0.608711704063     2.076465419209    -2.175823325055     1.007825032230
         H           -0.867184704063     1.200659419209    -0.671320325055     1.007825032230
         C           -1.174549704063    -0.041208580791    -2.396044325055    12.000000000000
         H           -0.941324704063    -0.015241580791    -3.463195325055     1.007825032230
         H           -2.258107704063    -0.021976580791    -2.288116325055     1.007825032230
         C           -0.523102704063    -1.263301580791    -1.750080325055    12.000000000000
         H           -0.682833704063    -2.185432580791    -2.306398325055     1.007825032230
         H           -0.943291704063    -1.403823580791    -0.752642325055     1.007825032230
         C           -1.137070704063    -0.397743580791     1.689340674945    12.000000000000
         H           -1.470204704063    -0.161045580791     0.676755674945     1.007825032230
         H           -1.941858704063    -0.940842580791     2.182326674945     1.007825032230
         C            0.176536295937    -1.193288580791     1.641578674945    12.000000000000
         H            0.226481295937    -1.851031580791     0.775445674945     1.007825032230
         H            0.256823295937    -1.824646580791     2.525964674945     1.007825032230
         C            1.305851295937    -0.130582580791     1.642174674945    12.000000000000
         H            1.927116295937    -0.191261580791     0.750301674945     1.007825032230
         H            1.963260295937    -0.280466580791     2.497580674945     1.007825032230
         C            0.595677295937     1.231085419209     1.750041674945    12.000000000000
         H            0.415814295937     1.639577419209     0.754042674945     1.007825032230
         H            1.176061295937     1.965489419209     2.306015674945     1.007825032230
         C           -0.746374704063     0.896613419209     2.399853674945    12.000000000000
         H           -1.486043704063     1.689125419209     2.294972674945     1.007825032230
         H           -0.606334704063     0.704973419209     3.466402674945     1.007825032230

  Charge       = 0
  Multiplicity = 1
  Basis Set: AUG-CC-PVQZ
    Blend: AUG-CC-PVQZ
  Basis Set: (AUG-CC-PVQZ AUX)
    Blend: AUG-CC-PVQZ-JKFIT

    Orbital Energies [Eh]
    ---------------------

    Doubly Occupied:

       1A    -11.208996     2A    -11.208996     3A    -11.208244
       4A    -11.208242     5A    -11.207727     6A    -11.207724
       7A    -11.207190     8A    -11.207186     9A    -11.206319
      10A    -11.206318    11A     -1.121777    12A     -1.112328
      13A     -0.964066    14A     -0.962739    15A     -0.951466
      16A     -0.951006    17A     -0.787010    18A     -0.774610
      19A     -0.768039    20A     -0.765352    21A     -0.676348
      22A     -0.648111    23A     -0.644621    24A     -0.626196
      25A     -0.594530    26A     -0.586575    27A     -0.553050
      28A     -0.547381    29A     -0.481840    30A     -0.479253
      31A     -0.479032    32A     -0.469074    33A     -0.468602
      34A     -0.466680    35A     -0.464766    36A     -0.459387
      37A     -0.457539    38A     -0.451356    39A     -0.447968
      40A     -0.437938

  @DF-RHF Final Energy:  -390.45955821505953

   => Energetics <=

    Nuclear Repulsion Energy =            586.9016120713130249
    One-Electron Energy =               -1691.3711603276310598
    Two-Electron Energy =                 714.0099900412583338
    Total Energy =                       -390.4595582150595874

  Dipole Moment: [D]
     X:    -0.0066      Y:     0.0029      Z:     0.0001     Total:     0.0072

  Basis Set: (AUG-CC-PVQZ AUX)
    Blend: AUG-CC-PVQZ-RI
	 Reference Energy          =    -390.4595582150595305 [Eh]
	 Singles Energy            =      -0.0000000000000000 [Eh]
	 Same-Spin Energy          =      -0.4552802759912687 [Eh]
	 Opposite-Spin Energy      =      -1.7123735215546558 [Eh]
	 Correlation Energy        =      -2.1676537975459245 [Eh]
	 Total Energy              =    -392.6272120126054688 [Eh]

	 ================> DF-SCS-MP2 Energies <==================
	-----------------------------------------------------------
	 SCS Same-Spin Scale       =       0.3333333333333333 [-]
	 SCS Opposite-Spin Scale   =       1.2000000000000000 [-]
	 SCS Same-Spin Energy      =      -0.1517600919970896 [Eh]
	 SCS Opposite-Spin Energy  =      -2.0548482258655869 [Eh]
	 SCS Correlation Energy    =      -2.2066083178626763 [Eh]
	 SCS Total Energy          =    -392.6661665329222046 [Eh]
	-----------------------------------------------------------

*** Psi4 exiting successfully. Buy a developer a beer!
