                               Psi4 1.4a2.dev224

  ==> Input File <==

--------------------------------------------------------------------------
#Generated by lconvert.py for cbs job

memory 40 GB

molecule  {
0 1
  C        0.9568800    -0.8918460     1.1419500
  H        1.5045660    -1.2783580     0.2834200
  H        1.4213840    -1.3147780     2.0310250
  C        0.9909490     0.6585080     1.1455040
  H        1.5105940     1.0230960     0.2599480
  H        1.5162580     1.0598180     2.0105370
  C       -0.4794520     1.1023190     1.1038790
  H       -0.6162690     2.0648770     0.6135670
  H       -0.8747420     1.1890710     2.1180700
  C       -1.1821070    -0.0527970     0.3933460
  H       -0.9488820    -0.0268300    -0.6738050
  H       -2.2656650    -0.0335650     0.5012740
  C       -0.5306600    -1.2748900     1.0393100
  H       -0.6903910    -2.1970210     0.4829920
  H       -0.9508490    -1.4154120     2.0367480
--
0 1
  C       -1.1514630    -0.4230710     4.1666700
  H       -1.4845970    -0.1863730     3.1540850
  H       -1.9562510    -0.9661700     4.6596560
  C        0.1621440    -1.2186160     4.1189080
  H        0.2120890    -1.8763590     3.2527750
  H        0.2424310    -1.8499740     5.0032940
  C        1.2914590    -0.1559110     4.1195040
  H        1.9127240    -0.2165890     3.2276310
  H        1.9488680    -0.3057940     4.9749100
  C        0.5812860     1.2057580     4.2273710
  H        0.4014220     1.6142500     3.2313720
  H        1.1616700     1.9401620     4.7833450
  C       -0.7607670     0.8712860     4.8771830
  H       -1.5004350     1.6637980     4.7723020
  H       -0.6207270     0.6796460     5.9437320
units angstrom
no_reorient
symmetry c1
}

set {
scf_type DF
mp2_type DF
e_convergence 7
reference rhf
}

energy('mp2/aug-cc-pv[tq]z', bsse_type='cp')
--------------------------------------------------------------------------

    Molecular point group: c1
  Charge       = 0
  Multiplicity = 1
  Basis Set: AUG-CC-PVTZ
    Blend: AUG-CC-PVTZ
  Basis Set: (AUG-CC-PVTZ AUX)
    Blend: AUG-CC-PVTZ-JKFIT
  @DF-RHF Final Energy:  -195.23013326337036
    Total Energy =                       -195.2301332633703623
  Basis Set: (AUG-CC-PVTZ AUX)
    Blend: AUG-CC-PVTZ-RI
	 Reference Energy          =    -195.2301332633703623 [Eh]
	 Singles Energy            =      -0.0000000000000000 [Eh]
	 Same-Spin Energy          =      -0.2104921606560913 [Eh]
	 Opposite-Spin Energy      =      -0.7664078415413125 [Eh]
	 Correlation Energy        =      -0.9769000021974037 [Eh]
	 Total Energy              =    -196.2070332655677589 [Eh]
	 SCS Total Energy          =    -196.2199867267719640 [Eh]
    Molecular point group: c1
  Basis Set: AUG-CC-PVQZ
    Blend: AUG-CC-PVQZ
  Basis Set: (AUG-CC-PVQZ AUX)
    Blend: AUG-CC-PVQZ-JKFIT
  @DF-RHF Final Energy:  -195.24162081755969
    Total Energy =                       -195.2416208175596921
  Basis Set: (AUG-CC-PVQZ AUX)
  @DF-RHF Final Energy:  -195.23027860828915
    Total Energy =                       -195.2302786082891544
  @DF-RHF Final Energy:  -195.24165924404781
    Total Energy =                       -195.2416592440478098
  @DF-RHF Final Energy:  -195.23027327738211
    Total Energy =                       -195.2302732773821106
  @DF-RHF Final Energy:  -195.24165391222471
    Total Energy =                       -195.2416539122247059
  @DF-RHF Final Energy:  -195.23012794571451
    Total Energy =                       -195.2301279457145142
  @DF-RHF Final Energy:  -195.24161548471039
    Total Energy =                       -195.2416154847103940
  Multiplicity = 1
  @DF-RHF Final Energy:  -390.40212846872947
    Total Energy =                       -390.4021284687295292
	 Singles Energy            =      -0.0000000000000000 [Eh]
	 Same-Spin Energy          =      -0.4387114856476337 [Eh]
	 Opposite-Spin Energy      =      -1.5583988017840966 [Eh]
	 Correlation Energy        =      -1.9971102874317304 [Eh]
	 Total Energy              =    -392.3992387561611963 [Eh]
	 SCS Total Energy          =    -392.4184441927529292 [Eh]
    Molecular point group: c1

    Geometry (in Angstrom), charge = 0, multiplicity = 1:

       Center              X                  Y                   Z               Mass
    ------------   -----------------  -----------------  -----------------  -----------------
         C            0.967854695937    -0.873387995172    -1.491409825055    12.000000000000
         H            1.515540695937    -1.259899995172    -2.349939825055     1.007825032230
         H            1.432358695937    -1.296319995172    -0.602334825055     1.007825032230
         C            1.001923695937     0.676966004828    -1.487855825055    12.000000000000
         H            1.521568695937     1.041554004828    -2.373411825055     1.007825032230
         H            1.527232695937     1.078276004828    -0.622822825055     1.007825032230
         C           -0.468477304063     1.120777004828    -1.529480825055    12.000000000000
         H           -0.605294304063     2.083335004828    -2.019792825055     1.007825032230
         H           -0.863767304063     1.207529004828    -0.515289825055     1.007825032230
         C           -1.171132304063    -0.034338995172    -2.240013825055    12.000000000000
         H           -0.937907304063    -0.008371995172    -3.307164825055     1.007825032230
         H           -2.254690304063    -0.015106995172    -2.132085825055     1.007825032230
         C           -0.519685304063    -1.256431995172    -1.594049825055    12.000000000000
         H           -0.679416304063    -2.178562995172    -2.150367825055     1.007825032230
         H           -0.939874304063    -1.396953995172    -0.596611825055     1.007825032230
         C           -1.140488304063    -0.404612995172     1.533310174945    12.000000000000
         H           -1.473622304063    -0.167914995172     0.520725174945     1.007825032230
         H           -1.945276304063    -0.947711995172     2.026296174945     1.007825032230
         C            0.173118695937    -1.200157995172     1.485548174945    12.000000000000
         H            0.223063695937    -1.857900995172     0.619415174945     1.007825032230
         H            0.253405695937    -1.831515995172     2.369934174945     1.007825032230
         C            1.302433695937    -0.137452995172     1.486144174945    12.000000000000
         H            1.923698695937    -0.198130995172     0.594271174945     1.007825032230
         H            1.959842695937    -0.287335995172     2.341550174945     1.007825032230
         C            0.592260695937     1.224216004828     1.594011174945    12.000000000000
         H            0.412396695937     1.632708004828     0.598012174945     1.007825032230
         H            1.172644695937     1.958620004828     2.149985174945     1.007825032230
         C           -0.749792304063     0.889744004828     2.243823174945    12.000000000000
         H           -1.489460304063     1.682256004828     2.138942174945     1.007825032230
         H           -0.609752304063     0.698104004828     3.310372174945     1.007825032230

  Charge       = 0
  Multiplicity = 1
  Basis Set: AUG-CC-PVQZ
    Blend: AUG-CC-PVQZ
  Basis Set: (AUG-CC-PVQZ AUX)
    Blend: AUG-CC-PVQZ-JKFIT

    Orbital Energies [Eh]
    ---------------------

    Doubly Occupied:

       1A    -11.208482     2A    -11.208480     3A    -11.206915
       4A    -11.206911     5A    -11.205625     6A    -11.205617
       7A    -11.204603     8A    -11.204595     9A    -11.203207
      10A    -11.203203    11A     -1.127249    12A     -1.108673
      13A     -0.971424    14A     -0.969125    15A     -0.946888
      16A     -0.946745    17A     -0.795079    18A     -0.777137
      19A     -0.768525    20A     -0.760792    21A     -0.690252
      22A     -0.650120    23A     -0.643118    24A     -0.615061
      25A     -0.608865    26A     -0.594941    27A     -0.541114
      28A     -0.535350    29A     -0.488051    30A     -0.482450
      31A     -0.481350    32A     -0.469986    33A     -0.468862
      34A     -0.465187    35A     -0.462318    36A     -0.459962
      37A     -0.454821    38A     -0.450068    39A     -0.443652
      40A     -0.425744

  @DF-RHF Final Energy:  -390.42496971495916

   => Energetics <=

    Nuclear Repulsion Energy =            602.7732529805876993
    One-Electron Energy =               -1723.0753342027312556
    Two-Electron Energy =                 729.8771115071842814
    Total Energy =                       -390.4249697149591611

  Dipole Moment: [D]
     X:     0.0041      Y:    -0.0018      Z:     0.0002     Total:     0.0044

  Basis Set: (AUG-CC-PVQZ AUX)
    Blend: AUG-CC-PVQZ-RI
	 Reference Energy          =    -390.4249697149591611 [Eh]
	 Singles Energy            =      -0.0000000000000000 [Eh]
	 Same-Spin Energy          =      -0.4617743435380799 [Eh]
	 Opposite-Spin Energy      =      -1.7200855488918734 [Eh]
	 Correlation Energy        =      -2.1818598924299533 [Eh]
	 Total Energy              =    -392.6068296073891020 [Eh]

	 ================> DF-SCS-MP2 Energies <==================
	-----------------------------------------------------------
	 SCS Same-Spin Scale       =       0.3333333333333333 [-]
	 SCS Opposite-Spin Scale   =       1.2000000000000000 [-]
	 SCS Same-Spin Energy      =      -0.1539247811793600 [Eh]
	 SCS Opposite-Spin Energy  =      -2.0641026586702478 [Eh]
	 SCS Correlation Energy    =      -2.2180274398496076 [Eh]
	 SCS Total Energy          =    -392.6429971548087678 [Eh]
	-----------------------------------------------------------

*** Psi4 exiting successfully. Buy a developer a beer!
