                               Psi4 1.4a2.dev224

  ==> Input File <==

--------------------------------------------------------------------------
#Generated by lconvert.py for cbs job

memory 40 GB

molecule  {
0 1
  C        0.9568800    -0.8918460     1.1419500
  H        1.5045660    -1.2783580     0.2834200
  H        1.4213840    -1.3147780     2.0310250
  C        0.9909490     0.6585080     1.1455040
  H        1.5105940     1.0230960     0.2599480
  H        1.5162580     1.0598180     2.0105370
  C       -0.4794520     1.1023190     1.1038790
  H       -0.6162690     2.0648770     0.6135670
  H       -0.8747420     1.1890710     2.1180700
  C       -1.1821070    -0.0527970     0.3933460
  H       -0.9488820    -0.0268300    -0.6738050
  H       -2.2656650    -0.0335650     0.5012740
  C       -0.5306600    -1.2748900     1.0393100
  H       -0.6903910    -2.1970210     0.4829920
  H       -0.9508490    -1.4154120     2.0367480
--
0 1
  C       -1.1317800    -0.3835060     5.0653350
  H       -1.4649140    -0.1468070     4.0527510
  H       -1.9365680    -0.9266050     5.5583220
  C        0.1818260    -1.1790510     5.0175740
  H        0.2317710    -1.8367940     4.1514400
  H        0.2621140    -1.8104090     5.9019600
  C        1.3111420    -0.1163450     5.0181700
  H        1.9324070    -0.1770240     4.1262970
  H        1.9685510    -0.2662280     5.8735750
  C        0.6009680     1.2453240     5.1260370
  H        0.4211050     1.6538150     4.1300380
  H        1.1813520     1.9797270     5.6820100
  C       -0.7410840     0.9108510     5.7758490
  H       -1.4807530     1.7033630     5.6709680
  H       -0.6010440     0.7192110     6.8423980
units angstrom
no_reorient
symmetry c1
}

set {
scf_type DF
mp2_type DF
e_convergence 7
reference rhf
}

energy('mp2/aug-cc-pv[tq]z', bsse_type='cp')
--------------------------------------------------------------------------

    Molecular point group: c1
  Charge       = 0
  Multiplicity = 1
  Basis Set: AUG-CC-PVTZ
    Blend: AUG-CC-PVTZ
  Basis Set: (AUG-CC-PVTZ AUX)
    Blend: AUG-CC-PVTZ-JKFIT
  @DF-RHF Final Energy:  -195.23013326971684
    Total Energy =                       -195.2301332697168448
  Basis Set: (AUG-CC-PVTZ AUX)
    Blend: AUG-CC-PVTZ-RI
	 Reference Energy          =    -195.2301332697168448 [Eh]
	 Singles Energy            =      -0.0000000000000000 [Eh]
	 Same-Spin Energy          =      -0.2104921580919917 [Eh]
	 Opposite-Spin Energy      =      -0.7664078363782731 [Eh]
	 Correlation Energy        =      -0.9768999944702648 [Eh]
	 Total Energy              =    -196.2070332641871175 [Eh]
	 SCS Total Energy          =    -196.2199867260681003 [Eh]
    Molecular point group: c1
  Basis Set: AUG-CC-PVQZ
    Blend: AUG-CC-PVQZ
  Basis Set: (AUG-CC-PVQZ AUX)
    Blend: AUG-CC-PVQZ-JKFIT
  @DF-RHF Final Energy:  -195.24162082373817
    Total Energy =                       -195.2416208237381738
  Basis Set: (AUG-CC-PVQZ AUX)
  @DF-RHF Final Energy:  -195.23020074142667
    Total Energy =                       -195.2302007414266711
  @DF-RHF Final Energy:  -195.24164152707345
    Total Energy =                       -195.2416415270734547
  @DF-RHF Final Energy:  -195.23019541404869
    Total Energy =                       -195.2301954140486941
  @DF-RHF Final Energy:  -195.24163619252727
    Total Energy =                       -195.2416361925272668
  @DF-RHF Final Energy:  -195.23012794406657
    Total Energy =                       -195.2301279440665667
  @DF-RHF Final Energy:  -195.24161548209432
    Total Energy =                       -195.2416154820943177
  Multiplicity = 1
  @DF-RHF Final Energy:  -390.45639393663902
    Total Energy =                       -390.4563939366389604
	 Singles Energy            =      -0.0000000000000000 [Eh]
	 Same-Spin Energy          =      -0.4258121872096376 [Eh]
	 Opposite-Spin Energy      =      -1.5412908798014278 [Eh]
	 Correlation Energy        =      -1.9671030670110654 [Eh]
	 Total Energy              =    -392.4234970036500840 [Eh]
	 SCS Total Energy          =    -392.4478803881372642 [Eh]
    Molecular point group: c1

    Geometry (in Angstrom), charge = 0, multiplicity = 1:

       Center              X                  Y                   Z               Mass
    ------------   -----------------  -----------------  -----------------  -----------------
         C            0.958013388746    -0.893170680791    -1.940742717864    12.000000000000
         H            1.505699388746    -1.279682680791    -2.799272717864     1.007825032230
         H            1.422517388746    -1.316102680791    -1.051667717864     1.007825032230
         C            0.992082388746     0.657183319209    -1.937188717864    12.000000000000
         H            1.511727388746     1.021771319209    -2.822744717864     1.007825032230
         H            1.517391388746     1.058493319209    -1.072155717864     1.007825032230
         C           -0.478318611254     1.100994319209    -1.978813717864    12.000000000000
         H           -0.615135611254     2.063552319209    -2.469125717864     1.007825032230
         H           -0.873608611254     1.187746319209    -0.964622717864     1.007825032230
         C           -1.180973611254    -0.054121680791    -2.689346717864    12.000000000000
         H           -0.947748611254    -0.028154680791    -3.756497717864     1.007825032230
         H           -2.264531611254    -0.034889680791    -2.581418717864     1.007825032230
         C           -0.529526611254    -1.276214680791    -2.043382717864    12.000000000000
         H           -0.689257611254    -2.198345680791    -2.599700717864     1.007825032230
         H           -0.949715611254    -1.416736680791    -1.045944717864     1.007825032230
         C           -1.130646611254    -0.384830680791     1.982642282136    12.000000000000
         H           -1.463780611254    -0.148131680791     0.970058282136     1.007825032230
         H           -1.935434611254    -0.927929680791     2.475629282136     1.007825032230
         C            0.182959388746    -1.180375680791     1.934881282136    12.000000000000
         H            0.232904388746    -1.838118680791     1.068747282136     1.007825032230
         H            0.263247388746    -1.811733680791     2.819267282136     1.007825032230
         C            1.312275388746    -0.117669680791     1.935477282136    12.000000000000
         H            1.933540388746    -0.178348680791     1.043604282136     1.007825032230
         H            1.969684388746    -0.267552680791     2.790882282136     1.007825032230
         C            0.602101388746     1.243999319209     2.043344282136    12.000000000000
         H            0.422238388746     1.652490319209     1.047345282136     1.007825032230
         H            1.182485388746     1.978402319209     2.599317282136     1.007825032230
         C           -0.739950611254     0.909526319209     2.693156282136    12.000000000000
         H           -1.479619611254     1.702038319209     2.588275282136     1.007825032230
         H           -0.599910611254     0.717886319209     3.759705282136     1.007825032230

  Charge       = 0
  Multiplicity = 1
  Basis Set: AUG-CC-PVQZ
    Blend: AUG-CC-PVQZ
  Basis Set: (AUG-CC-PVQZ AUX)
    Blend: AUG-CC-PVQZ-JKFIT

    Orbital Energies [Eh]
    ---------------------

    Doubly Occupied:

       1A    -11.209770     2A    -11.209767     3A    -11.209401
       4A    -11.209398     5A    -11.209258     6A    -11.209255
       7A    -11.208758     8A    -11.208755     9A    -11.208454
      10A    -11.208451    11A     -1.118091    12A     -1.115507
      13A     -0.958995    14A     -0.958183    15A     -0.955475
      16A     -0.954780    17A     -0.780560    18A     -0.775429
      19A     -0.767904    20A     -0.767727    21A     -0.660528
      22A     -0.646709    23A     -0.646523    24A     -0.639151
      25A     -0.578669    26A     -0.577039    27A     -0.564082
      28A     -0.560434    29A     -0.477717    30A     -0.477340
      31A     -0.475730    32A     -0.472609    33A     -0.467997
      34A     -0.464620    35A     -0.464370    36A     -0.459831
      37A     -0.459532    38A     -0.453424    39A     -0.449810
      40A     -0.448494

  @DF-RHF Final Energy:  -390.47928028015946

   => Energetics <=

    Nuclear Repulsion Energy =            562.0105064256662217
    One-Electron Energy =               -1641.6025059078522190
    Two-Electron Energy =                 689.1127192020267103
    Total Energy =                       -390.4792802801594007

  Dipole Moment: [D]
     X:    -0.0200      Y:     0.0089      Z:     0.0001     Total:     0.0219

  Basis Set: (AUG-CC-PVQZ AUX)
    Blend: AUG-CC-PVQZ-RI
	 Reference Energy          =    -390.4792802801594576 [Eh]
	 Singles Energy            =      -0.0000000000000000 [Eh]
	 Same-Spin Energy          =      -0.4490013619465157 [Eh]
	 Opposite-Spin Energy      =      -1.7047492999450284 [Eh]
	 Correlation Energy        =      -2.1537506618915443 [Eh]
	 Total Energy              =    -392.6330309420509934 [Eh]

	 ================> DF-SCS-MP2 Energies <==================
	-----------------------------------------------------------
	 SCS Same-Spin Scale       =       0.3333333333333333 [-]
	 SCS Opposite-Spin Scale   =       1.2000000000000000 [-]
	 SCS Same-Spin Energy      =      -0.1496671206488386 [Eh]
	 SCS Opposite-Spin Energy  =      -2.0456991599340340 [Eh]
	 SCS Correlation Energy    =      -2.1953662805828724 [Eh]
	 SCS Total Energy          =    -392.6746465607423033 [Eh]
	-----------------------------------------------------------

*** Psi4 exiting successfully. Buy a developer a beer!
