                               Psi4 1.4a2.dev224

  ==> Input File <==

--------------------------------------------------------------------------
#Generated by lconvert.py for cbs job

memory 20 GB

molecule  {
0 1
  C       0.956880   -0.891850    1.141950
  H       1.504570   -1.278360    0.283420
  H       1.421380   -1.314780    2.031030
  C       0.990950    0.658510    1.145500
  H       1.510590    1.023100    0.259950
  H       1.516260    1.059820    2.010540
  C      -0.479450    1.102320    1.103880
  H      -0.616270    2.064880    0.613570
  H      -0.874740    1.189070    2.118070
  C      -1.182110   -0.052800    0.393350
  H      -0.948880   -0.026830   -0.673800
  H      -2.265660   -0.033560    0.501270
  C      -0.530660   -1.274890    1.039310
  H      -0.690390   -2.197020    0.482990
  H      -0.950850   -1.415410    2.036750
--
0 1
  C      -1.111410   -0.342550    5.995550
  H      -1.444540   -0.105850    4.982960
  H      -1.916190   -0.885650    6.488530
  C       0.202200   -1.138100    5.947780
  H       0.252150   -1.795840    5.081650
  H       0.282490   -1.769460    6.832170
  C       1.331520   -0.075390    5.948380
  H       1.952780   -0.136070    5.056510
  H       1.988930   -0.225270    6.803790
  C       0.621340    1.286280    6.056250
  H       0.441480    1.694770    5.060250
  H       1.201730    2.020680    6.612220
  C      -0.720710    0.951810    6.706060
  H      -1.460380    1.744320    6.601180
  H      -0.580670    0.760160    7.772610
units angstrom
no_reorient
symmetry c1
}

set {
scf_type DF
mp2_type DF
e_convergence 7
reference rhf
}

energy('mp2/aug-cc-pv[tq]z', bsse_type='cp')
--------------------------------------------------------------------------

    Molecular point group: c1
  Charge       = 0
  Multiplicity = 1
  Basis Set: AUG-CC-PVTZ
    Blend: AUG-CC-PVTZ
  Basis Set: (AUG-CC-PVTZ AUX)
    Blend: AUG-CC-PVTZ-JKFIT
  @DF-RHF Final Energy:  -195.23013330861352
    Total Energy =                       -195.2301333086135173
  Basis Set: (AUG-CC-PVTZ AUX)
    Blend: AUG-CC-PVTZ-RI
	 Reference Energy          =    -195.2301333086135173 [Eh]
	 Singles Energy            =      -0.0000000000000000 [Eh]
	 Same-Spin Energy          =      -0.2104920668309995 [Eh]
	 Opposite-Spin Energy      =      -0.7664078362841014 [Eh]
	 Correlation Energy        =      -0.9768999031151009 [Eh]
	 Total Energy              =    -196.2070332117286284 [Eh]
	 SCS Total Energy          =    -196.2199867344314441 [Eh]
    Molecular point group: c1
  Basis Set: AUG-CC-PVQZ
    Blend: AUG-CC-PVQZ
  Basis Set: (AUG-CC-PVQZ AUX)
    Blend: AUG-CC-PVQZ-JKFIT
  @DF-RHF Final Energy:  -195.24162086152887
    Total Energy =                       -195.2416208615288724
  Basis Set: (AUG-CC-PVQZ AUX)
  @DF-RHF Final Energy:  -195.23015944925933
    Total Energy =                       -195.2301594492593324
  @DF-RHF Final Energy:  -195.24163091951249
    Total Energy =                       -195.2416309195124882
  @DF-RHF Final Energy:  -195.23015411253175
    Total Energy =                       -195.2301541125317499
  @DF-RHF Final Energy:  -195.24162556293629
    Total Energy =                       -195.2416255629362922
  @DF-RHF Final Energy:  -195.23012797075953
    Total Energy =                       -195.2301279707595256
  @DF-RHF Final Energy:  -195.24161550559143
    Total Energy =                       -195.2416155055914260
  Multiplicity = 1
  @DF-RHF Final Energy:  -390.46009927155910
    Total Energy =                       -390.4600992715591019
	 Singles Energy            =      -0.0000000000000000 [Eh]
	 Same-Spin Energy          =      -0.4224229831204029 [Eh]
	 Opposite-Spin Energy      =      -1.5357045615957121 [Eh]
	 Correlation Energy        =      -1.9581275447161151 [Eh]
	 Total Energy              =    -392.4182268162751939 [Eh]
	 SCS Total Energy          =    -392.4437524065140792 [Eh]
    Molecular point group: c1

    Geometry (in Angstrom), charge = 0, multiplicity = 1:

       Center              X                  Y                   Z               Mass
    ------------   -----------------  -----------------  -----------------  -----------------
         C            0.947826380215    -0.913652031126    -2.405848411344    12.000000000000
         H            1.495516380215    -1.300162031126    -3.264378411344     1.007825032230
         H            1.412326380215    -1.336582031126    -1.516768411344     1.007825032230
         C            0.981896380215     0.636707968874    -2.402298411344    12.000000000000
         H            1.501536380215     1.001297968874    -3.287848411344     1.007825032230
         H            1.507206380215     1.038017968874    -1.537258411344     1.007825032230
         C           -0.488503619785     1.080517968874    -2.443918411344    12.000000000000
         H           -0.625323619785     2.043077968874    -2.934228411344     1.007825032230
         H           -0.883793619785     1.167267968874    -1.429728411344     1.007825032230
         C           -1.191163619785    -0.074602031126    -3.154448411344    12.000000000000
         H           -0.957933619785    -0.048632031126    -4.221598411344     1.007825032230
         H           -2.274713619785    -0.055362031126    -3.046528411344     1.007825032230
         C           -0.539713619785    -1.296692031126    -2.508488411344    12.000000000000
         H           -0.699443619785    -2.218822031126    -3.064808411344     1.007825032230
         H           -0.959903619785    -1.437212031126    -1.511048411344     1.007825032230
         C           -1.120463619785    -0.364352031126     2.447751588656    12.000000000000
         H           -1.453593619785    -0.127652031126     1.435161588656     1.007825032230
         H           -1.925243619785    -0.907452031126     2.940731588656     1.007825032230
         C            0.193146380215    -1.159902031126     2.399981588656    12.000000000000
         H            0.243096380215    -1.817642031126     1.533851588656     1.007825032230
         H            0.273436380215    -1.791262031126     3.284371588656     1.007825032230
         C            1.322466380215    -0.097192031126     2.400581588656    12.000000000000
         H            1.943726380215    -0.157872031126     1.508711588656     1.007825032230
         H            1.979876380215    -0.247072031126     3.255991588656     1.007825032230
         C            0.612286380215     1.264477968874     2.508451588656    12.000000000000
         H            0.432426380215     1.672967968874     1.512451588656     1.007825032230
         H            1.192676380215     1.998877968874     3.064421588656     1.007825032230
         C           -0.729763619785     0.930007968874     3.158261588656    12.000000000000
         H           -1.469433619785     1.722517968874     3.053381588656     1.007825032230
         H           -0.589723619785     0.738357968874     4.224811588656     1.007825032230

  Charge       = 0
  Multiplicity = 1
  Basis Set: AUG-CC-PVQZ
    Blend: AUG-CC-PVQZ
  Basis Set: (AUG-CC-PVQZ AUX)
    Blend: AUG-CC-PVQZ-JKFIT

    Orbital Energies [Eh]
    ---------------------

    Doubly Occupied:

       1A    -11.209973     2A    -11.209970     3A    -11.209581
       4A    -11.209577     5A    -11.209537     6A    -11.209535
       7A    -11.208958     8A    -11.208954     9A    -11.208776
      10A    -11.208774    11A     -1.116836    12A     -1.116528
      13A     -0.957325    14A     -0.956977    15A     -0.956423
      16A     -0.956067    17A     -0.777960    18A     -0.777028
      19A     -0.767774    20A     -0.767761    21A     -0.652261
      22A     -0.648953    23A     -0.645787    24A     -0.644713
      25A     -0.571784    26A     -0.570729    27A     -0.569097
      28A     -0.567127    29A     -0.476312    30A     -0.475767
      31A     -0.475756    32A     -0.474455    33A     -0.464237
      34A     -0.464221    35A     -0.463233    36A     -0.460008
      37A     -0.459727    38A     -0.458943    39A     -0.449628
      40A     -0.449514

  @DF-RHF Final Energy:  -390.48304203193419

   => Energetics <=

    Nuclear Repulsion Energy =            532.1986656539800151
    One-Electron Energy =               -1581.9902727506957945
    Two-Electron Energy =                 659.3085650647816465
    Total Energy =                       -390.4830420319341329

  Dipole Moment: [D]
     X:    -0.0249      Y:     0.0111      Z:     0.0000     Total:     0.0272

  Basis Set: (AUG-CC-PVQZ AUX)
    Blend: AUG-CC-PVQZ-RI
	 Reference Energy          =    -390.4830420319341897 [Eh]
	 Singles Energy            =      -0.0000000000000000 [Eh]
	 Same-Spin Energy          =      -0.4457705694348496 [Eh]
	 Opposite-Spin Energy      =      -1.7006815040884520 [Eh]
	 Correlation Energy        =      -2.1464520735233017 [Eh]
	 Total Energy              =    -392.6294941054574679 [Eh]

	 ================> DF-SCS-MP2 Energies <==================
	-----------------------------------------------------------
	 SCS Same-Spin Scale       =       0.3333333333333333 [-]
	 SCS Opposite-Spin Scale   =       1.2000000000000000 [-]
	 SCS Same-Spin Energy      =      -0.1485901898116165 [Eh]
	 SCS Opposite-Spin Energy  =      -2.0408178049061423 [Eh]
	 SCS Correlation Energy    =      -2.1894079947177589 [Eh]
	 SCS Total Energy          =    -392.6724500266519726 [Eh]
	-----------------------------------------------------------

*** Psi4 exiting successfully. Buy a developer a beer!
