                               Psi4 1.4a2.dev224

  ==> Input File <==

--------------------------------------------------------------------------
#Generated by lconvert.py for cbs job

memory 40 GB

molecule  {
0 1
  C        0.9568800    -0.8918460     1.1419500
  H        1.5045660    -1.2783580     0.2834200
  H        1.4213840    -1.3147780     2.0310250
  C        0.9909490     0.6585080     1.1455040
  H        1.5105940     1.0230960     0.2599480
  H        1.5162580     1.0598180     2.0105370
  C       -0.4794520     1.1023190     1.1038790
  H       -0.6162690     2.0648770     0.6135670
  H       -0.8747420     1.1890710     2.1180700
  C       -1.1821070    -0.0527970     0.3933460
  H       -0.9488820    -0.0268300    -0.6738050
  H       -2.2656650    -0.0335650     0.5012740
  C       -0.5306600    -1.2748900     1.0393100
  H       -0.6903910    -2.1970210     0.4829920
  H       -0.9508490    -1.4154120     2.0367480
--
0 1
  C       -1.1250760    -0.3700300     5.3714240
  H       -1.4582100    -0.1333310     4.3588390
  H       -1.9298640    -0.9131280     5.8644100
  C        0.1885300    -1.1655750     5.3236630
  H        0.2384750    -1.8233180     4.4575290
  H        0.2688180    -1.7969330     6.2080480
  C        1.3178460    -0.1028690     5.3242590
  H        1.9391110    -0.1635480     4.4323850
  H        1.9752550    -0.2527520     6.1796640
  C        0.6076720     1.2588000     5.4321250
  H        0.4278090     1.6672910     4.4361260
  H        1.1880560     1.9932030     5.9880990
  C       -0.7343800     0.9243270     6.0819370
  H       -1.4740490     1.7168390     5.9770560
  H       -0.5943400     0.7326870     7.1484860
units angstrom
no_reorient
symmetry c1
}

set {
scf_type DF
mp2_type DF
e_convergence 7
reference rhf
}

energy('mp2/aug-cc-pv[tq]z', bsse_type='cp')
--------------------------------------------------------------------------

    Molecular point group: c1
  Charge       = 0
  Multiplicity = 1
  Basis Set: AUG-CC-PVTZ
    Blend: AUG-CC-PVTZ
  Basis Set: (AUG-CC-PVTZ AUX)
    Blend: AUG-CC-PVTZ-JKFIT
  @DF-RHF Final Energy:  -195.23013326649624
    Total Energy =                       -195.2301332664962388
  Basis Set: (AUG-CC-PVTZ AUX)
    Blend: AUG-CC-PVTZ-RI
	 Reference Energy          =    -195.2301332664962388 [Eh]
	 Singles Energy            =      -0.0000000000000000 [Eh]
	 Same-Spin Energy          =      -0.2104921614534320 [Eh]
	 Opposite-Spin Energy      =      -0.7664078394397271 [Eh]
	 Correlation Energy        =      -0.9769000008931592 [Eh]
	 Total Energy              =    -196.2070332673893915 [Eh]
	 SCS Total Energy          =    -196.2199867276417251 [Eh]
    Molecular point group: c1
  Basis Set: AUG-CC-PVQZ
    Blend: AUG-CC-PVQZ
  Basis Set: (AUG-CC-PVQZ AUX)
    Blend: AUG-CC-PVQZ-JKFIT
  @DF-RHF Final Energy:  -195.24162081735045
    Total Energy =                       -195.2416208173504515
  Basis Set: (AUG-CC-PVQZ AUX)
  @DF-RHF Final Energy:  -195.23018195741659
    Total Energy =                       -195.2301819574165904
  @DF-RHF Final Energy:  -195.24163701635823
    Total Energy =                       -195.2416370163582258
  @DF-RHF Final Energy:  -195.23017663349998
    Total Energy =                       -195.2301766334999797
  @DF-RHF Final Energy:  -195.24163167854203
    Total Energy =                       -195.2416316785420349
  @DF-RHF Final Energy:  -195.23012794591864
    Total Energy =                       -195.2301279459186389
  @DF-RHF Final Energy:  -195.24161548366737
    Total Energy =                       -195.2416154836673741
  Multiplicity = 1
  @DF-RHF Final Energy:  -390.45883122284084
    Total Energy =                       -390.4588312228407858
	 Singles Energy            =      -0.0000000000000000 [Eh]
	 Same-Spin Energy          =      -0.4241651209026899 [Eh]
	 Opposite-Spin Energy      =      -1.5386973903803418 [Eh]
	 Correlation Energy        =      -1.9628625112830318 [Eh]
	 Total Energy              =    -392.4216937341238918 [Eh]
	 SCS Total Energy          =    -392.4466564649314932 [Eh]
    Molecular point group: c1

    Geometry (in Angstrom), charge = 0, multiplicity = 1:

       Center              X                  Y                   Z               Mass
    ------------   -----------------  -----------------  -----------------  -----------------
         C            0.954661388746    -0.899908687981    -2.093786996292    12.000000000000
         H            1.502347388746    -1.286420687981    -2.952316996292     1.007825032230
         H            1.419165388746    -1.322840687981    -1.204711996292     1.007825032230
         C            0.988730388746     0.650445312019    -2.090232996292    12.000000000000
         H            1.508375388746     1.015033312019    -2.975788996292     1.007825032230
         H            1.514039388746     1.051755312019    -1.225199996292     1.007825032230
         C           -0.481670611254     1.094256312019    -2.131857996292    12.000000000000
         H           -0.618487611254     2.056814312019    -2.622169996292     1.007825032230
         H           -0.876960611254     1.181008312019    -1.117666996292     1.007825032230
         C           -1.184325611254    -0.060859687981    -2.842390996292    12.000000000000
         H           -0.951100611254    -0.034892687981    -3.909541996292     1.007825032230
         H           -2.267883611254    -0.041627687981    -2.734462996292     1.007825032230
         C           -0.532878611254    -1.282952687981    -2.196426996292    12.000000000000
         H           -0.692609611254    -2.205083687981    -2.752744996292     1.007825032230
         H           -0.953067611254    -1.423474687981    -1.198988996292     1.007825032230
         C           -1.127294611254    -0.378092687981     2.135687003708    12.000000000000
         H           -1.460428611254    -0.141393687981     1.123102003708     1.007825032230
         H           -1.932082611254    -0.921190687981     2.628673003708     1.007825032230
         C            0.186311388746    -1.173637687981     2.087926003708    12.000000000000
         H            0.236256388746    -1.831380687981     1.221792003708     1.007825032230
         H            0.266599388746    -1.804995687981     2.972311003708     1.007825032230
         C            1.315627388746    -0.110931687981     2.088522003708    12.000000000000
         H            1.936892388746    -0.171610687981     1.196648003708     1.007825032230
         H            1.973036388746    -0.260814687981     2.943927003708     1.007825032230
         C            0.605453388746     1.250737312019     2.196388003708    12.000000000000
         H            0.425590388746     1.659228312019     1.200389003708     1.007825032230
         H            1.185837388746     1.985140312019     2.752362003708     1.007825032230
         C           -0.736598611254     0.916264312019     2.846200003708    12.000000000000
         H           -1.476267611254     1.708776312019     2.741319003708     1.007825032230
         H           -0.596558611254     0.724624312019     3.912749003708     1.007825032230

  Charge       = 0
  Multiplicity = 1
  Basis Set: AUG-CC-PVQZ
    Blend: AUG-CC-PVQZ
  Basis Set: (AUG-CC-PVQZ AUX)
    Blend: AUG-CC-PVQZ-JKFIT

    Orbital Energies [Eh]
    ---------------------

    Doubly Occupied:

       1A    -11.209948     2A    -11.209945     3A    -11.209565
       4A    -11.209560     5A    -11.209485     6A    -11.209482
       7A    -11.208934     8A    -11.208930     9A    -11.208717
      10A    -11.208715    11A     -1.117423    12A     -1.116128
      13A     -0.958082    14A     -0.957349    15A     -0.956249
      16A     -0.955544    17A     -0.779208    18A     -0.776218
      19A     -0.767868    20A     -0.767838    21A     -0.656332
      22A     -0.647317    23A     -0.646344    24A     -0.642404
      25A     -0.574595    26A     -0.574433    27A     -0.566715
      28A     -0.563852    29A     -0.476877    30A     -0.476813
      31A     -0.475600    32A     -0.473544    33A     -0.466170
      34A     -0.464387    35A     -0.464282    36A     -0.460061
      37A     -0.459649    38A     -0.455815    39A     -0.449818
      40A     -0.449358

  @DF-RHF Final Energy:  -390.48174253364090

   => Energetics <=

    Nuclear Repulsion Energy =            551.0880054460121755
    One-Electron Energy =               -1619.7603790271407433
    Two-Electron Energy =                 678.1906310474877273
    Total Energy =                       -390.4817425336408405

  Dipole Moment: [D]
     X:    -0.0228      Y:     0.0102      Z:     0.0001     Total:     0.0250

  Basis Set: (AUG-CC-PVQZ AUX)
    Blend: AUG-CC-PVQZ-RI
	 Reference Energy          =    -390.4817425336408974 [Eh]
	 Singles Energy            =      -0.0000000000000000 [Eh]
	 Same-Spin Energy          =      -0.4474114913010283 [Eh]
	 Opposite-Spin Energy      =      -1.7027733491226882 [Eh]
	 Correlation Energy        =      -2.1501848404237167 [Eh]
	 Total Energy              =    -392.6319273740646167 [Eh]

	 ================> DF-SCS-MP2 Energies <==================
	-----------------------------------------------------------
	 SCS Same-Spin Scale       =       0.3333333333333333 [-]
	 SCS Opposite-Spin Scale   =       1.2000000000000000 [-]
	 SCS Same-Spin Energy      =      -0.1491371637670094 [Eh]
	 SCS Opposite-Spin Energy  =      -2.0433280189472258 [Eh]
	 SCS Correlation Energy    =      -2.1924651827142352 [Eh]
	 SCS Total Energy          =    -392.6742077163551130 [Eh]
	-----------------------------------------------------------

*** Psi4 exiting successfully. Buy a developer a beer!
