                               Psi4 1.4a2.dev224

  ==> Input File <==

--------------------------------------------------------------------------
#Generated by lconvert.py for cbs job

memory 40 GB

molecule  {
0 1
  C        0.9568800    -0.8918460     1.1419500
  H        1.5045660    -1.2783580     0.2834200
  H        1.4213840    -1.3147780     2.0310250
  C        0.9909490     0.6585080     1.1455040
  H        1.5105940     1.0230960     0.2599480
  H        1.5162580     1.0598180     2.0105370
  C       -0.4794520     1.1023190     1.1038790
  H       -0.6162690     2.0648770     0.6135670
  H       -0.8747420     1.1890710     2.1180700
  C       -1.1821070    -0.0527970     0.3933460
  H       -0.9488820    -0.0268300    -0.6738050
  H       -2.2656650    -0.0335650     0.5012740
  C       -0.5306600    -1.2748900     1.0393100
  H       -0.6903910    -2.1970210     0.4829920
  H       -0.9508490    -1.4154120     2.0367480
--
0 1
  C       -1.1283790    -0.3766700     5.2206040
  H       -1.4615140    -0.1399710     4.2080200
  H       -1.9331680    -0.9197690     5.7135910
  C        0.1852270    -1.1722150     5.1728430
  H        0.2351720    -1.8299580     4.3067090
  H        0.2655150    -1.8035730     6.0572280
  C        1.3145420    -0.1095090     5.1734390
  H        1.9358070    -0.1701880     4.2815650
  H        1.9719520    -0.2593920     6.0288440
  C        0.6043690     1.2521600     5.2813060
  H        0.4245060     1.6606510     4.2853070
  H        1.1847530     1.9865630     5.8372790
  C       -0.7376830     0.9176870     5.9311180
  H       -1.4773520     1.7101990     5.8262360
  H       -0.5976430     0.7260470     6.9976670
units angstrom
no_reorient
symmetry c1
}

set {
scf_type DF
mp2_type DF
e_convergence 7
reference rhf
}

energy('mp2/aug-cc-pv[tq]z', bsse_type='cp')
--------------------------------------------------------------------------

    Molecular point group: c1
  Charge       = 0
  Multiplicity = 1
  Basis Set: AUG-CC-PVTZ
    Blend: AUG-CC-PVTZ
  Basis Set: (AUG-CC-PVTZ AUX)
    Blend: AUG-CC-PVTZ-JKFIT
  @DF-RHF Final Energy:  -195.23013325752402
    Total Energy =                       -195.2301332575240167
  Basis Set: (AUG-CC-PVTZ AUX)
    Blend: AUG-CC-PVTZ-RI
	 Reference Energy          =    -195.2301332575240167 [Eh]
	 Singles Energy            =      -0.0000000000000000 [Eh]
	 Same-Spin Energy          =      -0.2104921643427454 [Eh]
	 Opposite-Spin Energy      =      -0.7664078450274150 [Eh]
	 Correlation Energy        =      -0.9769000093701604 [Eh]
	 Total Energy              =    -196.2070332668941717 [Eh]
	 SCS Total Energy          =    -196.2199867263378223 [Eh]
    Molecular point group: c1
  Basis Set: AUG-CC-PVQZ
    Blend: AUG-CC-PVQZ
  Basis Set: (AUG-CC-PVQZ AUX)
    Blend: AUG-CC-PVQZ-JKFIT
  @DF-RHF Final Energy:  -195.24162081044733
    Total Energy =                       -195.2416208104473299
  Basis Set: (AUG-CC-PVQZ AUX)
  @DF-RHF Final Energy:  -195.23019124673044
    Total Energy =                       -195.2301912467304419
  @DF-RHF Final Energy:  -195.24163907172033
    Total Energy =                       -195.2416390717203285
  @DF-RHF Final Energy:  -195.23018592968600
    Total Energy =                       -195.2301859296860016
  @DF-RHF Final Energy:  -195.24163374652869
    Total Energy =                       -195.2416337465286915
  @DF-RHF Final Energy:  -195.23012794303503
    Total Energy =                       -195.2301279430350291
  @DF-RHF Final Energy:  -195.24161548424473
    Total Energy =                       -195.2416154842447327
  Multiplicity = 1
  @DF-RHF Final Energy:  -390.45791724747193
    Total Energy =                       -390.4579172474718689
	 Singles Energy            =      -0.0000000000000000 [Eh]
	 Same-Spin Energy          =      -0.4248847445958445 [Eh]
	 Opposite-Spin Energy      =      -1.5398657782506171 [Eh]
	 Correlation Energy        =      -1.9647505228464617 [Eh]
	 Total Energy              =    -392.4226677703184123 [Eh]
	 SCS Total Energy          =    -392.4473844295712865 [Eh]
    Molecular point group: c1

    Geometry (in Angstrom), charge = 0, multiplicity = 1:

       Center              X                  Y                   Z               Mass
    ------------   -----------------  -----------------  -----------------  -----------------
         C            0.956312995937    -0.896588680791    -2.018377196292    12.000000000000
         H            1.503998995937    -1.283100680791    -2.876907196292     1.007825032230
         H            1.420816995937    -1.319520680791    -1.129302196292     1.007825032230
         C            0.990381995937     0.653765319209    -2.014823196292    12.000000000000
         H            1.510026995937     1.018353319209    -2.900379196292     1.007825032230
         H            1.515690995937     1.055075319209    -1.149790196292     1.007825032230
         C           -0.480019004063     1.097576319209    -2.056448196292    12.000000000000
         H           -0.616836004063     2.060134319209    -2.546760196292     1.007825032230
         H           -0.875309004063     1.184328319209    -1.042257196292     1.007825032230
         C           -1.182674004063    -0.057539680791    -2.766981196292    12.000000000000
         H           -0.949449004063    -0.031572680791    -3.834132196292     1.007825032230
         H           -2.266232004063    -0.038307680791    -2.659053196292     1.007825032230
         C           -0.531227004063    -1.279632680791    -2.121017196292    12.000000000000
         H           -0.690958004063    -2.201763680791    -2.677335196292     1.007825032230
         H           -0.951416004063    -1.420154680791    -1.123579196292     1.007825032230
         C           -1.128946004063    -0.381412680791     2.060276803708    12.000000000000
         H           -1.462081004063    -0.144713680791     1.047692803708     1.007825032230
         H           -1.933735004063    -0.924511680791     2.553263803708     1.007825032230
         C            0.184659995937    -1.176957680791     2.012515803708    12.000000000000
         H            0.234604995937    -1.834700680791     1.146381803708     1.007825032230
         H            0.264947995937    -1.808315680791     2.896900803708     1.007825032230
         C            1.313974995937    -0.114251680791     2.013111803708    12.000000000000
         H            1.935239995937    -0.174930680791     1.121237803708     1.007825032230
         H            1.971384995937    -0.264134680791     2.868516803708     1.007825032230
         C            0.603801995937     1.247417319209     2.120978803708    12.000000000000
         H            0.423938995937     1.655908319209     1.124979803708     1.007825032230
         H            1.184185995937     1.981820319209     2.676951803708     1.007825032230
         C           -0.738250004063     0.912944319209     2.770790803708    12.000000000000
         H           -1.477919004063     1.705456319209     2.665908803708     1.007825032230
         H           -0.598210004063     0.721304319209     3.837339803708     1.007825032230

  Charge       = 0
  Multiplicity = 1
  Basis Set: AUG-CC-PVQZ
    Blend: AUG-CC-PVQZ
  Basis Set: (AUG-CC-PVQZ AUX)
    Blend: AUG-CC-PVQZ-JKFIT

    Orbital Energies [Eh]
    ---------------------

    Doubly Occupied:

       1A    -11.209882     2A    -11.209879     3A    -11.209504
       4A    -11.209501     5A    -11.209402     6A    -11.209399
       7A    -11.208870     8A    -11.208866     9A    -11.208624
      10A    -11.208622    11A     -1.117699    12A     -1.115877
      13A     -0.958457    14A     -0.957688    15A     -0.955941
      16A     -0.955232    17A     -0.779778    18A     -0.775862
      19A     -0.767887    20A     -0.767810    21A     -0.658144
      22A     -0.646919    23A     -0.646512    24A     -0.641047
      25A     -0.576346    26A     -0.575568    27A     -0.565591
      28A     -0.562377    29A     -0.477213    30A     -0.477083
      31A     -0.475605    32A     -0.473140    33A     -0.467081
      34A     -0.464472    35A     -0.464317    36A     -0.459989
      37A     -0.459599    38A     -0.454654    39A     -0.449837
      40A     -0.449105

  @DF-RHF Final Energy:  -390.48081537485785

   => Energetics <=

    Nuclear Repulsion Energy =            556.3150926698577905
    One-Electron Energy =               -1630.2130445354662243
    Two-Electron Energy =                 683.4171364907505222
    Total Energy =                       -390.4808153748577979

  Dipole Moment: [D]
     X:    -0.0217      Y:     0.0097      Z:     0.0001     Total:     0.0237

  Basis Set: (AUG-CC-PVQZ AUX)
    Blend: AUG-CC-PVQZ-RI
	 Reference Energy          =    -390.4808153748578547 [Eh]
	 Singles Energy            =      -0.0000000000000000 [Eh]
	 Same-Spin Energy          =      -0.4481007780778677 [Eh]
	 Opposite-Spin Energy      =      -1.7036335707230610 [Eh]
	 Correlation Energy        =      -2.1517343488009288 [Eh]
	 Total Energy              =    -392.6325497236587694 [Eh]

	 ================> DF-SCS-MP2 Energies <==================
	-----------------------------------------------------------
	 SCS Same-Spin Scale       =       0.3333333333333333 [-]
	 SCS Opposite-Spin Scale   =       1.2000000000000000 [-]
	 SCS Same-Spin Energy      =      -0.1493669260259559 [Eh]
	 SCS Opposite-Spin Energy  =      -2.0443602848676732 [Eh]
	 SCS Correlation Energy    =      -2.1937272108936292 [Eh]
	 SCS Total Energy          =    -392.6745425857515102 [Eh]
	-----------------------------------------------------------

*** Psi4 exiting successfully. Buy a developer a beer!
