                               Psi4 1.4a2.dev224

  ==> Input File <==

--------------------------------------------------------------------------
#Generated by lconvert.py for cbs job

memory 20 GB

molecule  {
0 1
  C       0.956880   -0.891850    1.141950
  H       1.504570   -1.278360    0.283420
  H       1.421380   -1.314780    2.031030
  C       0.990950    0.658510    1.145500
  H       1.510590    1.023100    0.259950
  H       1.516260    1.059820    2.010540
  C      -0.479450    1.102320    1.103880
  H      -0.616270    2.064880    0.613570
  H      -0.874740    1.189070    2.118070
  C      -1.182110   -0.052800    0.393350
  H      -0.948880   -0.026830   -0.673800
  H      -2.265660   -0.033560    0.501270
  C      -0.530660   -1.274890    1.039310
  H      -0.690390   -2.197020    0.482990
  H      -0.950850   -1.415410    2.036750
--
0 1
  C      -1.090900   -0.301340    6.931730
  H      -1.424030   -0.064640    5.919140
  H      -1.895690   -0.844430    7.424710
  C       0.222700   -1.096880    6.883970
  H       0.272650   -1.754620    6.017830
  H       0.302990   -1.728240    7.768350
  C       1.352020   -0.034170    6.884560
  H       1.973290   -0.094850    5.992690
  H       2.009430   -0.184060    7.739970
  C       0.641850    1.327500    6.992430
  H       0.461980    1.735990    5.996430
  H       1.222230    2.061900    7.548400
  C      -0.700200    0.993020    7.642240
  H      -1.439870    1.785530    7.537360
  H      -0.560170    0.801380    8.708790
units angstrom
no_reorient
symmetry c1
}

set {
scf_type DF
mp2_type DF
e_convergence 7
reference rhf
}

energy('mp2/aug-cc-pv[tq]z', bsse_type='cp')
--------------------------------------------------------------------------

    Molecular point group: c1
  Charge       = 0
  Multiplicity = 1
  Basis Set: AUG-CC-PVTZ
    Blend: AUG-CC-PVTZ
  Basis Set: (AUG-CC-PVTZ AUX)
    Blend: AUG-CC-PVTZ-JKFIT
  @DF-RHF Final Energy:  -195.23013328952945
    Total Energy =                       -195.2301332895294479
  Basis Set: (AUG-CC-PVTZ AUX)
    Blend: AUG-CC-PVTZ-RI
	 Reference Energy          =    -195.2301332895294479 [Eh]
	 Singles Energy            =      -0.0000000000000000 [Eh]
	 Same-Spin Energy          =      -0.2104921644267301 [Eh]
	 Opposite-Spin Energy      =      -0.7664078149407626 [Eh]
	 Correlation Energy        =      -0.9768999793674927 [Eh]
	 Total Energy              =    -196.2070332688969359 [Eh]
	 SCS Total Energy          =    -196.2199867222672651 [Eh]
    Molecular point group: c1
  Basis Set: AUG-CC-PVQZ
    Blend: AUG-CC-PVQZ
  Basis Set: (AUG-CC-PVQZ AUX)
    Blend: AUG-CC-PVQZ-JKFIT
  @DF-RHF Final Energy:  -195.24162084529684
    Total Energy =                       -195.2416208452968363
  Basis Set: (AUG-CC-PVQZ AUX)
  @DF-RHF Final Energy:  -195.23014475447198
    Total Energy =                       -195.2301447544719792
  @DF-RHF Final Energy:  -195.24162650381521
    Total Energy =                       -195.2416265038152119
  @DF-RHF Final Energy:  -195.23013943212968
    Total Energy =                       -195.2301394321296755
  @DF-RHF Final Energy:  -195.24162117023729
    Total Energy =                       -195.2416211702372948
  @DF-RHF Final Energy:  -195.23012796949624
    Total Energy =                       -195.2301279694962375
  @DF-RHF Final Energy:  -195.24161550805732
    Total Energy =                       -195.2416155080573219
  Multiplicity = 1
  @DF-RHF Final Energy:  -390.46026263992860
    Total Energy =                       -390.4602626399286009
	 Singles Energy            =      -0.0000000000000000 [Eh]
	 Same-Spin Energy          =      -0.4214983454266833 [Eh]
	 Opposite-Spin Energy      =      -1.5339263107314745 [Eh]
	 Correlation Energy        =      -1.9554246561581579 [Eh]
	 Total Energy              =    -392.4156872960867304 [Eh]
	 SCS Total Energy          =    -392.4414736612819183 [Eh]
    Molecular point group: c1

    Geometry (in Angstrom), charge = 0, multiplicity = 1:

       Center              X                  Y                   Z               Mass
    ------------   -----------------  -----------------  -----------------  -----------------
         C            0.937573595937    -0.934260103033    -2.873939267529    12.000000000000
         H            1.485263595937    -1.320770103033    -3.732469267529     1.007825032230
         H            1.402073595937    -1.357190103033    -1.984859267529     1.007825032230
         C            0.971643595937     0.616099896967    -2.870389267529    12.000000000000
         H            1.491283595937     0.980689896967    -3.755939267529     1.007825032230
         H            1.496953595937     1.017409896967    -2.005349267529     1.007825032230
         C           -0.498756404063     1.059909896967    -2.912009267529    12.000000000000
         H           -0.635576404063     2.022469896967    -3.402319267529     1.007825032230
         H           -0.894046404063     1.146659896967    -1.897819267529     1.007825032230
         C           -1.201416404063    -0.095210103033    -3.622539267529    12.000000000000
         H           -0.968186404063    -0.069240103033    -4.689689267529     1.007825032230
         H           -2.284966404063    -0.075970103033    -3.514619267529     1.007825032230
         C           -0.549966404063    -1.317300103033    -2.976579267529    12.000000000000
         H           -0.709696404063    -2.239430103033    -3.532899267529     1.007825032230
         H           -0.970156404063    -1.457820103033    -1.979139267529     1.007825032230
         C           -1.110206404063    -0.343750103033     2.915840732471    12.000000000000
         H           -1.443336404063    -0.107050103033     1.903250732471     1.007825032230
         H           -1.914996404063    -0.886840103033     3.408820732471     1.007825032230
         C            0.203393595937    -1.139290103033     2.868080732471    12.000000000000
         H            0.253343595937    -1.797030103033     2.001940732471     1.007825032230
         H            0.283683595937    -1.770650103033     3.752460732471     1.007825032230
         C            1.332713595937    -0.076580103033     2.868670732471    12.000000000000
         H            1.953983595937    -0.137260103033     1.976800732471     1.007825032230
         H            1.990123595937    -0.226470103033     3.724080732471     1.007825032230
         C            0.622543595937     1.285089896967     2.976540732471    12.000000000000
         H            0.442673595937     1.693579896967     1.980540732471     1.007825032230
         H            1.202923595937     2.019489896967     3.532510732471     1.007825032230
         C           -0.719506404063     0.950609896967     3.626350732471    12.000000000000
         H           -1.459176404063     1.743119896967     3.521470732471     1.007825032230
         H           -0.579476404063     0.758969896967     4.692900732471     1.007825032230

  Charge       = 0
  Multiplicity = 1
  Basis Set: AUG-CC-PVQZ
    Blend: AUG-CC-PVQZ
  Basis Set: (AUG-CC-PVQZ AUX)
    Blend: AUG-CC-PVQZ-JKFIT

    Orbital Energies [Eh]
    ---------------------

    Doubly Occupied:

       1A    -11.209818     2A    -11.209815     3A    -11.209419
       4A    -11.209415     5A    -11.209404     6A    -11.209402
       7A    -11.208801     8A    -11.208797     9A    -11.208642
      10A    -11.208639    11A     -1.116533    12A     -1.116489
      13A     -0.956979    14A     -0.956937    15A     -0.956119
      16A     -0.956073    17A     -0.777384    18A     -0.777232
      19A     -0.767601    20A     -0.767593    21A     -0.650574
      22A     -0.649965    23A     -0.645313    24A     -0.645123
      25A     -0.570595    26A     -0.570192    27A     -0.568837
      28A     -0.568294    29A     -0.475924    30A     -0.475798
      31A     -0.475100    32A     -0.474788    33A     -0.464064
      34A     -0.464051    35A     -0.461462    36A     -0.460476
      37A     -0.459727    38A     -0.459658    39A     -0.449400
      40A     -0.449380

  @DF-RHF Final Energy:  -390.48322598211200

   => Energetics <=

    Nuclear Repulsion Energy =            510.2178573159824850
    One-Electron Energy =               -1538.0425319291794040
    Two-Electron Energy =                 637.3414486310849725
    Total Energy =                       -390.4832259821120033

  Dipole Moment: [D]
     X:    -0.0258      Y:     0.0115      Z:     0.0001     Total:     0.0283

  Basis Set: (AUG-CC-PVQZ AUX)
    Blend: AUG-CC-PVQZ-RI
	 Reference Energy          =    -390.4832259821120033 [Eh]
	 Singles Energy            =      -0.0000000000000000 [Eh]
	 Same-Spin Energy          =      -0.4449236006779001 [Eh]
	 Opposite-Spin Energy      =      -1.6995204368866752 [Eh]
	 Correlation Energy        =      -2.1444440375645755 [Eh]
	 Total Energy              =    -392.6276700196766001 [Eh]

	 ================> DF-SCS-MP2 Energies <==================
	-----------------------------------------------------------
	 SCS Same-Spin Scale       =       0.3333333333333333 [-]
	 SCS Opposite-Spin Scale   =       1.2000000000000000 [-]
	 SCS Same-Spin Energy      =      -0.1483078668926334 [Eh]
	 SCS Opposite-Spin Energy  =      -2.0394245242640103 [Eh]
	 SCS Correlation Energy    =      -2.1877323911566435 [Eh]
	 SCS Total Energy          =    -392.6709583732686610 [Eh]
	-----------------------------------------------------------

*** Psi4 exiting successfully. Buy a developer a beer!
