                               Psi4 1.4a2.dev224

  ==> Input File <==

--------------------------------------------------------------------------
#Generated by lconvert.py for cbs job

memory 40 GB

molecule  {
0 1
  C        0.9568800    -0.8918460     1.1419500
  H        1.5045660    -1.2783580     0.2834200
  H        1.4213840    -1.3147780     2.0310250
  C        0.9909490     0.6585080     1.1455040
  H        1.5105940     1.0230960     0.2599480
  H        1.5162580     1.0598180     2.0105370
  C       -0.4794520     1.1023190     1.1038790
  H       -0.6162690     2.0648770     0.6135670
  H       -0.8747420     1.1890710     2.1180700
  C       -1.1821070    -0.0527970     0.3933460
  H       -0.9488820    -0.0268300    -0.6738050
  H       -2.2656650    -0.0335650     0.5012740
  C       -0.5306600    -1.2748900     1.0393100
  H       -0.6903910    -2.1970210     0.4829920
  H       -0.9508490    -1.4154120     2.0367480
--
0 1
  C       -1.1351620    -0.3903040     4.9109330
  H       -1.4682960    -0.1536050     3.8983480
  H       -1.9399500    -0.9334020     5.4039190
  C        0.1784450    -1.1858490     4.8631720
  H        0.2283900    -1.8435920     3.9970380
  H        0.2587320    -1.8172060     5.7475570
  C        1.3077600    -0.1231430     4.8637680
  H        1.9290250    -0.1838220     3.9718940
  H        1.9651690    -0.2730260     5.7191730
  C        0.5975870     1.2385260     4.9716350
  H        0.4177230     1.6470180     3.9756350
  H        1.1779710     1.9729290     5.5276080
  C       -0.7444660     0.9040530     5.6214460
  H       -1.4841340     1.6965650     5.5165650
  H       -0.6044260     0.7124130     6.6879950
units angstrom
no_reorient
symmetry c1
}

set {
scf_type DF
mp2_type DF
e_convergence 7
reference rhf
}

energy('mp2/aug-cc-pv[tq]z', bsse_type='cp')
--------------------------------------------------------------------------

    Molecular point group: c1
  Charge       = 0
  Multiplicity = 1
  Basis Set: AUG-CC-PVTZ
    Blend: AUG-CC-PVTZ
  Basis Set: (AUG-CC-PVTZ AUX)
    Blend: AUG-CC-PVTZ-JKFIT
  @DF-RHF Final Energy:  -195.23013327036719
    Total Energy =                       -195.2301332703671903
  Basis Set: (AUG-CC-PVTZ AUX)
    Blend: AUG-CC-PVTZ-RI
	 Reference Energy          =    -195.2301332703671903 [Eh]
	 Singles Energy            =      -0.0000000000000000 [Eh]
	 Same-Spin Energy          =      -0.2104921588632790 [Eh]
	 Opposite-Spin Energy      =      -0.7664078369441633 [Eh]
	 Correlation Energy        =      -0.9768999958074422 [Eh]
	 Total Energy              =    -196.2070332661746193 [Eh]
	 SCS Total Energy          =    -196.2199867276546001 [Eh]
    Molecular point group: c1
  Basis Set: AUG-CC-PVQZ
    Blend: AUG-CC-PVQZ
  Basis Set: (AUG-CC-PVQZ AUX)
    Blend: AUG-CC-PVQZ-JKFIT
  @DF-RHF Final Energy:  -195.24162082356122
    Total Energy =                       -195.2416208235612203
  Basis Set: (AUG-CC-PVQZ AUX)
  @DF-RHF Final Energy:  -195.23020907909174
    Total Energy =                       -195.2302090790917362
  @DF-RHF Final Energy:  -195.24164426247785
    Total Energy =                       -195.2416442624778483
  @DF-RHF Final Energy:  -195.23020375527167
    Total Energy =                       -195.2302037552716740
  @DF-RHF Final Energy:  -195.24163892372619
    Total Energy =                       -195.2416389237261853
  @DF-RHF Final Energy:  -195.23012794423471
    Total Energy =                       -195.2301279442347095
  @DF-RHF Final Energy:  -195.24161548511344
    Total Energy =                       -195.2416154851134422
  Multiplicity = 1
  @DF-RHF Final Energy:  -390.45395350097436
    Total Energy =                       -390.4539535009744213
	 Singles Energy            =      -0.0000000000000000 [Eh]
	 Same-Spin Energy          =      -0.4269734793563144 [Eh]
	 Opposite-Spin Energy      =      -1.5429632585235362 [Eh]
	 Correlation Energy        =      -1.9699367378798507 [Eh]
	 Total Energy              =    -392.4238902388541987 [Eh]
	 SCS Total Energy          =    -392.4478339043213850 [Eh]
    Molecular point group: c1

    Geometry (in Angstrom), charge = 0, multiplicity = 1:

       Center              X                  Y                   Z               Mass
    ------------   -----------------  -----------------  -----------------  -----------------
         C            0.959704195937    -0.889771702363    -1.863541581911    12.000000000000
         H            1.507390195937    -1.276283702363    -2.722071581911     1.007825032230
         H            1.424208195937    -1.312703702363    -0.974466581911     1.007825032230
         C            0.993773195937     0.660582297637    -1.859987581911    12.000000000000
         H            1.513418195937     1.025170297637    -2.745543581911     1.007825032230
         H            1.519082195937     1.061892297637    -0.994954581911     1.007825032230
         C           -0.476627804063     1.104393297637    -1.901612581911    12.000000000000
         H           -0.613444804063     2.066951297637    -2.391924581911     1.007825032230
         H           -0.871917804063     1.191145297637    -0.887421581911     1.007825032230
         C           -1.179282804063    -0.050722702363    -2.612145581911    12.000000000000
         H           -0.946057804063    -0.024755702363    -3.679296581911     1.007825032230
         H           -2.262840804063    -0.031490702363    -2.504217581911     1.007825032230
         C           -0.527835804063    -1.272815702363    -1.966181581911    12.000000000000
         H           -0.687566804063    -2.194946702363    -2.522499581911     1.007825032230
         H           -0.948024804063    -1.413337702363    -0.968743581911     1.007825032230
         C           -1.132337804063    -0.388229702363     1.905441418089    12.000000000000
         H           -1.465471804063    -0.151530702363     0.892856418089     1.007825032230
         H           -1.937125804063    -0.931327702363     2.398427418089     1.007825032230
         C            0.181269195937    -1.183774702363     1.857680418089    12.000000000000
         H            0.231214195937    -1.841517702363     0.991546418089     1.007825032230
         H            0.261556195937    -1.815131702363     2.742065418089     1.007825032230
         C            1.310584195937    -0.121068702363     1.858276418089    12.000000000000
         H            1.931849195937    -0.181747702363     0.966402418089     1.007825032230
         H            1.967993195937    -0.270951702363     2.713681418089     1.007825032230
         C            0.600411195937     1.240600297637     1.966143418089    12.000000000000
         H            0.420547195937     1.649092297637     0.970143418089     1.007825032230
         H            1.180795195937     1.975003297637     2.522116418089     1.007825032230
         C           -0.741641804063     0.906127297637     2.615954418089    12.000000000000
         H           -1.481309804063     1.698639297637     2.511073418089     1.007825032230
         H           -0.601601804063     0.714487297637     3.682503418089     1.007825032230

  Charge       = 0
  Multiplicity = 1
  Basis Set: AUG-CC-PVQZ
    Blend: AUG-CC-PVQZ
  Basis Set: (AUG-CC-PVQZ AUX)
    Blend: AUG-CC-PVQZ-JKFIT

    Orbital Energies [Eh]
    ---------------------

    Doubly Occupied:

       1A    -11.209608     2A    -11.209605     3A    -11.209239
       4A    -11.209237     5A    -11.209033     6A    -11.209029
       7A    -11.208576     8A    -11.208574     9A    -11.208173
      10A    -11.208170    11A     -1.118638    12A     -1.114990
      13A     -0.959751    14A     -0.958876    15A     -0.954821
      16A     -0.954156    17A     -0.781607    18A     -0.774968
      19A     -0.767921    20A     -0.767538    21A     -0.663536
      22A     -0.646945    23A     -0.646115    24A     -0.636690
      25A     -0.581626    26A     -0.578874    27A     -0.562130
      28A     -0.557978    29A     -0.478351    30A     -0.477657
      31A     -0.476110    32A     -0.471937    33A     -0.468722
      34A     -0.464875    35A     -0.464458    36A     -0.459544
      37A     -0.459453    38A     -0.452442    39A     -0.449690
      40A     -0.447159

  @DF-RHF Final Energy:  -390.47683227088663

   => Energetics <=

    Nuclear Repulsion Energy =            568.0164557411530950
    One-Electron Energy =               -1653.6129603720114574
    Two-Electron Energy =                 695.1196723599717870
    Total Energy =                       -390.4768322708865753

  Dipole Moment: [D]
     X:    -0.0177      Y:     0.0079      Z:     0.0001     Total:     0.0194

  Basis Set: (AUG-CC-PVQZ AUX)
    Blend: AUG-CC-PVQZ-RI
	 Reference Energy          =    -390.4768322708866322 [Eh]
	 Singles Energy            =      -0.0000000000000000 [Eh]
	 Same-Spin Energy          =      -0.4501425946101282 [Eh]
	 Opposite-Spin Energy      =      -1.7061528348904127 [Eh]
	 Correlation Energy        =      -2.1562954295005410 [Eh]
	 Total Energy              =    -392.6331277003871492 [Eh]

	 ================> DF-SCS-MP2 Energies <==================
	-----------------------------------------------------------
	 SCS Same-Spin Scale       =       0.3333333333333333 [-]
	 SCS Opposite-Spin Scale   =       1.2000000000000000 [-]
	 SCS Same-Spin Energy      =      -0.1500475315367094 [Eh]
	 SCS Opposite-Spin Energy  =      -2.0473834018684953 [Eh]
	 SCS Correlation Energy    =      -2.1974309334052049 [Eh]
	 SCS Total Energy          =    -392.6742632042918331 [Eh]
	-----------------------------------------------------------

*** Psi4 exiting successfully. Buy a developer a beer!
