                               Psi4 1.4a2.dev224

  ==> Input File <==

--------------------------------------------------------------------------
#Generated by lconvert.py for cbs job

memory 40 GB

molecule  {
0 1
  C        0.9568800    -0.8918460     1.1419500
  H        1.5045660    -1.2783580     0.2834200
  H        1.4213840    -1.3147780     2.0310250
  C        0.9909490     0.6585080     1.1455040
  H        1.5105940     1.0230960     0.2599480
  H        1.5162580     1.0598180     2.0105370
  C       -0.4794520     1.1023190     1.1038790
  H       -0.6162690     2.0648770     0.6135670
  H       -0.8747420     1.1890710     2.1180700
  C       -1.1821070    -0.0527970     0.3933460
  H       -0.9488820    -0.0268300    -0.6738050
  H       -2.2656650    -0.0335650     0.5012740
  C       -0.5306600    -1.2748900     1.0393100
  H       -0.6903910    -2.1970210     0.4829920
  H       -0.9508490    -1.4154120     2.0367480
--
0 1
  C       -1.1382460    -0.3965040     4.7701120
  H       -1.4713800    -0.1598050     3.7575270
  H       -1.9430340    -0.9396020     5.2630980
  C        0.1753600    -1.1920490     4.7223510
  H        0.2253050    -1.8497910     3.8562170
  H        0.2556480    -1.8234060     5.6067360
  C        1.3046760    -0.1293430     4.7229470
  H        1.9259410    -0.1900220     3.8310730
  H        1.9620850    -0.2792260     5.5783520
  C        0.5945020     1.2323260     4.8308140
  H        0.4146390     1.6408180     3.8348140
  H        1.1748860     1.9667290     5.3867870
  C       -0.7475500     0.8978530     5.4806250
  H       -1.4872190     1.6903650     5.3757440
  H       -0.6075100     0.7062130     6.5471740
units angstrom
no_reorient
symmetry c1
}

set {
scf_type DF
mp2_type DF
e_convergence 7
reference rhf
}

energy('mp2/aug-cc-pv[tq]z', bsse_type='cp')
--------------------------------------------------------------------------

    Molecular point group: c1
  Charge       = 0
  Multiplicity = 1
  Basis Set: AUG-CC-PVTZ
    Blend: AUG-CC-PVTZ
  Basis Set: (AUG-CC-PVTZ AUX)
    Blend: AUG-CC-PVTZ-JKFIT
  @DF-RHF Final Energy:  -195.23013327015192
    Total Energy =                       -195.2301332701519243
  Basis Set: (AUG-CC-PVTZ AUX)
    Blend: AUG-CC-PVTZ-RI
	 Reference Energy          =    -195.2301332701519243 [Eh]
	 Singles Energy            =      -0.0000000000000000 [Eh]
	 Same-Spin Energy          =      -0.2104921630173210 [Eh]
	 Opposite-Spin Energy      =      -0.7664078368489952 [Eh]
	 Correlation Energy        =      -0.9768999998663161 [Eh]
	 Total Energy              =    -196.2070332700182291 [Eh]
	 SCS Total Energy          =    -196.2199867287098130 [Eh]
    Molecular point group: c1
  Basis Set: AUG-CC-PVQZ
    Blend: AUG-CC-PVQZ
  Basis Set: (AUG-CC-PVQZ AUX)
    Blend: AUG-CC-PVQZ-JKFIT
  @DF-RHF Final Energy:  -195.24162082606981
    Total Energy =                       -195.2416208260698056
  Basis Set: (AUG-CC-PVQZ AUX)
  @DF-RHF Final Energy:  -195.23021660356409
    Total Energy =                       -195.2302166035640880
  @DF-RHF Final Energy:  -195.24164680963457
    Total Energy =                       -195.2416468096345739
  @DF-RHF Final Energy:  -195.23021127889663
    Total Energy =                       -195.2302112788966326
  @DF-RHF Final Energy:  -195.24164146807689
    Total Energy =                       -195.2416414680768924
  @DF-RHF Final Energy:  -195.23012794529819
    Total Energy =                       -195.2301279452981930
  @DF-RHF Final Energy:  -195.24161548490235
    Total Energy =                       -195.2416154849023542
  Multiplicity = 1
  @DF-RHF Final Energy:  -390.45048813453769
    Total Energy =                       -390.4504881345377498
	 Singles Energy            =      -0.0000000000000000 [Eh]
	 Same-Spin Energy          =      -0.4283010488536984 [Eh]
	 Opposite-Spin Energy      =      -1.5447774450851908 [Eh]
	 Correlation Energy        =      -1.9730784939388892 [Eh]
	 Total Energy              =    -392.4235666284765784 [Eh]
	 SCS Total Energy          =    -392.4469880849244987 [Eh]
    Molecular point group: c1

    Geometry (in Angstrom), charge = 0, multiplicity = 1:

       Center              X                  Y                   Z               Mass
    ------------   -----------------  -----------------  -----------------  -----------------
         C            0.961246388746    -0.886671709553    -1.793131081911    12.000000000000
         H            1.508932388746    -1.273183709553    -2.651661081911     1.007825032230
         H            1.425750388746    -1.309603709553    -0.904056081911     1.007825032230
         C            0.995315388746     0.663682290447    -1.789577081911    12.000000000000
         H            1.514960388746     1.028270290447    -2.675133081911     1.007825032230
         H            1.520624388746     1.064992290447    -0.924544081911     1.007825032230
         C           -0.475085611254     1.107493290447    -1.831202081911    12.000000000000
         H           -0.611902611254     2.070051290447    -2.321514081911     1.007825032230
         H           -0.870375611254     1.194245290447    -0.817011081911     1.007825032230
         C           -1.177740611254    -0.047622709553    -2.541735081911    12.000000000000
         H           -0.944515611254    -0.021655709553    -3.608886081911     1.007825032230
         H           -2.261298611254    -0.028390709553    -2.433807081911     1.007825032230
         C           -0.526293611254    -1.269715709553    -1.895771081911    12.000000000000
         H           -0.686024611254    -2.191846709553    -2.452089081911     1.007825032230
         H           -0.946482611254    -1.410237709553    -0.898333081911     1.007825032230
         C           -1.133879611254    -0.391329709553     1.835030918089    12.000000000000
         H           -1.467013611254    -0.154630709553     0.822445918089     1.007825032230
         H           -1.938667611254    -0.934427709553     2.328016918089     1.007825032230
         C            0.179726388746    -1.186874709553     1.787269918089    12.000000000000
         H            0.229671388746    -1.844616709553     0.921135918089     1.007825032230
         H            0.260014388746    -1.818231709553     2.671654918089     1.007825032230
         C            1.309042388746    -0.124168709553     1.787865918089    12.000000000000
         H            1.930307388746    -0.184847709553     0.895991918089     1.007825032230
         H            1.966451388746    -0.274051709553     2.643270918089     1.007825032230
         C            0.598868388746     1.237500290447     1.895732918089    12.000000000000
         H            0.419005388746     1.645992290447     0.899732918089     1.007825032230
         H            1.179252388746     1.971903290447     2.451705918089     1.007825032230
         C           -0.743183611254     0.903027290447     2.545543918089    12.000000000000
         H           -1.482852611254     1.695539290447     2.440662918089     1.007825032230
         H           -0.603143611254     0.711387290447     3.612092918089     1.007825032230

  Charge       = 0
  Multiplicity = 1
  Basis Set: AUG-CC-PVQZ
    Blend: AUG-CC-PVQZ
  Basis Set: (AUG-CC-PVQZ AUX)
    Blend: AUG-CC-PVQZ-JKFIT

    Orbital Energies [Eh]
    ---------------------

    Doubly Occupied:

       1A    -11.209423     2A    -11.209421     3A    -11.209018
       4A    -11.209016     5A    -11.208736     6A    -11.208731
       7A    -11.208311     8A    -11.208308     9A    -11.207778
      10A    -11.207776    11A     -1.119335    12A     -1.114351
      13A     -0.960716    14A     -0.959751    15A     -0.954013
      16A     -0.953392    17A     -0.782885    18A     -0.774601
      19A     -0.767940    20A     -0.767186    21A     -0.666937
      22A     -0.647218    23A     -0.645701    24A     -0.633888
      25A     -0.585007    26A     -0.580931    27A     -0.559850
      28A     -0.555192    29A     -0.479106    30A     -0.478025
      31A     -0.476798    32A     -0.471172    33A     -0.469047
      34A     -0.465255    35A     -0.464582    36A     -0.459387
      37A     -0.459115    38A     -0.451906    39A     -0.449431
      40A     -0.445052

  @DF-RHF Final Energy:  -390.47336191474932

   => Energetics <=

    Nuclear Repulsion Energy =            573.8163003054581850
    One-Electron Energy =               -1665.2107401827904596
    Two-Electron Energy =                 700.9210779625830128
    Total Energy =                       -390.4733619147493755

  Dipole Moment: [D]
     X:    -0.0149      Y:     0.0066      Z:     0.0001     Total:     0.0163

  Basis Set: (AUG-CC-PVQZ AUX)
    Blend: AUG-CC-PVQZ-RI
	 Reference Energy          =    -390.4733619147493187 [Eh]
	 Singles Energy            =      -0.0000000000000000 [Eh]
	 Same-Spin Energy          =      -0.4514545522583923 [Eh]
	 Opposite-Spin Energy      =      -1.7077563855401205 [Eh]
	 Correlation Energy        =      -2.1592109377985129 [Eh]
	 Total Energy              =    -392.6325728525478098 [Eh]

	 ================> DF-SCS-MP2 Energies <==================
	-----------------------------------------------------------
	 SCS Same-Spin Scale       =       0.3333333333333333 [-]
	 SCS Opposite-Spin Scale   =       1.2000000000000000 [-]
	 SCS Same-Spin Energy      =      -0.1504848507527974 [Eh]
	 SCS Opposite-Spin Energy  =      -2.0493076626481446 [Eh]
	 SCS Correlation Energy    =      -2.1997925134009422 [Eh]
	 SCS Total Energy          =    -392.6731544281502693 [Eh]
	-----------------------------------------------------------

*** Psi4 exiting successfully. Buy a developer a beer!
