                               Psi4 1.4a2.dev224

  ==> Input File <==

--------------------------------------------------------------------------
#Generated by lconvert.py for cbs job

memory 20 GB

molecule  {
0 1
  C       0.765550    0.868240    0.820990
  H       1.437480    1.680010    1.065100
  C       1.237650   -0.442840    0.793890
  H       2.275760   -0.648540    1.017710
  C       0.372240   -1.488540    0.477270
  H       0.738190   -2.506080    0.457060
  C      -0.964930   -1.222970    0.186880
  H      -1.636460   -2.034560   -0.057770
  C      -1.437070    0.088410    0.213280
  H      -2.474680    0.294300   -0.011470
  C      -0.571910    1.134020    0.530810
  H      -0.937700    2.151710    0.551080
--
0 1
  C      -0.724040   -0.657060    4.930860
  H      -0.830290   -0.482110    3.858550
  H      -1.375670   -1.486330    5.204010
  C       0.745500   -0.914130    5.274990
  H       1.240730   -1.551710    4.544400
  H       0.808780   -1.414340    6.242450
  C       1.385640    0.491270    5.365940
  H       2.035910    0.683940    4.514080
  H       1.998510    0.580440    6.261660
  C       0.206590    1.490450    5.392810
  H       0.089440    1.949420    4.410520
  H       0.352190    2.291950    6.115210
  C      -1.027180    0.633350    5.688460
  H      -1.958170    1.109090    5.382550
  H      -1.092600    0.424030    6.758990
units angstrom
no_reorient
symmetry c1
}

set {
scf_type DF
mp2_type DF
e_convergence 7
reference rhf
}

energy('mp2/aug-cc-pv[tq]z', bsse_type='cp')
--------------------------------------------------------------------------

    Molecular point group: c1
  Charge       = 0
  Multiplicity = 1
  Basis Set: AUG-CC-PVTZ
    Blend: AUG-CC-PVTZ
  Basis Set: (AUG-CC-PVTZ AUX)
    Blend: AUG-CC-PVTZ-JKFIT
  @DF-RHF Final Energy:  -195.23008542794619
    Total Energy =                       -195.2300854279461930
  Basis Set: (AUG-CC-PVTZ AUX)
    Blend: AUG-CC-PVTZ-RI
	 Reference Energy          =    -195.2300854279461930 [Eh]
	 Singles Energy            =      -0.0000000000000000 [Eh]
	 Same-Spin Energy          =      -0.2105086239074550 [Eh]
	 Opposite-Spin Energy      =      -0.7664607837709490 [Eh]
	 Correlation Energy        =      -0.9769694076784039 [Eh]
	 Total Energy              =    -196.2070548356246036 [Eh]
	 SCS Total Energy          =    -196.2200079097738126 [Eh]
    Molecular point group: c1
  Basis Set: AUG-CC-PVQZ
    Blend: AUG-CC-PVQZ
  Basis Set: (AUG-CC-PVQZ AUX)
    Blend: AUG-CC-PVQZ-JKFIT
  @DF-RHF Final Energy:  -195.24157231360871
    Total Energy =                       -195.2415723136087138
  Basis Set: (AUG-CC-PVQZ AUX)
  @DF-RHF Final Energy:  -195.23010741091952
    Total Energy =                       -195.2301074109195156
  @DF-RHF Final Energy:  -195.24158095677302
    Total Energy =                       -195.2415809567730207
  @DF-RHF Final Energy:  -230.78138213171377
    Total Energy =                       -230.7813821317137695
  @DF-RHF Final Energy:  -230.79444930466434
    Total Energy =                       -230.7944493046643402
  @DF-RHF Final Energy:  -230.78123999265190
    Total Energy =                       -230.7812399926518765
  @DF-RHF Final Energy:  -230.79441414402049
    Total Energy =                       -230.7944141440204930
  Multiplicity = 1
  @DF-RHF Final Energy:  -426.01139472729722
    Total Energy =                       -426.0113947272972155
	 Singles Energy            =      -0.0000000000000000 [Eh]
	 Same-Spin Energy          =      -0.4678948028241789 [Eh]
	 Opposite-Spin Energy      =      -1.5887706978149880 [Eh]
	 Correlation Energy        =      -2.0566655006391672 [Eh]
	 Total Energy              =    -428.0680602279363711 [Eh]
	 SCS Total Energy          =    -428.0738844989499512 [Eh]
    Molecular point group: c1

    Geometry (in Angstrom), charge = 0, multiplicity = 1:

       Center              X                  Y                   Z               Mass
    ------------   -----------------  -----------------  -----------------  -----------------
         C            0.761950653763     0.862759719958    -1.966307154332    12.000000000000
         H            1.433880653763     1.674529719958    -1.722197154332     1.007825032230
         C            1.234050653763    -0.448320280042    -1.993407154332    12.000000000000
         H            2.272160653763    -0.654020280042    -1.769587154332     1.007825032230
         C            0.368640653763    -1.494020280042    -2.310027154332    12.000000000000
         H            0.734590653763    -2.511560280042    -2.330237154332     1.007825032230
         C           -0.968529346237    -1.228450280042    -2.600417154332    12.000000000000
         H           -1.640059346237    -2.040040280042    -2.845067154332     1.007825032230
         C           -1.440669346237     0.082929719958    -2.574017154332    12.000000000000
         H           -2.478279346237     0.288819719958    -2.798767154332     1.007825032230
         C           -0.575509346237     1.128539719958    -2.256487154332    12.000000000000
         H           -0.941299346237     2.146229719958    -2.236217154332     1.007825032230
         C           -0.727639346237    -0.662540280042     2.143562845668    12.000000000000
         H           -0.833889346237    -0.487590280042     1.071252845668     1.007825032230
         H           -1.379269346237    -1.491810280042     2.416712845668     1.007825032230
         C            0.741900653763    -0.919610280042     2.487692845668    12.000000000000
         H            1.237130653763    -1.557190280042     1.757102845668     1.007825032230
         H            0.805180653763    -1.419820280042     3.455152845668     1.007825032230
         C            1.382040653763     0.485789719958     2.578642845668    12.000000000000
         H            2.032310653763     0.678459719958     1.726782845668     1.007825032230
         H            1.994910653763     0.574959719958     3.474362845668     1.007825032230
         C            0.202990653763     1.484969719958     2.605512845668    12.000000000000
         H            0.085840653763     1.943939719958     1.623222845668     1.007825032230
         H            0.348590653763     2.286469719958     3.327912845668     1.007825032230
         C           -1.030779346237     0.627869719958     2.901162845668    12.000000000000
         H           -1.961769346237     1.103609719958     2.595252845668     1.007825032230
         H           -1.096199346237     0.418549719958     3.971692845668     1.007825032230

  Charge       = 0
  Multiplicity = 1
  Basis Set: AUG-CC-PVQZ
    Blend: AUG-CC-PVQZ
  Basis Set: (AUG-CC-PVQZ AUX)
    Blend: AUG-CC-PVQZ-JKFIT

    Orbital Energies [Eh]
    ---------------------

    Doubly Occupied:

       1A    -11.236683     2A    -11.236104     3A    -11.236099
       4A    -11.234865     5A    -11.234852     6A    -11.234244
       7A    -11.205057     8A    -11.204506     9A    -11.203916
      10A    -11.203740    11A    -11.201631    12A     -1.151557
      13A     -1.111103    14A     -1.016031    15A     -1.015938
      16A     -0.951506    17A     -0.950826    18A     -0.825461
      19A     -0.825439    20A     -0.771391    21A     -0.762247
      22A     -0.711160    23A     -0.645562    24A     -0.645202
      25A     -0.639592    26A     -0.620634    27A     -0.589623
      28A     -0.589512    29A     -0.565350    30A     -0.563548
      31A     -0.504423    32A     -0.496419    33A     -0.496416
      34A     -0.470208    35A     -0.469142    36A     -0.458977
      37A     -0.454892    38A     -0.453929    39A     -0.444538
      40A     -0.338551    41A     -0.338460

  @DF-RHF Final Energy:  -426.03593434987556

   => Energetics <=

    Nuclear Repulsion Energy =            563.2098858538734021
    One-Electron Energy =               -1691.8729851941179732
    Two-Electron Energy =                 702.6271649903690104
    Total Energy =                       -426.0359343498755607

  Dipole Moment: [D]
     X:    -0.0645      Y:    -0.0481      Z:    -0.2055     Total:     0.2207

  Basis Set: (AUG-CC-PVQZ AUX)
    Blend: AUG-CC-PVQZ-RI
	 Reference Energy          =    -426.0359343498755607 [Eh]
	 Singles Energy            =      -0.0000000000000000 [Eh]
	 Same-Spin Energy          =      -0.4940375628598055 [Eh]
	 Opposite-Spin Energy      =      -1.7700652132983983 [Eh]
	 Correlation Energy        =      -2.2641027761582038 [Eh]
	 Total Energy              =    -428.3000371260337715 [Eh]

	 ================> DF-SCS-MP2 Energies <==================
	-----------------------------------------------------------
	 SCS Same-Spin Scale       =       0.3333333333333333 [-]
	 SCS Opposite-Spin Scale   =       1.2000000000000000 [-]
	 SCS Same-Spin Energy      =      -0.1646791876199352 [Eh]
	 SCS Opposite-Spin Energy  =      -2.1240782559580778 [Eh]
	 SCS Correlation Energy    =      -2.2887574435780129 [Eh]
	 SCS Total Energy          =    -428.3246917934535531 [Eh]
	-----------------------------------------------------------

*** Psi4 exiting successfully. Buy a developer a beer!
