                               Psi4 1.4a2.dev224

  ==> Input File <==

--------------------------------------------------------------------------
#Generated by lconvert.py for cbs job

memory 40 GB

molecule  {
0 1
  C        0.7655450     0.8682440     0.8209910
  H        1.4374760     1.6800070     1.0651030
  C        1.2376530    -0.4428380     0.7938880
  H        2.2757590    -0.6485380     1.0177110
  C        0.3722370    -1.4885370     0.4772690
  H        0.7381880    -2.5060800     0.4570560
  C       -0.9649330    -1.2229720     0.1868780
  H       -1.6364590    -2.0345610    -0.0577740
  C       -1.4370650     0.0884060     0.2132770
  H       -2.4746840     0.2943020    -0.0114670
  C       -0.5719060     1.1340240     0.5308130
  H       -0.9376990     2.1517110     0.5510780
--
0 1
  C       -0.7921190    -0.7774720     3.4263650
  H       -0.8983730    -0.6025230     2.3540580
  H       -1.4437560    -1.6067360     3.6995160
  C        0.6774220    -1.0345350     3.7704950
  H        1.1726530    -1.6721200     3.0399110
  H        0.7407020    -1.5347490     4.7379620
  C        1.3175600     0.3708620     3.8614480
  H        1.9678280     0.5635320     3.0095950
  H        1.9304270     0.4600310     4.7571730
  C        0.1385130     1.3700390     3.8883200
  H        0.0213620     1.8290090     2.9060350
  H        0.2841070     2.1715430     4.6107190
  C       -1.0952580     0.5129430     4.1839690
  H       -2.0262470     0.9886810     3.8780560
  H       -1.1606840     0.3036220     5.2545040
units angstrom
no_reorient
symmetry c1
}

set {
scf_type DF
mp2_type DF
e_convergence 7
reference rhf
}

energy('mp2/aug-cc-pv[tq]z', bsse_type='cp')
--------------------------------------------------------------------------

    Molecular point group: c1
  Charge       = 0
  Multiplicity = 1
  Basis Set: AUG-CC-PVTZ
    Blend: AUG-CC-PVTZ
  Basis Set: (AUG-CC-PVTZ AUX)
    Blend: AUG-CC-PVTZ-JKFIT
  @DF-RHF Final Energy:  -195.23008544234344
    Total Energy =                       -195.2300854423434373
  Basis Set: (AUG-CC-PVTZ AUX)
    Blend: AUG-CC-PVTZ-RI
	 Reference Energy          =    -195.2300854423434373 [Eh]
	 Singles Energy            =      -0.0000000000000000 [Eh]
	 Same-Spin Energy          =      -0.2105086291953588 [Eh]
	 Opposite-Spin Energy      =      -0.7664607644283281 [Eh]
	 Correlation Energy        =      -0.9769693936236870 [Eh]
	 Total Energy              =    -196.2070548359671136 [Eh]
	 SCS Total Energy          =    -196.2200079027225570 [Eh]
    Molecular point group: c1
  Basis Set: AUG-CC-PVQZ
    Blend: AUG-CC-PVQZ
  Basis Set: (AUG-CC-PVQZ AUX)
    Blend: AUG-CC-PVQZ-JKFIT
  @DF-RHF Final Energy:  -195.24157232122781
    Total Energy =                       -195.2415723212278067
  Basis Set: (AUG-CC-PVQZ AUX)
  @DF-RHF Final Energy:  -195.23018079578523
    Total Energy =                       -195.2301807957852304
  @DF-RHF Final Energy:  -195.24159965726562
    Total Energy =                       -195.2415996572656240
  @DF-RHF Final Energy:  -230.78169072723682
    Total Energy =                       -230.7816907272368212
  @DF-RHF Final Energy:  -230.79451194162311
    Total Energy =                       -230.7945119416231137
  @DF-RHF Final Energy:  -230.78124001001038
    Total Energy =                       -230.7812400100103787
  @DF-RHF Final Energy:  -230.79441415917967
    Total Energy =                       -230.7944141591796665
  Multiplicity = 1
  @DF-RHF Final Energy:  -425.97968564212607
    Total Energy =                       -425.9796856421261282
	 Singles Energy            =      -0.0000000000000000 [Eh]
	 Same-Spin Energy          =      -0.4810636031185853 [Eh]
	 Opposite-Spin Energy      =      -1.6091706192171102 [Eh]
	 Correlation Energy        =      -2.0902342223356953 [Eh]
	 Total Energy              =    -428.0699198644617809 [Eh]
	 SCS Total Energy          =    -428.0710449195594833 [Eh]
    Molecular point group: c1

    Geometry (in Angstrom), charge = 0, multiplicity = 1:

       Center              X                  Y                   Z               Mass
    ------------   -----------------  -----------------  -----------------  -----------------
         C            0.794153808903     0.919728659117    -1.254528385165    12.000000000000
         H            1.466084808903     1.731491659117    -1.010416385165     1.007825032230
         C            1.266261808903    -0.391353340883    -1.281631385165    12.000000000000
         H            2.304367808903    -0.597053340883    -1.057808385165     1.007825032230
         C            0.400845808903    -1.437052340883    -1.598250385165    12.000000000000
         H            0.766796808903    -2.454595340883    -1.618463385165     1.007825032230
         C           -0.936324191097    -1.171487340883    -1.888641385165    12.000000000000
         H           -1.607850191097    -1.983076340883    -2.133293385165     1.007825032230
         C           -1.408456191097     0.139890659117    -1.862242385165    12.000000000000
         H           -2.446075191097     0.345786659117    -2.086986385165     1.007825032230
         C           -0.543297191097     1.185508659117    -1.544706385165    12.000000000000
         H           -0.909090191097     2.203195659117    -1.524441385165     1.007825032230
         C           -0.763510191097    -0.725987340883     1.350845614835    12.000000000000
         H           -0.869764191097    -0.551038340883     0.278538614835     1.007825032230
         H           -1.415147191097    -1.555251340883     1.623996614835     1.007825032230
         C            0.706030808903    -0.983050340883     1.694975614835    12.000000000000
         H            1.201261808903    -1.620635340883     0.964391614835     1.007825032230
         H            0.769310808903    -1.483264340883     2.662442614835     1.007825032230
         C            1.346168808903     0.422346659117     1.785928614835    12.000000000000
         H            1.996436808903     0.615016659117     0.934075614835     1.007825032230
         H            1.959035808903     0.511515659117     2.681653614835     1.007825032230
         C            0.167121808903     1.421523659117     1.812800614835    12.000000000000
         H            0.049970808903     1.880493659117     0.830515614835     1.007825032230
         H            0.312715808903     2.223027659117     2.535199614835     1.007825032230
         C           -1.066649191097     0.564427659117     2.108449614835    12.000000000000
         H           -1.997638191097     1.040165659117     1.802536614835     1.007825032230
         H           -1.132075191097     0.355106659117     3.178984614835     1.007825032230

  Charge       = 0
  Multiplicity = 1
  Basis Set: AUG-CC-PVQZ
    Blend: AUG-CC-PVQZ
  Basis Set: (AUG-CC-PVQZ AUX)
    Blend: AUG-CC-PVQZ-JKFIT

    Orbital Energies [Eh]
    ---------------------

    Doubly Occupied:

       1A    -11.237097     2A    -11.236148     3A    -11.235805
       4A    -11.235069     5A    -11.234517     6A    -11.233771
       7A    -11.200854     8A    -11.199022     9A    -11.198415
      10A    -11.198065    11A    -11.189299    12A     -1.155807
      13A     -1.105493    14A     -1.019344    15A     -1.018604
      16A     -0.947096    17A     -0.945977    18A     -0.827978
      19A     -0.827913    20A     -0.767484    21A     -0.758657
      22A     -0.714665    23A     -0.648080    24A     -0.646562
      25A     -0.635064    26A     -0.622200    27A     -0.592102
      28A     -0.591512    29A     -0.563708    30A     -0.561709
      31A     -0.509664    32A     -0.497970    33A     -0.497833
      34A     -0.465479    35A     -0.463638    36A     -0.454549
      37A     -0.448355    38A     -0.442607    39A     -0.434457
      40A     -0.338739    41A     -0.336917

  @DF-RHF Final Energy:  -426.00394676120231

   => Energetics <=

    Nuclear Repulsion Energy =            625.3593578060335858
    One-Electron Energy =               -1816.2501618361841338
    Two-Electron Energy =                 764.8868572689482335
    Total Energy =                       -426.0039467612023145

  Dipole Moment: [D]
     X:    -0.0200      Y:    -0.0509      Z:    -0.3298     Total:     0.3343

  Basis Set: (AUG-CC-PVQZ AUX)
    Blend: AUG-CC-PVQZ-RI
	 Reference Energy          =    -426.0039467612023145 [Eh]
	 Singles Energy            =      -0.0000000000000000 [Eh]
	 Same-Spin Energy          =      -0.5068724092770538 [Eh]
	 Opposite-Spin Energy      =      -1.7864911909069301 [Eh]
	 Correlation Energy        =      -2.2933636001839837 [Eh]
	 Total Energy              =    -428.2973103613862804 [Eh]

	 ================> DF-SCS-MP2 Energies <==================
	-----------------------------------------------------------
	 SCS Same-Spin Scale       =       0.3333333333333333 [-]
	 SCS Opposite-Spin Scale   =       1.2000000000000000 [-]
	 SCS Same-Spin Energy      =      -0.1689574697590179 [Eh]
	 SCS Opposite-Spin Energy  =      -2.1437894290883159 [Eh]
	 SCS Correlation Energy    =      -2.3127468988473341 [Eh]
	 SCS Total Energy          =    -428.3166936600496228 [Eh]
	-----------------------------------------------------------

*** Psi4 exiting successfully. Buy a developer a beer!
