                               Psi4 1.4a2.dev224

  ==> Input File <==

--------------------------------------------------------------------------
#Generated by lconvert.py for cbs job

memory 40 GB

molecule  {
0 1
  C        0.7655450     0.8682440     0.8209910
  H        1.4374760     1.6800070     1.0651030
  C        1.2376530    -0.4428380     0.7938880
  H        2.2757590    -0.6485380     1.0177110
  C        0.3722370    -1.4885370     0.4772690
  H        0.7381880    -2.5060800     0.4570560
  C       -0.9649330    -1.2229720     0.1868780
  H       -1.6364590    -2.0345610    -0.0577740
  C       -1.4370650     0.0884060     0.2132770
  H       -2.4746840     0.2943020    -0.0114670
  C       -0.5719060     1.1340240     0.5308130
  H       -0.9376990     2.1517110     0.5510780
--
0 1
  C       -0.7573390    -0.7159610     4.1949370
  H       -0.8635930    -0.5410110     3.1226300
  H       -1.4089770    -1.5452240     4.4680870
  C        0.7122020    -0.9730240     4.5390670
  H        1.2074330    -1.6106090     3.8084820
  H        0.7754810    -1.4732370     5.5065330
  C        1.3523390     0.4323730     4.6300190
  H        2.0026070     0.6250440     3.7781660
  H        1.9652060     0.5215420     5.5257450
  C        0.1732930     1.4315500     4.6568910
  H        0.0561410     1.8905200     3.6746060
  H        0.3188860     2.2330550     5.3792900
  C       -1.0604790     0.5744550     4.9525400
  H       -1.9914670     1.0501920     4.6466270
  H       -1.1259050     0.3651340     6.0230760
units angstrom
no_reorient
symmetry c1
}

set {
scf_type DF
mp2_type DF
e_convergence 7
reference rhf
}

energy('mp2/aug-cc-pv[tq]z', bsse_type='cp')
--------------------------------------------------------------------------

    Molecular point group: c1
  Charge       = 0
  Multiplicity = 1
  Basis Set: AUG-CC-PVTZ
    Blend: AUG-CC-PVTZ
  Basis Set: (AUG-CC-PVTZ AUX)
    Blend: AUG-CC-PVTZ-JKFIT
  @DF-RHF Final Energy:  -195.23008543865066
    Total Energy =                       -195.2300854386506614
  Basis Set: (AUG-CC-PVTZ AUX)
    Blend: AUG-CC-PVTZ-RI
	 Reference Energy          =    -195.2300854386506614 [Eh]
	 Singles Energy            =      -0.0000000000000000 [Eh]
	 Same-Spin Energy          =      -0.2105086317427576 [Eh]
	 Opposite-Spin Energy      =      -0.7664607686187764 [Eh]
	 Correlation Energy        =      -0.9769694003615341 [Eh]
	 Total Energy              =    -196.2070548390121871 [Eh]
	 SCS Total Energy          =    -196.2200079049074475 [Eh]
    Molecular point group: c1
  Basis Set: AUG-CC-PVQZ
    Blend: AUG-CC-PVQZ
  Basis Set: (AUG-CC-PVQZ AUX)
    Blend: AUG-CC-PVQZ-JKFIT
  @DF-RHF Final Energy:  -195.24157231955343
    Total Energy =                       -195.2415723195534270
  Basis Set: (AUG-CC-PVQZ AUX)
  @DF-RHF Final Energy:  -195.23013179166981
    Total Energy =                       -195.2301317916698054
  @DF-RHF Final Energy:  -195.24158732958298
    Total Energy =                       -195.2415873295829840
  @DF-RHF Final Energy:  -230.78149445420024
    Total Energy =                       -230.7814944542002422
  @DF-RHF Final Energy:  -230.79447545624961
    Total Energy =                       -230.7944754562496428
  @DF-RHF Final Energy:  -230.78124000511133
    Total Energy =                       -230.7812400051113286
  @DF-RHF Final Energy:  -230.79441416251990
    Total Energy =                       -230.7944141625198995
  Multiplicity = 1
  @DF-RHF Final Energy:  -426.00870843942459
    Total Energy =                       -426.0087084394245949
	 Singles Energy            =      -0.0000000000000000 [Eh]
	 Same-Spin Energy          =      -0.4710472771883190 [Eh]
	 Opposite-Spin Energy      =      -1.5940946010810630 [Eh]
	 Correlation Energy        =      -2.0651418782693822 [Eh]
	 Total Energy              =    -428.0738503176939957 [Eh]
	 SCS Total Energy          =    -428.0786377197846377 [Eh]
    Molecular point group: c1

    Geometry (in Angstrom), charge = 0, multiplicity = 1:

       Center              X                  Y                   Z               Mass
    ------------   -----------------  -----------------  -----------------  -----------------
         C            0.777699549379     0.890627592671    -1.618140638613    12.000000000000
         H            1.449630549379     1.702390592671    -1.374028638613     1.007825032230
         C            1.249807549379    -0.420454407329    -1.645243638613    12.000000000000
         H            2.287913549379    -0.626154407329    -1.421420638613     1.007825032230
         C            0.384391549379    -1.466153407329    -1.961862638613    12.000000000000
         H            0.750342549379    -2.483696407329    -1.982075638613     1.007825032230
         C           -0.952778450621    -1.200588407329    -2.252253638613    12.000000000000
         H           -1.624304450621    -2.012177407329    -2.496905638613     1.007825032230
         C           -1.424910450621     0.110789592671    -2.225854638613    12.000000000000
         H           -2.462529450621     0.316685592671    -2.450598638613     1.007825032230
         C           -0.559751450621     1.156407592671    -1.908318638613    12.000000000000
         H           -0.925544450621     2.174094592671    -1.888053638613     1.007825032230
         C           -0.745184450621    -0.693577407329     1.755805361387    12.000000000000
         H           -0.851438450621    -0.518627407329     0.683498361387     1.007825032230
         H           -1.396822450621    -1.522840407329     2.028955361387     1.007825032230
         C            0.724356549379    -0.950640407329     2.099935361387    12.000000000000
         H            1.219587549379    -1.588225407329     1.369350361387     1.007825032230
         H            0.787635549379    -1.450853407329     3.067401361387     1.007825032230
         C            1.364493549379     0.454756592671     2.190887361387    12.000000000000
         H            2.014761549379     0.647427592671     1.339034361387     1.007825032230
         H            1.977360549379     0.543925592671     3.086613361387     1.007825032230
         C            0.185447549379     1.453933592671     2.217759361387    12.000000000000
         H            0.068295549379     1.912903592671     1.235474361387     1.007825032230
         H            0.331040549379     2.255438592671     2.940158361387     1.007825032230
         C           -1.048324450621     0.596838592671     2.513408361387    12.000000000000
         H           -1.979312450621     1.072575592671     2.207495361387     1.007825032230
         H           -1.113750450621     0.387517592671     3.583944361387     1.007825032230

  Charge       = 0
  Multiplicity = 1
  Basis Set: AUG-CC-PVQZ
    Blend: AUG-CC-PVQZ
  Basis Set: (AUG-CC-PVQZ AUX)
    Blend: AUG-CC-PVQZ-JKFIT

    Orbital Energies [Eh]
    ---------------------

    Doubly Occupied:

       1A    -11.237141     2A    -11.236564     3A    -11.236536
       4A    -11.235332     5A    -11.235287     6A    -11.234688
       7A    -11.203432     8A    -11.202628     9A    -11.201891
      10A    -11.201660    11A    -11.198012    12A     -1.152446
      13A     -1.108920    14A     -1.016786    15A     -1.016725
      16A     -0.949551    17A     -0.948754    18A     -0.826168
      19A     -0.826147    20A     -0.769274    21A     -0.760518
      22A     -0.711965    23A     -0.646256    24A     -0.643791
      25A     -0.637662    26A     -0.621250    27A     -0.590321
      28A     -0.590289    29A     -0.563513    30A     -0.562004
      31A     -0.506494    32A     -0.497040    33A     -0.497026
      34A     -0.468214    35A     -0.466953    36A     -0.457144
      37A     -0.451764    38A     -0.450435    39A     -0.442775
      40A     -0.339362    41A     -0.339224

  @DF-RHF Final Energy:  -426.03314961415003

   => Energetics <=

    Nuclear Repulsion Energy =            589.2379114255254535
    One-Electron Energy =               -1743.9782311416674929
    Two-Electron Energy =                 728.7071701019920056
    Total Energy =                       -426.0331496141500338

  Dipole Moment: [D]
     X:    -0.0711      Y:    -0.0599      Z:    -0.2869     Total:     0.3016

  Basis Set: (AUG-CC-PVQZ AUX)
    Blend: AUG-CC-PVQZ-RI
	 Reference Energy          =    -426.0331496141500338 [Eh]
	 Singles Energy            =      -0.0000000000000000 [Eh]
	 Same-Spin Energy          =      -0.4970720671719605 [Eh]
	 Opposite-Spin Energy      =      -1.7739505057287193 [Eh]
	 Correlation Energy        =      -2.2710225729006797 [Eh]
	 Total Energy              =    -428.3041721870507104 [Eh]

	 ================> DF-SCS-MP2 Energies <==================
	-----------------------------------------------------------
	 SCS Same-Spin Scale       =       0.3333333333333333 [-]
	 SCS Opposite-Spin Scale   =       1.2000000000000000 [-]
	 SCS Same-Spin Energy      =      -0.1656906890573202 [Eh]
	 SCS Opposite-Spin Energy  =      -2.1287406068744632 [Eh]
	 SCS Correlation Energy    =      -2.2944312959317834 [Eh]
	 SCS Total Energy          =    -428.3275809100817924 [Eh]
	-----------------------------------------------------------

*** Psi4 exiting successfully. Buy a developer a beer!
