                               Psi4 1.4a2.dev224

  ==> Input File <==

--------------------------------------------------------------------------
#Generated by lconvert.py for cbs job

memory 40 GB

molecule  {
0 1
  C        0.7655450     0.8682440     0.8209910
  H        1.4374760     1.6800070     1.0651030
  C        1.2376530    -0.4428380     0.7938880
  H        2.2757590    -0.6485380     1.0177110
  C        0.3722370    -1.4885370     0.4772690
  H        0.7381880    -2.5060800     0.4570560
  C       -0.9649330    -1.2229720     0.1868780
  H       -1.6364590    -2.0345610    -0.0577740
  C       -1.4370650     0.0884060     0.2132770
  H       -2.4746840     0.2943020    -0.0114670
  C       -0.5719060     1.1340240     0.5308130
  H       -0.9376990     2.1517110     0.5510780
--
0 1
  C       -0.7720640    -0.7420030     3.8695440
  H       -0.8783180    -0.5670540     2.7972370
  H       -1.4237010    -1.5712670     4.1426950
  C        0.6974770    -0.9990660     4.2136740
  H        1.1927080    -1.6366510     3.4830900
  H        0.7607560    -1.4992800     5.1811410
  C        1.3376140     0.4063310     4.3046270
  H        1.9878830     0.5990020     3.4527740
  H        1.9504820     0.4955000     5.2003520
  C        0.1585680     1.4055080     4.3314990
  H        0.0414170     1.8644780     3.3492140
  H        0.3041620     2.2070130     5.0538980
  C       -1.0752040     0.5484130     4.6271480
  H       -2.0061920     1.0241500     4.3212350
  H       -1.1406290     0.3390920     5.6976830
units angstrom
no_reorient
symmetry c1
}

set {
scf_type DF
mp2_type DF
e_convergence 7
reference rhf
}

energy('mp2/aug-cc-pv[tq]z', bsse_type='cp')
--------------------------------------------------------------------------

    Molecular point group: c1
  Charge       = 0
  Multiplicity = 1
  Basis Set: AUG-CC-PVTZ
    Blend: AUG-CC-PVTZ
  Basis Set: (AUG-CC-PVTZ AUX)
    Blend: AUG-CC-PVTZ-JKFIT
  @DF-RHF Final Energy:  -195.23008543870731
    Total Energy =                       -195.2300854387073059
  Basis Set: (AUG-CC-PVTZ AUX)
    Blend: AUG-CC-PVTZ-RI
	 Reference Energy          =    -195.2300854387073059 [Eh]
	 Singles Energy            =      -0.0000000000000000 [Eh]
	 Same-Spin Energy          =      -0.2105086269643460 [Eh]
	 Opposite-Spin Energy      =      -0.7664607674877084 [Eh]
	 Correlation Energy        =      -0.9769693944520544 [Eh]
	 Total Energy              =    -196.2070548331593614 [Eh]
	 SCS Total Energy          =    -196.2200079020140038 [Eh]
    Molecular point group: c1
  Basis Set: AUG-CC-PVQZ
    Blend: AUG-CC-PVQZ
  Basis Set: (AUG-CC-PVQZ AUX)
    Blend: AUG-CC-PVQZ-JKFIT
  @DF-RHF Final Energy:  -195.24157231791452
    Total Energy =                       -195.2415723179145175
  Basis Set: (AUG-CC-PVQZ AUX)
  @DF-RHF Final Energy:  -195.23014837371676
    Total Energy =                       -195.2301483737167587
  @DF-RHF Final Energy:  -195.24159192732432
    Total Energy =                       -195.2415919273243219
  @DF-RHF Final Energy:  -230.78155518060848
    Total Energy =                       -230.7815551806084500
  @DF-RHF Final Energy:  -230.79449051908460
    Total Energy =                       -230.7944905190846043
  @DF-RHF Final Energy:  -230.78124001186211
    Total Energy =                       -230.7812400118621099
  @DF-RHF Final Energy:  -230.79441416335999
    Total Energy =                       -230.7944141633599884
  Multiplicity = 1
  @DF-RHF Final Energy:  -426.00330824623768
    Total Energy =                       -426.0033082462376797
	 Singles Energy            =      -0.0000000000000000 [Eh]
	 Same-Spin Energy          =      -0.4739672340003054 [Eh]
	 Opposite-Spin Energy      =      -1.5986159058374558 [Eh]
	 Correlation Energy        =      -2.0725831398377612 [Eh]
	 Total Energy              =    -428.0758913860754546 [Eh]
	 SCS Total Energy          =    -428.0796364112427455 [Eh]
    Molecular point group: c1

    Geometry (in Angstrom), charge = 0, multiplicity = 1:

       Center              X                  Y                   Z               Mass
    ------------   -----------------  -----------------  -----------------  -----------------
         C            0.784665927722     0.902948121602    -1.464197022180    12.000000000000
         H            1.456596927722     1.714711121602    -1.220085022180     1.007825032230
         C            1.256773927722    -0.408133878398    -1.491300022180    12.000000000000
         H            2.294879927722    -0.613833878398    -1.267477022180     1.007825032230
         C            0.391357927722    -1.453832878398    -1.807919022180    12.000000000000
         H            0.757308927722    -2.471375878398    -1.828132022180     1.007825032230
         C           -0.945812072278    -1.188267878398    -2.098310022180    12.000000000000
         H           -1.617338072278    -1.999856878398    -2.342962022180     1.007825032230
         C           -1.417944072278     0.123110121602    -2.071911022180    12.000000000000
         H           -2.455563072278     0.329006121602    -2.296655022180     1.007825032230
         C           -0.552785072278     1.168728121602    -1.754375022180    12.000000000000
         H           -0.918578072278     2.186415121602    -1.734110022180     1.007825032230
         C           -0.752943072278    -0.707298878398     1.584355977820    12.000000000000
         H           -0.859197072278    -0.532349878398     0.512048977820     1.007825032230
         H           -1.404580072278    -1.536562878398     1.857506977820     1.007825032230
         C            0.716597927722    -0.964361878398     1.928485977820    12.000000000000
         H            1.211828927722    -1.601946878398     1.197901977820     1.007825032230
         H            0.779876927722    -1.464575878398     2.895952977820     1.007825032230
         C            1.356734927722     0.441035121602     2.019438977820    12.000000000000
         H            2.007003927722     0.633706121602     1.167585977820     1.007825032230
         H            1.969602927722     0.530204121602     2.915163977820     1.007825032230
         C            0.177688927722     1.440212121602     2.046310977820    12.000000000000
         H            0.060537927722     1.899182121602     1.064025977820     1.007825032230
         H            0.323282927722     2.241717121602     2.768709977820     1.007825032230
         C           -1.056083072278     0.583117121602     2.341959977820    12.000000000000
         H           -1.987071072278     1.058854121602     2.036046977820     1.007825032230
         H           -1.121508072278     0.373796121602     3.412494977820     1.007825032230

  Charge       = 0
  Multiplicity = 1
  Basis Set: AUG-CC-PVQZ
    Blend: AUG-CC-PVQZ
  Basis Set: (AUG-CC-PVQZ AUX)
    Blend: AUG-CC-PVQZ-JKFIT

    Orbital Energies [Eh]
    ---------------------

    Doubly Occupied:

       1A    -11.237167     2A    -11.236549     3A    -11.236515
       4A    -11.235355     5A    -11.235253     6A    -11.234650
       7A    -11.202493     8A    -11.201394     9A    -11.200669
      10A    -11.200374    11A    -11.195363    12A     -1.153162
      13A     -1.107666    14A     -1.017319    15A     -1.017225
      16A     -0.948521    17A     -0.947632    18A     -0.826607
      19A     -0.826585    20A     -0.768305    21A     -0.759660
      22A     -0.712592    23A     -0.646690    24A     -0.643872
      25A     -0.636619    26A     -0.621527    27A     -0.590819
      28A     -0.590701    29A     -0.562677    30A     -0.561868
      31A     -0.507956    32A     -0.497331    33A     -0.497297
      34A     -0.467099    35A     -0.465650    36A     -0.456126
      37A     -0.450470    38A     -0.446590    39A     -0.441708
      40A     -0.339573    41A     -0.339243

  @DF-RHF Final Energy:  -426.02769848450379

   => Energetics <=

    Nuclear Repulsion Energy =            603.2024369889619493
    One-Electron Energy =               -1771.9305134541687039
    Two-Electron Energy =                 742.7003779807031378
    Total Energy =                       -426.0276984845037305

  Dipole Moment: [D]
     X:    -0.0640      Y:    -0.0616      Z:    -0.3159     Total:     0.3282

  Basis Set: (AUG-CC-PVQZ AUX)
    Blend: AUG-CC-PVQZ-RI
	 Reference Energy          =    -426.0276984845037873 [Eh]
	 Singles Energy            =      -0.0000000000000000 [Eh]
	 Same-Spin Energy          =      -0.4999058058622007 [Eh]
	 Opposite-Spin Energy      =      -1.7775817698251852 [Eh]
	 Correlation Energy        =      -2.2774875756873860 [Eh]
	 Total Energy              =    -428.3051860601911471 [Eh]

	 ================> DF-SCS-MP2 Energies <==================
	-----------------------------------------------------------
	 SCS Same-Spin Scale       =       0.3333333333333333 [-]
	 SCS Opposite-Spin Scale   =       1.2000000000000000 [-]
	 SCS Same-Spin Energy      =      -0.1666352686207336 [Eh]
	 SCS Opposite-Spin Energy  =      -2.1330981237902220 [Eh]
	 SCS Correlation Energy    =      -2.2997333924109555 [Eh]
	 SCS Total Energy          =    -428.3274318769147158 [Eh]
	-----------------------------------------------------------

*** Psi4 exiting successfully. Buy a developer a beer!
