                               Psi4 1.4a2.dev224

  ==> Input File <==

--------------------------------------------------------------------------
#Generated by lconvert.py for cbs job

memory 40 GB

molecule  {
0 1
  C        0.7655450     0.8682440     0.8209910
  H        1.4374760     1.6800070     1.0651030
  C        1.2376530    -0.4428380     0.7938880
  H        2.2757590    -0.6485380     1.0177110
  C        0.3722370    -1.4885370     0.4772690
  H        0.7381880    -2.5060800     0.4570560
  C       -0.9649330    -1.2229720     0.1868780
  H       -1.6364590    -2.0345610    -0.0577740
  C       -1.4370650     0.0884060     0.2132770
  H       -2.4746840     0.2943020    -0.0114670
  C       -0.5719060     1.1340240     0.5308130
  H       -0.9376990     2.1517110     0.5510780
--
0 1
  C       -0.7791840    -0.7545960     3.7121960
  H       -0.8854380    -0.5796470     2.6398890
  H       -1.4308220    -1.5838600     3.9853460
  C        0.6903570    -1.0116590     4.0563250
  H        1.1855880    -1.6492440     3.3257410
  H        0.7536360    -1.5118730     5.0237920
  C        1.3304940     0.3937380     4.1472780
  H        1.9807620     0.5864080     3.2954250
  H        1.9433610     0.4829070     5.0430040
  C        0.1514480     1.3929150     4.1741500
  H        0.0342960     1.8518850     3.1918650
  H        0.2970410     2.1944190     4.8965490
  C       -1.0823240     0.5358190     4.4697990
  H       -2.0133120     1.0115570     4.1638860
  H       -1.1477500     0.3264980     5.5403340
units angstrom
no_reorient
symmetry c1
}

set {
scf_type DF
mp2_type DF
e_convergence 7
reference rhf
}

energy('mp2/aug-cc-pv[tq]z', bsse_type='cp')
--------------------------------------------------------------------------

    Molecular point group: c1
  Charge       = 0
  Multiplicity = 1
  Basis Set: AUG-CC-PVTZ
    Blend: AUG-CC-PVTZ
  Basis Set: (AUG-CC-PVTZ AUX)
    Blend: AUG-CC-PVTZ-JKFIT
  @DF-RHF Final Energy:  -195.23008544239616
    Total Energy =                       -195.2300854423961596
  Basis Set: (AUG-CC-PVTZ AUX)
    Blend: AUG-CC-PVTZ-RI
	 Reference Energy          =    -195.2300854423961596 [Eh]
	 Singles Energy            =      -0.0000000000000000 [Eh]
	 Same-Spin Energy          =      -0.2105086338016580 [Eh]
	 Opposite-Spin Energy      =      -0.7664607663764536 [Eh]
	 Correlation Energy        =      -0.9769694001781115 [Eh]
	 Total Energy              =    -196.2070548425742800 [Eh]
	 SCS Total Energy          =    -196.2200079066484477 [Eh]
    Molecular point group: c1
  Basis Set: AUG-CC-PVQZ
    Blend: AUG-CC-PVQZ
  Basis Set: (AUG-CC-PVQZ AUX)
    Blend: AUG-CC-PVQZ-JKFIT
  @DF-RHF Final Energy:  -195.24157232330322
    Total Energy =                       -195.2415723233032168
  Basis Set: (AUG-CC-PVQZ AUX)
  @DF-RHF Final Energy:  -195.23015828116155
    Total Energy =                       -195.2301582811615503
  @DF-RHF Final Energy:  -195.24159430071015
    Total Energy =                       -195.2415943007101475
  @DF-RHF Final Energy:  -230.78159813697383
    Total Energy =                       -230.7815981369738552
  @DF-RHF Final Energy:  -230.79449737000419
    Total Energy =                       -230.7944973700041942
  @DF-RHF Final Energy:  -230.78124001141896
    Total Energy =                       -230.7812400114189586
  @DF-RHF Final Energy:  -230.79441416519543
    Total Energy =                       -230.7944141651954624
  Multiplicity = 1
  @DF-RHF Final Energy:  -425.99809339338793
    Total Energy =                       -425.9980933933878759
	 Singles Energy            =      -0.0000000000000000 [Eh]
	 Same-Spin Energy          =      -0.4759732572160724 [Eh]
	 Opposite-Spin Energy      =      -1.6016632665532800 [Eh]
	 Correlation Energy        =      -2.0776365237693524 [Eh]
	 Total Energy              =    -428.0757299171572754 [Eh]
	 SCS Total Energy          =    -428.0787470656572395 [Eh]
    Molecular point group: c1

    Geometry (in Angstrom), charge = 0, multiplicity = 1:

       Center              X                  Y                   Z               Mass
    ------------   -----------------  -----------------  -----------------  -----------------
         C            0.788034451022     0.908905989856    -1.389755073369    12.000000000000
         H            1.459965451022     1.720668989856    -1.145643073369     1.007825032230
         C            1.260142451022    -0.402176010144    -1.416858073369    12.000000000000
         H            2.298248451022    -0.607876010144    -1.193035073369     1.007825032230
         C            0.394726451022    -1.447875010144    -1.733477073369    12.000000000000
         H            0.760677451022    -2.465418010144    -1.753690073369     1.007825032230
         C           -0.942443548978    -1.182310010144    -2.023868073369    12.000000000000
         H           -1.613969548978    -1.993899010144    -2.268520073369     1.007825032230
         C           -1.414575548978     0.129067989856    -1.997469073369    12.000000000000
         H           -2.452194548978     0.334963989856    -2.222213073369     1.007825032230
         C           -0.549416548978     1.174685989856    -1.679933073369    12.000000000000
         H           -0.915209548978     2.192372989856    -1.659668073369     1.007825032230
         C           -0.756694548978    -0.713934010144     1.501449926631    12.000000000000
         H           -0.862948548978    -0.538985010144     0.429142926631     1.007825032230
         H           -1.408332548978    -1.543198010144     1.774599926631     1.007825032230
         C            0.712846451022    -0.970997010144     1.845578926631    12.000000000000
         H            1.208077451022    -1.608582010144     1.114994926631     1.007825032230
         H            0.776125451022    -1.471211010144     2.813045926631     1.007825032230
         C            1.352983451022     0.434399989856     1.936531926631    12.000000000000
         H            2.003251451022     0.627069989856     1.084678926631     1.007825032230
         H            1.965850451022     0.523568989856     2.832257926631     1.007825032230
         C            0.173937451022     1.433576989856     1.963403926631    12.000000000000
         H            0.056785451022     1.892546989856     0.981118926631     1.007825032230
         H            0.319530451022     2.235080989856     2.685802926631     1.007825032230
         C           -1.059834548978     0.576480989856     2.259052926631    12.000000000000
         H           -1.990822548978     1.052218989856     1.953139926631     1.007825032230
         H           -1.125260548978     0.367159989856     3.329587926631     1.007825032230

  Charge       = 0
  Multiplicity = 1
  Basis Set: AUG-CC-PVQZ
    Blend: AUG-CC-PVQZ
  Basis Set: (AUG-CC-PVQZ AUX)
    Blend: AUG-CC-PVQZ-JKFIT

    Orbital Energies [Eh]
    ---------------------

    Doubly Occupied:

       1A    -11.237128     2A    -11.236448     3A    -11.236375
       4A    -11.235294     5A    -11.235120     6A    -11.234488
       7A    -11.201969     8A    -11.200652     9A    -11.199971
      10A    -11.199640    11A    -11.193637    12A     -1.153744
      13A     -1.106976    14A     -1.017758    15A     -1.017554
      16A     -0.948008    17A     -0.947061    18A     -0.826916
      19A     -0.826900    20A     -0.767909    21A     -0.759265
      22A     -0.713078    23A     -0.646985    24A     -0.644390
      25A     -0.636075    26A     -0.621689    27A     -0.591163
      28A     -0.590933    29A     -0.562477    30A     -0.561991
      31A     -0.508681    32A     -0.497495    33A     -0.497441
      34A     -0.466526    35A     -0.464956    36A     -0.455592
      37A     -0.449764    38A     -0.444421    39A     -0.440641
      40A     -0.339513    41A     -0.338917

  @DF-RHF Final Energy:  -426.02244381115236

   => Energetics <=

    Nuclear Repulsion Energy =            610.6184346545337576
    One-Electron Energy =               -1786.7706620552517052
    Two-Electron Energy =                 750.1297835895655908
    Total Energy =                       -426.0224438111523568

  Dipole Moment: [D]
     X:    -0.0547      Y:    -0.0602      Z:    -0.3252     Total:     0.3352

  Basis Set: (AUG-CC-PVQZ AUX)
    Blend: AUG-CC-PVQZ-RI
	 Reference Energy          =    -426.0224438111523568 [Eh]
	 Singles Energy            =      -0.0000000000000000 [Eh]
	 Same-Spin Energy          =      -0.5018613784205769 [Eh]
	 Opposite-Spin Energy      =      -1.7800692572458041 [Eh]
	 Correlation Energy        =      -2.2819306356663809 [Eh]
	 Total Energy              =    -428.3043744468187128 [Eh]

	 ================> DF-SCS-MP2 Energies <==================
	-----------------------------------------------------------
	 SCS Same-Spin Scale       =       0.3333333333333333 [-]
	 SCS Opposite-Spin Scale   =       1.2000000000000000 [-]
	 SCS Same-Spin Energy      =      -0.1672871261401923 [Eh]
	 SCS Opposite-Spin Energy  =      -2.1360831086949648 [Eh]
	 SCS Correlation Energy    =      -2.3033702348351572 [Eh]
	 SCS Total Energy          =    -428.3258140459874994 [Eh]
	-----------------------------------------------------------

*** Psi4 exiting successfully. Buy a developer a beer!
