                               Psi4 1.4a2.dev224

  ==> Input File <==

--------------------------------------------------------------------------
#Generated by lconvert.py for cbs job

memory 40 GB

molecule  {
0 1
  C        0.7655450     0.8682440     0.8209910
  H        1.4374760     1.6800070     1.0651030
  C        1.2376530    -0.4428380     0.7938880
  H        2.2757590    -0.6485380     1.0177110
  C        0.3722370    -1.4885370     0.4772690
  H        0.7381880    -2.5060800     0.4570560
  C       -0.9649330    -1.2229720     0.1868780
  H       -1.6364590    -2.0345610    -0.0577740
  C       -1.4370650     0.0884060     0.2132770
  H       -2.4746840     0.2943020    -0.0114670
  C       -0.5719060     1.1340240     0.5308130
  H       -0.9376990     2.1517110     0.5510780
--
0 1
  C       -0.8051160    -0.8004590     3.1391460
  H       -0.9113700    -0.6255100     2.0668390
  H       -1.4567540    -1.6297230     3.4122960
  C        0.6644250    -1.0575220     3.4832760
  H        1.1596560    -1.6951070     2.7526910
  H        0.7277040    -1.5577360     4.4507420
  C        1.3045620     0.3478740     3.5742280
  H        1.9548310     0.5405450     2.7223750
  H        1.9174290     0.4370440     4.4699540
  C        0.1255160     1.3470510     3.6011000
  H        0.0083650     1.8060220     2.6188150
  H        0.2711100     2.1485560     4.3234990
  C       -1.1082560     0.4899560     3.8967490
  H       -2.0392440     0.9656940     3.5908360
  H       -1.1736810     0.2806350     4.9672850
units angstrom
no_reorient
symmetry c1
}

set {
scf_type DF
mp2_type DF
e_convergence 7
reference rhf
}

energy('mp2/aug-cc-pv[tq]z', bsse_type='cp')
--------------------------------------------------------------------------

    Molecular point group: c1
  Charge       = 0
  Multiplicity = 1
  Basis Set: AUG-CC-PVTZ
    Blend: AUG-CC-PVTZ
  Basis Set: (AUG-CC-PVTZ AUX)
    Blend: AUG-CC-PVTZ-JKFIT
  @DF-RHF Final Energy:  -195.23008541928769
    Total Energy =                       -195.2300854192876898
  Basis Set: (AUG-CC-PVTZ AUX)
    Blend: AUG-CC-PVTZ-RI
	 Reference Energy          =    -195.2300854192876898 [Eh]
	 Singles Energy            =      -0.0000000000000000 [Eh]
	 Same-Spin Energy          =      -0.2105086416717577 [Eh]
	 Opposite-Spin Energy      =      -0.7664607807131647 [Eh]
	 Correlation Energy        =      -0.9769694223849223 [Eh]
	 Total Energy              =    -196.2070548416726012 [Eh]
	 SCS Total Energy          =    -196.2200079033674172 [Eh]
    Molecular point group: c1
  Basis Set: AUG-CC-PVQZ
    Blend: AUG-CC-PVQZ
  Basis Set: (AUG-CC-PVQZ AUX)
    Blend: AUG-CC-PVQZ-JKFIT
  @DF-RHF Final Energy:  -195.24157230098882
    Total Energy =                       -195.2415723009888211
  Basis Set: (AUG-CC-PVQZ AUX)
  @DF-RHF Final Energy:  -195.23021004767037
    Total Energy =                       -195.2302100476703686
  @DF-RHF Final Energy:  -195.24160605992674
    Total Energy =                       -195.2416060599267382
  @DF-RHF Final Energy:  -230.78178781398555
    Total Energy =                       -230.7817878139855452
  @DF-RHF Final Energy:  -230.79452656752881
    Total Energy =                       -230.7945265675288056
  @DF-RHF Final Energy:  -230.78124001206248
    Total Energy =                       -230.7812400120624829
  @DF-RHF Final Energy:  -230.79441416581921
    Total Energy =                       -230.7944141658192052
  Multiplicity = 1
  @DF-RHF Final Energy:  -425.93813451034816
    Total Energy =                       -425.9381345103481635
	 Singles Energy            =      -0.0000000000000000 [Eh]
	 Same-Spin Energy          =      -0.4889290180831442 [Eh]
	 Opposite-Spin Energy      =      -1.6202699214584606 [Eh]
	 Correlation Energy        =      -2.1091989395416046 [Eh]
	 Total Energy              =    -428.0473334498897771 [Eh]
	 SCS Total Energy          =    -428.0454347554593824 [Eh]
    Molecular point group: c1

    Geometry (in Angstrom), charge = 0, multiplicity = 1:

       Center              X                  Y                   Z               Mass
    ------------   -----------------  -----------------  -----------------  -----------------
         C            0.800302891164     0.930604004666    -1.118644362973    12.000000000000
         H            1.472233891164     1.742367004666    -0.874532362973     1.007825032230
         C            1.272410891164    -0.380477995334    -1.145747362973    12.000000000000
         H            2.310516891164    -0.586177995334    -0.921924362973     1.007825032230
         C            0.406994891164    -1.426176995334    -1.462366362973    12.000000000000
         H            0.772945891164    -2.443719995334    -1.482579362973     1.007825032230
         C           -0.930175108836    -1.160611995334    -1.752757362973    12.000000000000
         H           -1.601701108836    -1.972200995334    -1.997409362973     1.007825032230
         C           -1.402307108836     0.150766004666    -1.726358362973    12.000000000000
         H           -2.439926108836     0.356662004666    -1.951102362973     1.007825032230
         C           -0.537148108836     1.196384004666    -1.408822362973    12.000000000000
         H           -0.902941108836     2.214071004666    -1.388557362973     1.007825032230
         C           -0.770358108836    -0.738098995334     1.199510637027    12.000000000000
         H           -0.876612108836    -0.563149995334     0.127203637027     1.007825032230
         H           -1.421996108836    -1.567362995334     1.472660637027     1.007825032230
         C            0.699182891164    -0.995161995334     1.543640637027    12.000000000000
         H            1.194413891164    -1.632746995334     0.813055637027     1.007825032230
         H            0.762461891164    -1.495375995334     2.511106637027     1.007825032230
         C            1.339319891164     0.410234004666     1.634592637027    12.000000000000
         H            1.989588891164     0.602905004666     0.782739637027     1.007825032230
         H            1.952186891164     0.499404004666     2.530318637027     1.007825032230
         C            0.160273891164     1.409411004666     1.661464637027    12.000000000000
         H            0.043122891164     1.868382004666     0.679179637027     1.007825032230
         H            0.305867891164     2.210916004666     2.383863637027     1.007825032230
         C           -1.073498108836     0.552316004666     1.957113637027    12.000000000000
         H           -2.004486108836     1.028054004666     1.651200637027     1.007825032230
         H           -1.138923108836     0.342995004666     3.027649637027     1.007825032230

  Charge       = 0
  Multiplicity = 1
  Basis Set: AUG-CC-PVQZ
    Blend: AUG-CC-PVQZ
  Basis Set: (AUG-CC-PVQZ AUX)
    Blend: AUG-CC-PVQZ-JKFIT

    Orbital Energies [Eh]
    ---------------------

    Doubly Occupied:

       1A    -11.237479     2A    -11.235934     3A    -11.235336
       4A    -11.234160     5A    -11.233193     6A    -11.232324
       7A    -11.199465     8A    -11.197177     9A    -11.196152
      10A    -11.196088    11A    -11.182489    12A     -1.161004
      13A     -1.103410    14A     -1.023604    15A     -1.021221
      16A     -0.946243    17A     -0.944649    18A     -0.830856
      19A     -0.830353    20A     -0.767704    21A     -0.758271
      22A     -0.718194    23A     -0.652887    24A     -0.648802
      25A     -0.634281    26A     -0.623548    27A     -0.593829
      28A     -0.592464    29A     -0.566395    30A     -0.561902
      31A     -0.509625    32A     -0.499180    33A     -0.498764
      34A     -0.464538    35A     -0.462355    36A     -0.453381
      37A     -0.446914    38A     -0.442346    39A     -0.422415
      40A     -0.336104    41A     -0.330856

  @DF-RHF Final Energy:  -425.96230497163742

   => Energetics <=

    Nuclear Repulsion Energy =            642.0620403090841819
    One-Electron Energy =               -1849.5969032532041183
    Two-Electron Energy =                 781.5725579724826275
    Total Energy =                       -425.9623049716374226

  Dipole Moment: [D]
     X:     0.0534      Y:    -0.0273      Z:    -0.3116     Total:     0.3174

  Basis Set: (AUG-CC-PVQZ AUX)
    Blend: AUG-CC-PVQZ-RI
	 Reference Energy          =    -425.9623049716374226 [Eh]
	 Singles Energy            =      -0.0000000000000000 [Eh]
	 Same-Spin Energy          =      -0.5146929042648607 [Eh]
	 Opposite-Spin Energy      =      -1.7965217986329078 [Eh]
	 Correlation Energy        =      -2.3112147028977685 [Eh]
	 Total Energy              =    -428.2735196745351800 [Eh]

	 ================> DF-SCS-MP2 Energies <==================
	-----------------------------------------------------------
	 SCS Same-Spin Scale       =       0.3333333333333333 [-]
	 SCS Opposite-Spin Scale   =       1.2000000000000000 [-]
	 SCS Same-Spin Energy      =      -0.1715643014216202 [Eh]
	 SCS Opposite-Spin Energy  =      -2.1558261583594893 [Eh]
	 SCS Correlation Energy    =      -2.3273904597811095 [Eh]
	 SCS Total Energy          =    -428.2896954314185223 [Eh]
	-----------------------------------------------------------

*** Psi4 exiting successfully. Buy a developer a beer!
