                               Psi4 1.4a2.dev224

  ==> Input File <==

--------------------------------------------------------------------------
#Generated by lconvert.py for cbs job

memory 20 GB

molecule  {
0 1
  C       0.765550    0.868240    0.820990
  H       1.437480    1.680010    1.065100
  C       1.237650   -0.442840    0.793890
  H       2.275760   -0.648540    1.017710
  C       0.372240   -1.488540    0.477270
  H       0.738190   -2.506080    0.457060
  C      -0.964930   -1.222970    0.186880
  H      -1.636460   -2.034560   -0.057770
  C      -1.437070    0.088410    0.213280
  H      -2.474680    0.294300   -0.011470
  C      -0.571910    1.134020    0.530810
  H      -0.937700    2.151710    0.551080
--
0 1
  C      -0.685050   -0.588100    5.792510
  H      -0.791300   -0.413150    4.720200
  H      -1.336680   -1.417370    6.065660
  C       0.784490   -0.845170    6.136640
  H       1.279730   -1.482750    5.406060
  H       0.847770   -1.345380    7.104110
  C       1.424630    0.560230    6.227590
  H       2.074900    0.752900    5.375740
  H       2.037500    0.649400    7.123320
  C       0.245580    1.559410    6.254470
  H       0.128430    2.018380    5.272180
  H       0.391180    2.360910    6.976870
  C      -0.988190    0.702310    6.550120
  H      -1.919180    1.178050    6.244200
  H      -1.053610    0.492990    7.620650
units angstrom
no_reorient
symmetry c1
}

set {
scf_type DF
mp2_type DF
e_convergence 7
reference rhf
}

energy('mp2/aug-cc-pv[tq]z', bsse_type='cp')
--------------------------------------------------------------------------

    Molecular point group: c1
  Charge       = 0
  Multiplicity = 1
  Basis Set: AUG-CC-PVTZ
    Blend: AUG-CC-PVTZ
  Basis Set: (AUG-CC-PVTZ AUX)
    Blend: AUG-CC-PVTZ-JKFIT
  @DF-RHF Final Energy:  -195.23008533818162
    Total Energy =                       -195.2300853381816239
  Basis Set: (AUG-CC-PVTZ AUX)
    Blend: AUG-CC-PVTZ-RI
	 Reference Energy          =    -195.2300853381816239 [Eh]
	 Singles Energy            =      -0.0000000000000000 [Eh]
	 Same-Spin Energy          =      -0.2105085924829872 [Eh]
	 Opposite-Spin Energy      =      -0.7664608522528790 [Eh]
	 Correlation Energy        =      -0.9769694447358662 [Eh]
	 Total Energy              =    -196.2070547829174814 [Eh]
	 SCS Total Energy          =    -196.2200078917127541 [Eh]
    Molecular point group: c1
  Basis Set: AUG-CC-PVQZ
    Blend: AUG-CC-PVQZ
  Basis Set: (AUG-CC-PVQZ AUX)
    Blend: AUG-CC-PVQZ-JKFIT
  @DF-RHF Final Energy:  -195.24157220906412
    Total Energy =                       -195.2415722090641168
  Basis Set: (AUG-CC-PVQZ AUX)
  @DF-RHF Final Energy:  -195.23009487044655
    Total Energy =                       -195.2300948704465497
  @DF-RHF Final Energy:  -195.24157709136279
    Total Energy =                       -195.2415770913627853
  @DF-RHF Final Energy:  -230.78130912010567
    Total Energy =                       -230.7813091201056750
  @DF-RHF Final Energy:  -230.79443368210895
    Total Energy =                       -230.7944336821089450
  @DF-RHF Final Energy:  -230.78123999507645
    Total Energy =                       -230.7812399950764757
  @DF-RHF Final Energy:  -230.79441414499570
    Total Energy =                       -230.7944141449956987
  Multiplicity = 1
  @DF-RHF Final Energy:  -426.01150947873271
    Total Energy =                       -426.0115094787327052
	 Singles Energy            =      -0.0000000000000000 [Eh]
	 Same-Spin Energy          =      -0.4666349366843093 [Eh]
	 Opposite-Spin Energy      =      -1.5863077308018774 [Eh]
	 Correlation Energy        =      -2.0529426674861866 [Eh]
	 Total Energy              =    -428.0644521462189118 [Eh]
	 SCS Total Energy          =    -428.0706237345897307 [Eh]
    Molecular point group: c1

    Geometry (in Angstrom), charge = 0, multiplicity = 1:

       Center              X                  Y                   Z               Mass
    ------------   -----------------  -----------------  -----------------  -----------------
         C            0.743504359352     0.830134642487    -2.373957133726    12.000000000000
         H            1.415434359352     1.641904642487    -2.129847133726     1.007825032230
         C            1.215604359352    -0.480945357513    -2.401057133726    12.000000000000
         H            2.253714359352    -0.686645357513    -2.177237133726     1.007825032230
         C            0.350194359352    -1.526645357513    -2.717677133726    12.000000000000
         H            0.716144359352    -2.544185357513    -2.737887133726     1.007825032230
         C           -0.986975640648    -1.261075357513    -3.008067133726    12.000000000000
         H           -1.658505640648    -2.072665357513    -3.252717133726     1.007825032230
         C           -1.459115640648     0.050304642487    -2.981667133726    12.000000000000
         H           -2.496725640648     0.256194642487    -3.206417133726     1.007825032230
         C           -0.593955640648     1.095914642487    -2.664137133726    12.000000000000
         H           -0.959745640648     2.113604642487    -2.643867133726     1.007825032230
         C           -0.707095640648    -0.626205357513     2.597562866274    12.000000000000
         H           -0.813345640648    -0.451255357513     1.525252866274     1.007825032230
         H           -1.358725640648    -1.455475357513     2.870712866274     1.007825032230
         C            0.762444359352    -0.883275357513     2.941692866274    12.000000000000
         H            1.257684359352    -1.520855357513     2.211112866274     1.007825032230
         H            0.825724359352    -1.383485357513     3.909162866274     1.007825032230
         C            1.402584359352     0.522124642487     3.032642866274    12.000000000000
         H            2.052854359352     0.714794642487     2.180792866274     1.007825032230
         H            2.015454359352     0.611294642487     3.928372866274     1.007825032230
         C            0.223534359352     1.521304642487     3.059522866274    12.000000000000
         H            0.106384359352     1.980274642487     2.077232866274     1.007825032230
         H            0.369134359352     2.322804642487     3.781922866274     1.007825032230
         C           -1.010235640648     0.664204642487     3.355172866274    12.000000000000
         H           -1.941225640648     1.139944642487     3.049252866274     1.007825032230
         H           -1.075655640648     0.454884642487     4.425702866274     1.007825032230

  Charge       = 0
  Multiplicity = 1
  Basis Set: AUG-CC-PVQZ
    Blend: AUG-CC-PVQZ
  Basis Set: (AUG-CC-PVQZ AUX)
    Blend: AUG-CC-PVQZ-JKFIT

    Orbital Energies [Eh]
    ---------------------

    Doubly Occupied:

       1A    -11.236146     2A    -11.235565     3A    -11.235564
       4A    -11.234325     5A    -11.234317     6A    -11.233707
       7A    -11.206333     8A    -11.205873     9A    -11.205470
      10A    -11.205233    11A    -11.204000    12A     -1.150938
      13A     -1.112766    14A     -1.015443    15A     -1.015347
      16A     -0.953066    17A     -0.952425    18A     -0.824898
      19A     -0.824876    20A     -0.773144    21A     -0.763654
      22A     -0.710591    23A     -0.646763    24A     -0.645025
      25A     -0.641133    26A     -0.620073    27A     -0.589065
      28A     -0.588948    29A     -0.566890    30A     -0.565209
      31A     -0.503484    32A     -0.495880    33A     -0.495874
      34A     -0.471734    35A     -0.470730    36A     -0.460406
      37A     -0.457149    38A     -0.455566    39A     -0.445966
      40A     -0.337888    41A     -0.337807

  @DF-RHF Final Energy:  -426.03611534212968

   => Energetics <=

    Nuclear Repulsion Energy =            539.9361997196309630
    One-Electron Energy =               -1645.2860894142484085
    Two-Electron Energy =                 679.3137743524879397
    Total Energy =                       -426.0361153421296194

  Dipole Moment: [D]
     X:    -0.0510      Y:    -0.0346      Z:    -0.1294     Total:     0.1433

  Basis Set: (AUG-CC-PVQZ AUX)
    Blend: AUG-CC-PVQZ-RI
	 Reference Energy          =    -426.0361153421296763 [Eh]
	 Singles Energy            =      -0.0000000000000000 [Eh]
	 Same-Spin Energy          =      -0.4928672436053007 [Eh]
	 Opposite-Spin Energy      =      -1.7685557904766560 [Eh]
	 Correlation Energy        =      -2.2614230340819566 [Eh]
	 Total Energy              =    -428.2975383762116053 [Eh]

	 ================> DF-SCS-MP2 Energies <==================
	-----------------------------------------------------------
	 SCS Same-Spin Scale       =       0.3333333333333333 [-]
	 SCS Opposite-Spin Scale   =       1.2000000000000000 [-]
	 SCS Same-Spin Energy      =      -0.1642890812017669 [Eh]
	 SCS Opposite-Spin Energy  =      -2.1222669485719869 [Eh]
	 SCS Correlation Energy    =      -2.2865560297737537 [Eh]
	 SCS Total Energy          =    -428.3226713719034251 [Eh]
	-----------------------------------------------------------

*** Psi4 exiting successfully. Buy a developer a beer!
