                               Psi4 1.4a2.dev224

  ==> Input File <==

--------------------------------------------------------------------------
#Generated by lconvert.py for cbs job

memory 40 GB

molecule  {
0 1
  C        0.7655450     0.8682440     0.8209910
  H        1.4374760     1.6800070     1.0651030
  C        1.2376530    -0.4428380     0.7938880
  H        2.2757590    -0.6485380     1.0177110
  C        0.3722370    -1.4885370     0.4772690
  H        0.7381880    -2.5060800     0.4570560
  C       -0.9649330    -1.2229720     0.1868780
  H       -1.6364590    -2.0345610    -0.0577740
  C       -1.4370650     0.0884060     0.2132770
  H       -2.4746840     0.2943020    -0.0114670
  C       -0.5719060     1.1340240     0.5308130
  H       -0.9376990     2.1517110     0.5510780
--
0 1
  C       -0.7647720    -0.7291070     4.0306770
  H       -0.8710260    -0.5541580     2.9583700
  H       -1.4164100    -1.5583710     4.3038280
  C        0.7047690    -0.9861700     4.3748070
  H        1.2000000    -1.6237550     3.6442230
  H        0.7680480    -1.4863840     5.3422740
  C        1.3449060     0.4192270     4.4657600
  H        1.9951740     0.6118980     3.6139070
  H        1.9577730     0.5083960     5.3614850
  C        0.1658600     1.4184040     4.4926320
  H        0.0487080     1.8773740     3.5103460
  H        0.3114530     2.2199090     5.2150300
  C       -1.0679120     0.5613090     4.7882810
  H       -1.9989000     1.0370460     4.4823680
  H       -1.1333380     0.3519880     5.8588160
units angstrom
no_reorient
symmetry c1
}

set {
scf_type DF
mp2_type DF
e_convergence 7
reference rhf
}

energy('mp2/aug-cc-pv[tq]z', bsse_type='cp')
--------------------------------------------------------------------------

    Molecular point group: c1
  Charge       = 0
  Multiplicity = 1
  Basis Set: AUG-CC-PVTZ
    Blend: AUG-CC-PVTZ
  Basis Set: (AUG-CC-PVTZ AUX)
    Blend: AUG-CC-PVTZ-JKFIT
  @DF-RHF Final Energy:  -195.23008543977230
    Total Energy =                       -195.2300854397722958
  Basis Set: (AUG-CC-PVTZ AUX)
    Blend: AUG-CC-PVTZ-RI
	 Reference Energy          =    -195.2300854397722958 [Eh]
	 Singles Energy            =      -0.0000000000000000 [Eh]
	 Same-Spin Energy          =      -0.2105086272562374 [Eh]
	 Opposite-Spin Energy      =      -0.7664607656401123 [Eh]
	 Correlation Energy        =      -0.9769693928963498 [Eh]
	 Total Energy              =    -196.2070548326686321 [Eh]
	 SCS Total Energy          =    -196.2200079009591889 [Eh]
    Molecular point group: c1
  Basis Set: AUG-CC-PVQZ
    Blend: AUG-CC-PVQZ
  Basis Set: (AUG-CC-PVQZ AUX)
    Blend: AUG-CC-PVQZ-JKFIT
  @DF-RHF Final Energy:  -195.24157231949681
    Total Energy =                       -195.2415723194968109
  Basis Set: (AUG-CC-PVQZ AUX)
  @DF-RHF Final Energy:  -195.23013963316492
    Total Energy =                       -195.2301396331649244
  @DF-RHF Final Energy:  -195.24158953903384
    Total Energy =                       -195.2415895390338392
  @DF-RHF Final Energy:  -230.78152104680532
    Total Energy =                       -230.7815210468053237
  @DF-RHF Final Energy:  -230.79448305773894
    Total Energy =                       -230.7944830577389439
  @DF-RHF Final Energy:  -230.78124000641526
    Total Energy =                       -230.7812400064152598
  @DF-RHF Final Energy:  -230.79441416612170
    Total Energy =                       -230.7944141661216690
  Multiplicity = 1
  @DF-RHF Final Energy:  -426.00663591109151
    Total Energy =                       -426.0066359110915073
	 Singles Energy            =      -0.0000000000000000 [Eh]
	 Same-Spin Energy          =      -0.4723452399804471 [Eh]
	 Opposite-Spin Energy      =      -1.5961205684247202 [Eh]
	 Correlation Energy        =      -2.0684658084051675 [Eh]
	 Total Energy              =    -428.0751017194966721 [Eh]
	 SCS Total Energy          =    -428.0794290065279597 [Eh]
    Molecular point group: c1

    Geometry (in Angstrom), charge = 0, multiplicity = 1:

       Center              X                  Y                   Z               Mass
    ------------   -----------------  -----------------  -----------------  -----------------
         C            0.781216112616     0.896847005026    -1.540429267971    12.000000000000
         H            1.453147112616     1.708610005026    -1.296317267971     1.007825032230
         C            1.253324112616    -0.414234994974    -1.567532267971    12.000000000000
         H            2.291430112616    -0.619934994974    -1.343709267971     1.007825032230
         C            0.387908112616    -1.459933994974    -1.884151267971    12.000000000000
         H            0.753859112616    -2.477476994974    -1.904364267971     1.007825032230
         C           -0.949261887384    -1.194368994974    -2.174542267971    12.000000000000
         H           -1.620787887384    -2.005957994974    -2.419194267971     1.007825032230
         C           -1.421393887384     0.117009005026    -2.148143267971    12.000000000000
         H           -2.459012887384     0.322905005026    -2.372887267971     1.007825032230
         C           -0.556234887384     1.162627005026    -1.830607267971    12.000000000000
         H           -0.922027887384     2.180314005026    -1.810342267971     1.007825032230
         C           -0.749100887384    -0.700503994974     1.669256732029    12.000000000000
         H           -0.855354887384    -0.525554994974     0.596949732029     1.007825032230
         H           -1.400738887384    -1.529767994974     1.942407732029     1.007825032230
         C            0.720440112616    -0.957566994974     2.013386732029    12.000000000000
         H            1.215671112616    -1.595151994974     1.282802732029     1.007825032230
         H            0.783719112616    -1.457780994974     2.980853732029     1.007825032230
         C            1.360577112616     0.447830005026     2.104339732029    12.000000000000
         H            2.010845112616     0.640501005026     1.252486732029     1.007825032230
         H            1.973444112616     0.536999005026     3.000064732029     1.007825032230
         C            0.181531112616     1.447007005026     2.131211732029    12.000000000000
         H            0.064379112616     1.905977005026     1.148925732029     1.007825032230
         H            0.327124112616     2.248512005026     2.853609732029     1.007825032230
         C           -1.052240887384     0.589912005026     2.426860732029    12.000000000000
         H           -1.983228887384     1.065649005026     2.120947732029     1.007825032230
         H           -1.117666887384     0.380591005026     3.497395732029     1.007825032230

  Charge       = 0
  Multiplicity = 1
  Basis Set: AUG-CC-PVQZ
    Blend: AUG-CC-PVQZ
  Basis Set: (AUG-CC-PVQZ AUX)
    Blend: AUG-CC-PVQZ-JKFIT

    Orbital Energies [Eh]
    ---------------------

    Doubly Occupied:

       1A    -11.237175     2A    -11.236589     3A    -11.236557
       4A    -11.235369     5A    -11.235302     6A    -11.234705
       7A    -11.202979     8A    -11.202049     9A    -11.201307
      10A    -11.201046    11A    -11.196800    12A     -1.152754
      13A     -1.108312    14A     -1.017015    15A     -1.016959
      16A     -0.949039    17A     -0.948200    18A     -0.826368
      19A     -0.826347    20A     -0.768771    21A     -0.760084
      22A     -0.712238    23A     -0.646456    24A     -0.643709
      25A     -0.637149    26A     -0.621387    27A     -0.590540
      28A     -0.590496    29A     -0.563074    30A     -0.561850
      31A     -0.507204    32A     -0.497184    33A     -0.497162
      34A     -0.467666    35A     -0.466321    36A     -0.456646
      37A     -0.451138    38A     -0.448688    39A     -0.442296
      40A     -0.339504    41A     -0.339307

  @DF-RHF Final Energy:  -426.03105551419685

   => Energetics <=

    Nuclear Repulsion Energy =            596.0689808402319159
    One-Electron Energy =               -1757.6525738118859863
    Two-Electron Energy =                 735.5525374574572197
    Total Energy =                       -426.0310555141968507

  Dipole Moment: [D]
     X:    -0.0690      Y:    -0.0613      Z:    -0.3029     Total:     0.3166

  Basis Set: (AUG-CC-PVQZ AUX)
    Blend: AUG-CC-PVQZ-RI
	 Reference Energy          =    -426.0310555141968507 [Eh]
	 Singles Energy            =      -0.0000000000000000 [Eh]
	 Same-Spin Energy          =      -0.4983300025124923 [Eh]
	 Opposite-Spin Energy      =      -1.7755631732818391 [Eh]
	 Correlation Energy        =      -2.2738931757943313 [Eh]
	 Total Energy              =    -428.3049486899911926 [Eh]

	 ================> DF-SCS-MP2 Energies <==================
	-----------------------------------------------------------
	 SCS Same-Spin Scale       =       0.3333333333333333 [-]
	 SCS Opposite-Spin Scale   =       1.2000000000000000 [-]
	 SCS Same-Spin Energy      =      -0.1661100008374974 [Eh]
	 SCS Opposite-Spin Energy  =      -2.1306758079382067 [Eh]
	 SCS Correlation Energy    =      -2.2967858087757040 [Eh]
	 SCS Total Energy          =    -428.3278413229725743 [Eh]
	-----------------------------------------------------------

*** Psi4 exiting successfully. Buy a developer a beer!
