                               Psi4 1.4a2.dev224

  ==> Input File <==

--------------------------------------------------------------------------
#Generated by lconvert.py for cbs job

memory 40 GB

molecule  {
0 1
  C        0.7655450     0.8682440     0.8209910
  H        1.4374760     1.6800070     1.0651030
  C        1.2376530    -0.4428380     0.7938880
  H        2.2757590    -0.6485380     1.0177110
  C        0.3722370    -1.4885370     0.4772690
  H        0.7381880    -2.5060800     0.4570560
  C       -0.9649330    -1.2229720     0.1868780
  H       -1.6364590    -2.0345610    -0.0577740
  C       -1.4370650     0.0884060     0.2132770
  H       -2.4746840     0.2943020    -0.0114670
  C       -0.5719060     1.1340240     0.5308130
  H       -0.9376990     2.1517110     0.5510780
--
0 1
  C       -0.7500320    -0.7030370     4.3564170
  H       -0.8562860    -0.5280880     3.2841100
  H       -1.4016690    -1.5323010     4.6295680
  C        0.7195090    -0.9601000     4.7005470
  H        1.2147400    -1.5976850     3.9699630
  H        0.7827880    -1.4603140     5.6680140
  C        1.3596460     0.4452970     4.7915000
  H        2.0099150     0.6379680     3.9396470
  H        1.9725140     0.5344660     5.6872250
  C        0.1806000     1.4444740     4.8183720
  H        0.0634490     1.9034440     3.8360870
  H        0.3261940     2.2459790     5.5407710
  C       -1.0531720     0.5873790     5.1140210
  H       -1.9841600     1.0631160     4.8081080
  H       -1.1185970     0.3780580     6.1845560
units angstrom
no_reorient
symmetry c1
}

set {
scf_type DF
mp2_type DF
e_convergence 7
reference rhf
}

energy('mp2/aug-cc-pv[tq]z', bsse_type='cp')
--------------------------------------------------------------------------

    Molecular point group: c1
  Charge       = 0
  Multiplicity = 1
  Basis Set: AUG-CC-PVTZ
    Blend: AUG-CC-PVTZ
  Basis Set: (AUG-CC-PVTZ AUX)
    Blend: AUG-CC-PVTZ-JKFIT
  @DF-RHF Final Energy:  -195.23008543694345
    Total Energy =                       -195.2300854369434546
  Basis Set: (AUG-CC-PVTZ AUX)
    Blend: AUG-CC-PVTZ-RI
	 Reference Energy          =    -195.2300854369434546 [Eh]
	 Singles Energy            =      -0.0000000000000000 [Eh]
	 Same-Spin Energy          =      -0.2105086269647681 [Eh]
	 Opposite-Spin Energy      =      -0.7664607674885998 [Eh]
	 Correlation Energy        =      -0.9769693944533679 [Eh]
	 Total Energy              =    -196.2070548313968175 [Eh]
	 SCS Total Energy          =    -196.2200079002513746 [Eh]
    Molecular point group: c1
  Basis Set: AUG-CC-PVQZ
    Blend: AUG-CC-PVQZ
  Basis Set: (AUG-CC-PVQZ AUX)
    Blend: AUG-CC-PVQZ-JKFIT
  @DF-RHF Final Energy:  -195.24157231851501
    Total Energy =                       -195.2415723185150114
  Basis Set: (AUG-CC-PVQZ AUX)
  @DF-RHF Final Energy:  -195.23012498725751
    Total Energy =                       -195.2301249872575113
  @DF-RHF Final Energy:  -195.24158538873070
    Total Energy =                       -195.2415853887306980
  @DF-RHF Final Energy:  -230.78147183592631
    Total Energy =                       -230.7814718359263111
  @DF-RHF Final Energy:  -230.79446789917247
    Total Energy =                       -230.7944678991724459
  @DF-RHF Final Energy:  -230.78124000662325
    Total Energy =                       -230.7812400066232499
  @DF-RHF Final Energy:  -230.79441416348536
    Total Energy =                       -230.7944141634853281
  Multiplicity = 1
  @DF-RHF Final Energy:  -426.00993575996716
    Total Energy =                       -426.0099357599672203
	 Singles Energy            =      -0.0000000000000000 [Eh]
	 Same-Spin Energy          =      -0.4700453499178308 [Eh]
	 Opposite-Spin Energy      =      -1.5924936330356037 [Eh]
	 Correlation Energy        =      -2.0625389829534342 [Eh]
	 Total Energy              =    -428.0724747429205763 [Eh]
	 SCS Total Energy          =    -428.0776099029158104 [Eh]
    Molecular point group: c1

    Geometry (in Angstrom), charge = 0, multiplicity = 1:

       Center              X                  Y                   Z               Mass
    ------------   -----------------  -----------------  -----------------  -----------------
         C            0.774242556103     0.884513249666    -1.694537354887    12.000000000000
         H            1.446173556103     1.696276249666    -1.450425354887     1.007825032230
         C            1.246350556103    -0.426568750334    -1.721640354887    12.000000000000
         H            2.284456556103    -0.632268750334    -1.497817354887     1.007825032230
         C            0.380934556103    -1.472267750334    -2.038259354887    12.000000000000
         H            0.746885556103    -2.489810750334    -2.058472354887     1.007825032230
         C           -0.956235443897    -1.206702750334    -2.328650354887    12.000000000000
         H           -1.627761443897    -2.018291750334    -2.573302354887     1.007825032230
         C           -1.428367443897     0.104675249666    -2.302251354887    12.000000000000
         H           -2.465986443897     0.310571249666    -2.526995354887     1.007825032230
         C           -0.563208443897     1.150293249666    -1.984715354887    12.000000000000
         H           -0.929001443897     2.167980249666    -1.964450354887     1.007825032230
         C           -0.741334443897    -0.686767750334     1.840888645113    12.000000000000
         H           -0.847588443897    -0.511818750334     0.768581645113     1.007825032230
         H           -1.392971443897    -1.516031750334     2.114039645113     1.007825032230
         C            0.728206556103    -0.943830750334     2.185018645113    12.000000000000
         H            1.223437556103    -1.581415750334     1.454434645113     1.007825032230
         H            0.791485556103    -1.444044750334     3.152485645113     1.007825032230
         C            1.368343556103     0.461566249666     2.275971645113    12.000000000000
         H            2.018612556103     0.654237249666     1.424118645113     1.007825032230
         H            1.981211556103     0.550735249666     3.171696645113     1.007825032230
         C            0.189297556103     1.460743249666     2.302843645113    12.000000000000
         H            0.072146556103     1.919713249666     1.320558645113     1.007825032230
         H            0.334891556103     2.262248249666     3.025242645113     1.007825032230
         C           -1.044474443897     0.603648249666     2.598492645113    12.000000000000
         H           -1.975462443897     1.079385249666     2.292579645113     1.007825032230
         H           -1.109899443897     0.394327249666     3.669027645113     1.007825032230

  Charge       = 0
  Multiplicity = 1
  Basis Set: AUG-CC-PVQZ
    Blend: AUG-CC-PVQZ
  Basis Set: (AUG-CC-PVQZ AUX)
    Blend: AUG-CC-PVQZ-JKFIT

    Orbital Energies [Eh]
    ---------------------

    Doubly Occupied:

       1A    -11.237071     2A    -11.236496     3A    -11.236474
       4A    -11.235259     5A    -11.235226     6A    -11.234625
       7A    -11.203841     8A    -11.203127     9A    -11.202411
      10A    -11.202202    11A    -11.199017    12A     -1.152202
      13A     -1.109471    14A     -1.016596    15A     -1.016522
      16A     -0.950031    17A     -0.949269    18A     -0.825992
      19A     -0.825972    20A     -0.769773    21A     -0.760934
      22A     -0.711746    23A     -0.646082    24A     -0.644017
      25A     -0.638137    26A     -0.621114    27A     -0.590148
      28A     -0.590087    29A     -0.563945    30A     -0.562270
      31A     -0.505882    32A     -0.496899    33A     -0.496890
      34A     -0.468717    35A     -0.467521    36A     -0.457603
      37A     -0.452334    38A     -0.451795    39A     -0.443205
      40A     -0.339188    41A     -0.339074

  @DF-RHF Final Energy:  -426.03439462000972

   => Energetics <=

    Nuclear Repulsion Energy =            582.9210436943153582
    One-Electron Energy =               -1731.3325317205410556
    Two-Electron Energy =                 722.3770934062159768
    Total Energy =                       -426.0343946200097207

  Dipole Moment: [D]
     X:    -0.0712      Y:    -0.0577      Z:    -0.2696     Total:     0.2847

  Basis Set: (AUG-CC-PVQZ AUX)
    Blend: AUG-CC-PVQZ-RI
	 Reference Energy          =    -426.0343946200097207 [Eh]
	 Singles Energy            =      -0.0000000000000000 [Eh]
	 Same-Spin Energy          =      -0.4961024288173147 [Eh]
	 Opposite-Spin Energy      =      -1.7727082074204139 [Eh]
	 Correlation Energy        =      -2.2688106362377285 [Eh]
	 Total Energy              =    -428.3032052562474519 [Eh]

	 ================> DF-SCS-MP2 Energies <==================
	-----------------------------------------------------------
	 SCS Same-Spin Scale       =       0.3333333333333333 [-]
	 SCS Opposite-Spin Scale   =       1.2000000000000000 [-]
	 SCS Same-Spin Energy      =      -0.1653674762724382 [Eh]
	 SCS Opposite-Spin Energy  =      -2.1272498489044964 [Eh]
	 SCS Correlation Energy    =      -2.2926173251769346 [Eh]
	 SCS Total Energy          =    -428.3270119451866549 [Eh]
	-----------------------------------------------------------

*** Psi4 exiting successfully. Buy a developer a beer!
