                               Psi4 1.4a2.dev224

  ==> Input File <==

--------------------------------------------------------------------------
#Generated by lconvert.py for cbs job

memory 20 GB

molecule  {
0 1
  C       0.765550    0.868240    0.820990
  H       1.437480    1.680010    1.065100
  C       1.237650   -0.442840    0.793890
  H       2.275760   -0.648540    1.017710
  C       0.372240   -1.488540    0.477270
  H       0.738190   -2.506080    0.457060
  C      -0.964930   -1.222970    0.186880
  H      -1.636460   -2.034560   -0.057770
  C      -1.437070    0.088410    0.213280
  H      -2.474680    0.294300   -0.011470
  C      -0.571910    1.134020    0.530810
  H      -0.937700    2.151710    0.551080
--
0 1
  C      -0.646060   -0.519140    6.654170
  H      -0.752310   -0.344190    5.581860
  H      -1.297690   -1.348410    6.927320
  C       0.823490   -0.776200    6.998300
  H       1.318720   -1.413790    6.267710
  H       0.886760   -1.276420    7.965770
  C       1.463620    0.629190    7.089250
  H       2.113890    0.821860    6.237400
  H       2.076490    0.718360    7.984980
  C       0.284580    1.628370    7.116120
  H       0.167420    2.087340    6.133840
  H       0.430170    2.429880    7.838520
  C      -0.949200    0.771280    7.411770
  H      -1.880180    1.247010    7.105860
  H      -1.014620    0.561950    8.482310
units angstrom
no_reorient
symmetry c1
}

set {
scf_type DF
mp2_type DF
e_convergence 7
reference rhf
}

energy('mp2/aug-cc-pv[tq]z', bsse_type='cp')
--------------------------------------------------------------------------

    Molecular point group: c1
  Charge       = 0
  Multiplicity = 1
  Basis Set: AUG-CC-PVTZ
    Blend: AUG-CC-PVTZ
  Basis Set: (AUG-CC-PVTZ AUX)
    Blend: AUG-CC-PVTZ-JKFIT
  @DF-RHF Final Energy:  -195.23008532741582
    Total Energy =                       -195.2300853274158214
  Basis Set: (AUG-CC-PVTZ AUX)
    Blend: AUG-CC-PVTZ-RI
	 Reference Energy          =    -195.2300853274158214 [Eh]
	 Singles Energy            =      -0.0000000000000000 [Eh]
	 Same-Spin Energy          =      -0.2105086168860980 [Eh]
	 Opposite-Spin Energy      =      -0.7664608640067134 [Eh]
	 Correlation Energy        =      -0.9769694808928113 [Eh]
	 Total Energy              =    -196.2070548083086408 [Eh]
	 SCS Total Energy          =    -196.2200079031859161 [Eh]
    Molecular point group: c1
  Basis Set: AUG-CC-PVQZ
    Blend: AUG-CC-PVQZ
  Basis Set: (AUG-CC-PVQZ AUX)
    Blend: AUG-CC-PVQZ-JKFIT
  @DF-RHF Final Energy:  -195.24157220127012
    Total Energy =                       -195.2415722012701167
  Basis Set: (AUG-CC-PVQZ AUX)
  @DF-RHF Final Energy:  -195.23008988545217
    Total Energy =                       -195.2300898854521733
  @DF-RHF Final Energy:  -195.24157495731598
    Total Energy =                       -195.2415749573159758
  @DF-RHF Final Energy:  -230.78128177203956
    Total Energy =                       -230.7812817720395628
  @DF-RHF Final Energy:  -230.79442574195838
    Total Energy =                       -230.7944257419583778
  @DF-RHF Final Energy:  -230.78123999214537
    Total Energy =                       -230.7812399921454016
  @DF-RHF Final Energy:  -230.79441415065818
    Total Energy =                       -230.7944141506581559
  Multiplicity = 1
  @DF-RHF Final Energy:  -426.01143801619196
    Total Energy =                       -426.0114380161919598
	 Singles Energy            =      -0.0000000000000000 [Eh]
	 Same-Spin Energy          =      -0.4662002138948589 [Eh]
	 Opposite-Spin Energy      =      -1.5854733330476436 [Eh]
	 Correlation Energy        =      -2.0516735469425025 [Eh]
	 Total Energy              =    -428.0631115631344414 [Eh]
	 SCS Total Energy          =    -428.0694060871473994 [Eh]
    Molecular point group: c1

    Geometry (in Angstrom), charge = 0, multiplicity = 1:

       Center              X                  Y                   Z               Mass
    ------------   -----------------  -----------------  -----------------  -----------------
         C            0.725056444691     0.797507876727    -2.781607991285    12.000000000000
         H            1.396986444691     1.609277876727    -2.537497991285     1.007825032230
         C            1.197156444691    -0.513572123273    -2.808707991285    12.000000000000
         H            2.235266444691    -0.719272123273    -2.584887991285     1.007825032230
         C            0.331746444691    -1.559272123273    -3.125327991285    12.000000000000
         H            0.697696444691    -2.576812123273    -3.145537991285     1.007825032230
         C           -1.005423555309    -1.293702123273    -3.415717991285    12.000000000000
         H           -1.676953555309    -2.105292123273    -3.660367991285     1.007825032230
         C           -1.477563555309     0.017677876727    -3.389317991285    12.000000000000
         H           -2.515173555309     0.223567876727    -3.614067991285     1.007825032230
         C           -0.612403555309     1.063287876727    -3.071787991285    12.000000000000
         H           -0.978193555309     2.080977876727    -3.051517991285     1.007825032230
         C           -0.686553555309    -0.589872123273     3.051572008715    12.000000000000
         H           -0.792803555309    -0.414922123273     1.979262008715     1.007825032230
         H           -1.338183555309    -1.419142123273     3.324722008715     1.007825032230
         C            0.782996444691    -0.846932123273     3.395702008715    12.000000000000
         H            1.278226444691    -1.484522123273     2.665112008715     1.007825032230
         H            0.846266444691    -1.347152123273     4.363172008715     1.007825032230
         C            1.423126444691     0.558457876727     3.486652008715    12.000000000000
         H            2.073396444691     0.751127876727     2.634802008715     1.007825032230
         H            2.035996444691     0.647627876727     4.382382008715     1.007825032230
         C            0.244086444691     1.557637876727     3.513522008715    12.000000000000
         H            0.126926444691     2.016607876727     2.531242008715     1.007825032230
         H            0.389676444691     2.359147876727     4.235922008715     1.007825032230
         C           -0.989693555309     0.700547876727     3.809172008715    12.000000000000
         H           -1.920673555309     1.176277876727     3.503262008715     1.007825032230
         H           -1.055113555309     0.491217876727     4.879712008715     1.007825032230

  Charge       = 0
  Multiplicity = 1
  Basis Set: AUG-CC-PVQZ
    Blend: AUG-CC-PVQZ
  Basis Set: (AUG-CC-PVQZ AUX)
    Blend: AUG-CC-PVQZ-JKFIT

    Orbital Energies [Eh]
    ---------------------

    Doubly Occupied:

       1A    -11.235819     2A    -11.235239     3A    -11.235238
       4A    -11.233999     5A    -11.233991     6A    -11.233382
       7A    -11.207165     8A    -11.206750     9A    -11.206478
      10A    -11.206141    11A    -11.205388    12A     -1.150592
      13A     -1.113803    14A     -1.015107    15A     -1.015011
      16A     -0.954059    17A     -0.953423    18A     -0.824572
      19A     -0.824550    20A     -0.774253    21A     -0.764554
      22A     -0.710267    23A     -0.647785    24A     -0.644715
      25A     -0.642116    26A     -0.619743    27A     -0.588744
      28A     -0.588627    29A     -0.567881    30A     -0.566286
      31A     -0.503087    32A     -0.495564    33A     -0.495557
      34A     -0.472699    35A     -0.471719    36A     -0.461318
      37A     -0.458394    38A     -0.456585    39A     -0.446876
      40A     -0.337530    41A     -0.337449

  @DF-RHF Final Energy:  -426.03606658100063

   => Energetics <=

    Nuclear Repulsion Energy =            522.0259844252983612
    One-Electron Energy =               -1609.4391904876895296
    Two-Electron Energy =                 661.3771394813903726
    Total Energy =                       -426.0360665810006822

  Dipole Moment: [D]
     X:    -0.0404      Y:    -0.0246      Z:    -0.0826     Total:     0.0952

  Basis Set: (AUG-CC-PVQZ AUX)
    Blend: AUG-CC-PVQZ-RI
	 Reference Energy          =    -426.0360665810006253 [Eh]
	 Singles Energy            =      -0.0000000000000000 [Eh]
	 Same-Spin Energy          =      -0.4924751423527232 [Eh]
	 Opposite-Spin Energy      =      -1.7680252387784408 [Eh]
	 Correlation Energy        =      -2.2605003811311639 [Eh]
	 Total Energy              =    -428.2965669621318057 [Eh]

	 ================> DF-SCS-MP2 Energies <==================
	-----------------------------------------------------------
	 SCS Same-Spin Scale       =       0.3333333333333333 [-]
	 SCS Opposite-Spin Scale   =       1.2000000000000000 [-]
	 SCS Same-Spin Energy      =      -0.1641583807842411 [Eh]
	 SCS Opposite-Spin Energy  =      -2.1216302865341290 [Eh]
	 SCS Correlation Energy    =      -2.2857886673183700 [Eh]
	 SCS Total Energy          =    -428.3218552483189683 [Eh]
	-----------------------------------------------------------

*** Psi4 exiting successfully. Buy a developer a beer!
