                               Psi4 1.4a2.dev224

  ==> Input File <==

--------------------------------------------------------------------------
#Generated by lconvert.py for cbs job

memory 20 GB

molecule  {
0 1
  C       0.311950    0.561020    0.496700
  H       0.742140    1.553370    0.481570
  C       1.142180   -0.558070    0.536060
  H       2.216510   -0.434250    0.552350
  C       0.587800   -1.836690    0.554140
  H       1.231910   -2.704840    0.585220
  C      -0.796660   -1.996380    0.532960
  H      -1.226770   -2.988440    0.548640
  C      -1.626890   -0.877470    0.494170
  H      -2.701120   -1.001350    0.479810
  C      -1.072660    0.401210    0.475970
  H      -1.716970    1.269400    0.445920
--
0 1
  C       0.035510    0.398310    8.177710
  C       1.481760    0.577100    7.722750
  H       1.897610    1.510370    8.106170
  H       2.105160   -0.243520    8.081600
  H       1.542370    0.596490    6.633810
  C      -0.018880    0.366940    9.702570
  H      -1.044670    0.239520   10.051660
  H       0.576520   -0.458750   10.095130
  H       0.369410    1.294820   10.125480
  C      -0.513870   -0.911180    7.617410
  H      -1.548750   -1.061460    7.930080
  H       0.072580   -1.760160    7.973220
  H      -0.485090   -0.911640    6.527100
  C      -0.805860    1.562880    7.661500
  H      -0.784320    1.598910    6.571500
  H      -1.845650    1.459110    7.975980
  H      -0.430210    2.513570    8.043610
units angstrom
no_reorient
symmetry c1
}

set {
scf_type DF
mp2_type DF
e_convergence 7
reference rhf
}

energy('mp2/aug-cc-pv[tq]z', bsse_type='cp')
--------------------------------------------------------------------------

    Molecular point group: c1
  Charge       = 0
  Multiplicity = 1
  Basis Set: AUG-CC-PVTZ
    Blend: AUG-CC-PVTZ
  Basis Set: (AUG-CC-PVTZ AUX)
    Blend: AUG-CC-PVTZ-JKFIT
  @DF-RHF Final Energy:  -196.40449766518742
    Total Energy =                       -196.4044976651874208
  Basis Set: (AUG-CC-PVTZ AUX)
    Blend: AUG-CC-PVTZ-RI
	 Reference Energy          =    -196.4044976651874208 [Eh]
	 Singles Energy            =      -0.0000000000000000 [Eh]
	 Same-Spin Energy          =      -0.2117565818157403 [Eh]
	 Opposite-Spin Energy      =      -0.7978681020817912 [Eh]
	 Correlation Energy        =      -1.0096246838975313 [Eh]
	 Total Energy              =    -197.4141223490849484 [Eh]
	 SCS Total Energy          =    -197.4325249149574972 [Eh]
    Molecular point group: c1
  Basis Set: AUG-CC-PVQZ
    Blend: AUG-CC-PVQZ
  Basis Set: (AUG-CC-PVQZ AUX)
    Blend: AUG-CC-PVQZ-JKFIT
  @DF-RHF Final Energy:  -196.41634251472021
    Total Energy =                       -196.4163425147202133
  Basis Set: (AUG-CC-PVQZ AUX)
  @DF-RHF Final Energy:  -196.40449997648705
    Total Energy =                       -196.4044999764870454
  @DF-RHF Final Energy:  -196.41634354398104
    Total Energy =                       -196.4163435439810428
  @DF-RHF Final Energy:  -230.78127310222030
    Total Energy =                       -230.7812731022203252
  @DF-RHF Final Energy:  -230.79443357696908
    Total Energy =                       -230.7944335769690838
  @DF-RHF Final Energy:  -230.78125095287936
    Total Energy =                       -230.7812509528793612
  @DF-RHF Final Energy:  -230.79442561054697
    Total Energy =                       -230.7944256105469663
  Multiplicity = 1
  @DF-RHF Final Energy:  -427.18582798783740
    Total Energy =                       -427.1858279878373423
	 Singles Energy            =      -0.0000000000000000 [Eh]
	 Same-Spin Energy          =      -0.4672769400864196 [Eh]
	 Opposite-Spin Energy      =      -1.6165290537247392 [Eh]
	 Correlation Energy        =      -2.0838059938111586 [Eh]
	 Total Energy              =    -429.2696339816485533 [Eh]
	 SCS Total Energy          =    -429.2814218323358659 [Eh]
    Molecular point group: c1

    Geometry (in Angstrom), charge = 0, multiplicity = 1:

       Center              X                  Y                   Z               Mass
    ------------   -----------------  -----------------  -----------------  -----------------
         C            0.420813341026     0.742670251285    -3.697122601112    12.000000000000
         H            0.851003341026     1.735020251285    -3.712252601112     1.007825032230
         C            1.251043341026    -0.376419748715    -3.657762601112    12.000000000000
         H            2.325373341026    -0.252599748715    -3.641472601112     1.007825032230
         C            0.696663341026    -1.655039748715    -3.639682601112    12.000000000000
         H            1.340773341026    -2.523189748715    -3.608602601112     1.007825032230
         C           -0.687796658974    -1.814729748715    -3.660862601112    12.000000000000
         H           -1.117906658974    -2.806789748715    -3.645182601112     1.007825032230
         C           -1.518026658974    -0.695819748715    -3.699652601112    12.000000000000
         H           -2.592256658974    -0.819699748715    -3.714012601112     1.007825032230
         C           -0.963796658974     0.582860251285    -3.717852601112    12.000000000000
         H           -1.608106658974     1.451050251285    -3.747902601112     1.007825032230
         C            0.144373341026     0.579960251285     3.983887398888    12.000000000000
         C            1.590623341026     0.758750251285     3.528927398888    12.000000000000
         H            2.006473341026     1.692020251285     3.912347398888     1.007825032230
         H            2.214023341026    -0.061869748715     3.887777398888     1.007825032230
         H            1.651233341026     0.778140251285     2.439987398888     1.007825032230
         C            0.089983341026     0.548590251285     5.508747398888    12.000000000000
         H           -0.935806658974     0.421170251285     5.857837398888     1.007825032230
         H            0.685383341026    -0.277099748715     5.901307398888     1.007825032230
         H            0.478273341026     1.476470251285     5.931657398888     1.007825032230
         C           -0.405006658974    -0.729529748715     3.423587398888    12.000000000000
         H           -1.439886658974    -0.879809748715     3.736257398888     1.007825032230
         H            0.181443341026    -1.578509748715     3.779397398888     1.007825032230
         H           -0.376226658974    -0.729989748715     2.333277398888     1.007825032230
         C           -0.696996658974     1.744530251285     3.467677398888    12.000000000000
         H           -0.675456658974     1.780560251285     2.377677398888     1.007825032230
         H           -1.736786658974     1.640760251285     3.782157398888     1.007825032230
         H           -0.321346658974     2.695220251285     3.849787398888     1.007825032230

  Charge       = 0
  Multiplicity = 1
  Basis Set: AUG-CC-PVQZ
    Blend: AUG-CC-PVQZ
  Basis Set: (AUG-CC-PVQZ AUX)
    Blend: AUG-CC-PVQZ-JKFIT

    Orbital Energies [Eh]
    ---------------------

    Doubly Occupied:

       1A    -11.235533     2A    -11.234959     3A    -11.234946
       4A    -11.233717     5A    -11.233700     6A    -11.233096
       7A    -11.223767     8A    -11.203230     9A    -11.202799
      10A    -11.202780    11A    -11.202537    12A     -1.150361
      13A     -1.104521    14A     -1.014851    15A     -1.014784
      16A     -0.927193    17A     -0.926682    18A     -0.926429
      19A     -0.824341    20A     -0.824293    21A     -0.727813
      22A     -0.710037    23A     -0.644464    24A     -0.619502
      25A     -0.610514    26A     -0.610140    27A     -0.609882
      28A     -0.588470    29A     -0.588413    30A     -0.551502
      31A     -0.551152    32A     -0.507901    33A     -0.507867
      34A     -0.507366    35A     -0.502838    36A     -0.495312
      37A     -0.495303    38A     -0.451238    39A     -0.450419
      40A     -0.450313    41A     -0.337256    42A     -0.337207

  @DF-RHF Final Energy:  -427.21083187531133

   => Energetics <=

    Nuclear Repulsion Energy =            520.8779735897555838
    One-Electron Energy =               -1608.1587593877875406
    Two-Electron Energy =                 660.0699539227206287
    Total Energy =                       -427.2108318753113281

  Dipole Moment: [D]
     X:    -0.0063      Y:    -0.0181      Z:    -0.0552     Total:     0.0584

  Basis Set: (AUG-CC-PVQZ AUX)
    Blend: AUG-CC-PVQZ-RI
	 Reference Energy          =    -427.2108318753113281 [Eh]
	 Singles Energy            =      -0.0000000000000000 [Eh]
	 Same-Spin Energy          =      -0.4935953262655586 [Eh]
	 Opposite-Spin Energy      =      -1.8011178261839402 [Eh]
	 Correlation Energy        =      -2.2947131524494990 [Eh]
	 Total Energy              =    -429.5055450277608315 [Eh]

	 ================> DF-SCS-MP2 Energies <==================
	-----------------------------------------------------------
	 SCS Same-Spin Scale       =       0.3333333333333333 [-]
	 SCS Opposite-Spin Scale   =       1.2000000000000000 [-]
	 SCS Same-Spin Energy      =      -0.1645317754218529 [Eh]
	 SCS Opposite-Spin Energy  =      -2.1613413914207280 [Eh]
	 SCS Correlation Energy    =      -2.3258731668425807 [Eh]
	 SCS Total Energy          =    -429.5367050421539261 [Eh]
	-----------------------------------------------------------

*** Psi4 exiting successfully. Buy a developer a beer!
