                               Psi4 1.4a2.dev224

  ==> Input File <==

--------------------------------------------------------------------------
#Generated by lconvert.py for cbs job

memory 40 GB

molecule  {
0 1
  C        0.3119540     0.5610230     0.4966990
  H        0.7421360     1.5533690     0.4815660
  C        1.1421820    -0.5580750     0.5360620
  H        2.2165110    -0.4342500     0.5523500
  C        0.5878040    -1.8366870     0.5541440
  H        1.2319120    -2.7048420     0.5852220
  C       -0.7966580    -1.9963760     0.5329630
  H       -1.2267740    -2.9884440     0.5486370
  C       -1.6268930    -0.8774740     0.4941680
  H       -2.7011220    -1.0013500     0.4798150
  C       -1.0726650     0.4012060     0.4759740
  H       -1.7169740     1.2694010     0.4459200
--
0 1
  C        0.1578610     0.4960600     5.1469800
  C        1.6041090     0.6748470     4.6920190
  H        2.0199660     1.6081250     5.0754420
  H        2.2275090    -0.1457690     5.0508720
  H        1.6647180     0.6942380     3.6030840
  C        0.1034690     0.4646890     6.6718450
  H       -0.9223210     0.3372680     7.0209330
  H        0.6988750    -0.3609980     7.0643990
  H        0.4917640     1.3925730     7.0947510
  C       -0.3915190    -0.8134320     4.5866840
  H       -1.4263930    -0.9637070     4.8993560
  H        0.1949370    -1.6624060     4.9424950
  H       -0.3627400    -0.8138850     3.4963700
  C       -0.6835120     1.6606310     4.6307750
  H       -0.6619710     1.6966620     3.5407760
  H       -1.7233010     1.5568620     4.9452570
  H       -0.3078600     2.6113260     5.0128810
units angstrom
no_reorient
symmetry c1
}

set {
scf_type DF
mp2_type DF
e_convergence 7
reference rhf
}

energy('mp2/aug-cc-pv[tq]z', bsse_type='cp')
--------------------------------------------------------------------------

    Molecular point group: c1
  Charge       = 0
  Multiplicity = 1
  Basis Set: AUG-CC-PVTZ
    Blend: AUG-CC-PVTZ
  Basis Set: (AUG-CC-PVTZ AUX)
    Blend: AUG-CC-PVTZ-JKFIT
  @DF-RHF Final Energy:  -196.40449761181034
    Total Energy =                       -196.4044976118103136
  Basis Set: (AUG-CC-PVTZ AUX)
    Blend: AUG-CC-PVTZ-RI
	 Reference Energy          =    -196.4044976118103421 [Eh]
	 Singles Energy            =      -0.0000000000000000 [Eh]
	 Same-Spin Energy          =      -0.2117565654919550 [Eh]
	 Opposite-Spin Energy      =      -0.7978681561782397 [Eh]
	 Correlation Energy        =      -1.0096247216701948 [Eh]
	 Total Energy              =    -197.4141223334805488 [Eh]
	 SCS Total Energy          =    -197.4325249210548918 [Eh]
    Molecular point group: c1
  Basis Set: AUG-CC-PVQZ
    Blend: AUG-CC-PVQZ
  Basis Set: (AUG-CC-PVQZ AUX)
    Blend: AUG-CC-PVQZ-JKFIT
  @DF-RHF Final Energy:  -196.41634245525103
    Total Energy =                       -196.4163424552510264
  Basis Set: (AUG-CC-PVQZ AUX)
  @DF-RHF Final Energy:  -196.40452711504136
    Total Energy =                       -196.4045271150413328
  @DF-RHF Final Energy:  -196.41635164831189
    Total Energy =                       -196.4163516483118883
  @DF-RHF Final Energy:  -230.78147430783218
    Total Energy =                       -230.7814743078321840
  @DF-RHF Final Energy:  -230.79447312596136
    Total Energy =                       -230.7944731259613604
  @DF-RHF Final Energy:  -230.78125076622644
    Total Energy =                       -230.7812507662264352
  @DF-RHF Final Energy:  -230.79442541257924
    Total Energy =                       -230.7944254125792440
  Multiplicity = 1
  @DF-RHF Final Energy:  -427.18488565849754
    Total Energy =                       -427.1848856584975920
	 Singles Energy            =      -0.0000000000000000 [Eh]
	 Same-Spin Energy          =      -0.4703541926085909 [Eh]
	 Opposite-Spin Energy      =      -1.6225871429410694 [Eh]
	 Correlation Energy        =      -2.0929413355496602 [Eh]
	 Total Energy              =    -429.2778269940471887 [Eh]
	 SCS Total Energy          =    -429.2887749608963759 [Eh]
    Molecular point group: c1

    Geometry (in Angstrom), charge = 0, multiplicity = 1:

       Center              X                  Y                   Z               Mass
    ------------   -----------------  -----------------  -----------------  -----------------
         C            0.362067675148     0.695736618680    -2.241844550852    12.000000000000
         H            0.792249675148     1.688082618680    -2.256977550852     1.007825032230
         C            1.192295675148    -0.423361381320    -2.202481550852    12.000000000000
         H            2.266624675148    -0.299536381320    -2.186193550852     1.007825032230
         C            0.637917675148    -1.701973381320    -2.184399550852    12.000000000000
         H            1.282025675148    -2.570128381320    -2.153321550852     1.007825032230
         C           -0.746544324852    -1.861662381320    -2.205580550852    12.000000000000
         H           -1.176660324852    -2.853730381320    -2.189906550852     1.007825032230
         C           -1.576779324852    -0.742760381320    -2.244375550852    12.000000000000
         H           -2.651008324852    -0.866636381320    -2.258728550852     1.007825032230
         C           -1.022551324852     0.535919618680    -2.262569550852    12.000000000000
         H           -1.666860324852     1.404114618680    -2.292623550852     1.007825032230
         C            0.207974675148     0.630773618680     2.408436449148    12.000000000000
         C            1.654222675148     0.809560618680     1.953475449148    12.000000000000
         H            2.070079675148     1.742838618680     2.336898449148     1.007825032230
         H            2.277622675148    -0.011055381320     2.312328449148     1.007825032230
         H            1.714831675148     0.828951618680     0.864540449148     1.007825032230
         C            0.153582675148     0.599402618680     3.933301449148    12.000000000000
         H           -0.872207324852     0.471981618680     4.282389449148     1.007825032230
         H            0.748988675148    -0.226284381320     4.325855449148     1.007825032230
         H            0.541877675148     1.527286618680     4.356207449148     1.007825032230
         C           -0.341405324852    -0.678718381320     1.848140449148    12.000000000000
         H           -1.376279324852    -0.828993381320     2.160812449148     1.007825032230
         H            0.245050675148    -1.527692381320     2.203951449148     1.007825032230
         H           -0.312626324852    -0.679171381320     0.757826449148     1.007825032230
         C           -0.633398324852     1.795344618680     1.892231449148    12.000000000000
         H           -0.611857324852     1.831375618680     0.802232449148     1.007825032230
         H           -1.673187324852     1.691575618680     2.206713449148     1.007825032230
         H           -0.257746324852     2.746039618680     2.274337449148     1.007825032230

  Charge       = 0
  Multiplicity = 1
  Basis Set: AUG-CC-PVQZ
    Blend: AUG-CC-PVQZ
  Basis Set: (AUG-CC-PVQZ AUX)
    Blend: AUG-CC-PVQZ-JKFIT

    Orbital Energies [Eh]
    ---------------------

    Doubly Occupied:

       1A    -11.237011     2A    -11.236421     3A    -11.236410
       4A    -11.235188     5A    -11.235166     6A    -11.234549
       7A    -11.219435     8A    -11.199859     9A    -11.198904
      10A    -11.198884    11A    -11.195427    12A     -1.152149
      13A     -1.100105    14A     -1.016498    15A     -1.016488
      16A     -0.923617    17A     -0.922956    18A     -0.920774
      19A     -0.825912    20A     -0.825875    21A     -0.723629
      22A     -0.711614    23A     -0.645945    24A     -0.621071
      25A     -0.606376    26A     -0.605984    27A     -0.605698
      28A     -0.589991    29A     -0.589951    30A     -0.547308
      31A     -0.547113    32A     -0.508407    33A     -0.504281
      34A     -0.503030    35A     -0.499891    36A     -0.496821
      37A     -0.496757    38A     -0.446471    39A     -0.445960
      40A     -0.445322    41A     -0.339071    42A     -0.339042

  @DF-RHF Final Energy:  -427.20971091586364

   => Energetics <=

    Nuclear Repulsion Energy =            587.1778557722707319
    One-Electron Energy =               -1740.8724124499146910
    Two-Electron Energy =                 726.4848457617803206
    Total Energy =                       -427.2097109158636385

  Dipole Moment: [D]
     X:    -0.0433      Y:    -0.1184      Z:    -0.2904     Total:     0.3166

  Basis Set: (AUG-CC-PVQZ AUX)
    Blend: AUG-CC-PVQZ-RI
	 Reference Energy          =    -427.2097109158636385 [Eh]
	 Singles Energy            =      -0.0000000000000000 [Eh]
	 Same-Spin Energy          =      -0.4964804305744723 [Eh]
	 Opposite-Spin Energy      =      -1.8048804114795320 [Eh]
	 Correlation Energy        =      -2.3013608420540042 [Eh]
	 Total Energy              =    -429.5110717579176480 [Eh]

	 ================> DF-SCS-MP2 Energies <==================
	-----------------------------------------------------------
	 SCS Same-Spin Scale       =       0.3333333333333333 [-]
	 SCS Opposite-Spin Scale   =       1.2000000000000000 [-]
	 SCS Same-Spin Energy      =      -0.1654934768581574 [Eh]
	 SCS Opposite-Spin Energy  =      -2.1658564937754385 [Eh]
	 SCS Correlation Energy    =      -2.3313499706335961 [Eh]
	 SCS Total Energy          =    -429.5410608864972346 [Eh]
	-----------------------------------------------------------

*** Psi4 exiting successfully. Buy a developer a beer!
