                               Psi4 1.4a2.dev224

  ==> Input File <==

--------------------------------------------------------------------------
#Generated by lconvert.py for cbs job

memory 20 GB

molecule  {
0 1
  C       0.311950    0.561020    0.496700
  H       0.742140    1.553370    0.481570
  C       1.142180   -0.558070    0.536060
  H       2.216510   -0.434250    0.552350
  C       0.587800   -1.836690    0.554140
  H       1.231910   -2.704840    0.585220
  C      -0.796660   -1.996380    0.532960
  H      -1.226770   -2.988440    0.548640
  C      -1.626890   -0.877470    0.494170
  H      -2.701120   -1.001350    0.479810
  C      -1.072660    0.401210    0.475970
  H      -1.716970    1.269400    0.445920
--
0 1
  C       0.127270    0.471620    5.904660
  C       1.573520    0.650410    5.449700
  H       1.989380    1.583690    5.833120
  H       2.196920   -0.170210    5.808550
  H       1.634130    0.669800    4.360770
  C       0.072880    0.440250    7.429530
  H      -0.952910    0.312830    7.778620
  H       0.668290   -0.385440    7.822080
  H       0.461180    1.368140    7.852430
  C      -0.422110   -0.837870    5.344370
  H      -1.456980   -0.988150    5.657040
  H       0.164350   -1.686840    5.700180
  H      -0.393330   -0.838320    4.254050
  C      -0.714100    1.636190    5.388460
  H      -0.692560    1.672220    4.298460
  H      -1.753890    1.532420    5.702940
  H      -0.338450    2.586890    5.770560
units angstrom
no_reorient
symmetry c1
}

set {
scf_type DF
mp2_type DF
e_convergence 7
reference rhf
}

energy('mp2/aug-cc-pv[tq]z', bsse_type='cp')
--------------------------------------------------------------------------

    Molecular point group: c1
  Charge       = 0
  Multiplicity = 1
  Basis Set: AUG-CC-PVTZ
    Blend: AUG-CC-PVTZ
  Basis Set: (AUG-CC-PVTZ AUX)
    Blend: AUG-CC-PVTZ-JKFIT
  @DF-RHF Final Energy:  -196.40449751816126
    Total Energy =                       -196.4044975181612358
  Basis Set: (AUG-CC-PVTZ AUX)
    Blend: AUG-CC-PVTZ-RI
	 Reference Energy          =    -196.4044975181612642 [Eh]
	 Singles Energy            =      -0.0000000000000000 [Eh]
	 Same-Spin Energy          =      -0.2117565809410234 [Eh]
	 Opposite-Spin Energy      =      -0.7978682374060461 [Eh]
	 Correlation Energy        =      -1.0096248183470695 [Eh]
	 Total Energy              =    -197.4141223365083420 [Eh]
	 SCS Total Energy          =    -197.4325249300288476 [Eh]
    Molecular point group: c1
  Basis Set: AUG-CC-PVQZ
    Blend: AUG-CC-PVQZ
  Basis Set: (AUG-CC-PVQZ AUX)
    Blend: AUG-CC-PVQZ-JKFIT
  @DF-RHF Final Energy:  -196.41634235525814
    Total Energy =                       -196.4163423552581662
  Basis Set: (AUG-CC-PVQZ AUX)
  @DF-RHF Final Energy:  -196.40451332900957
    Total Energy =                       -196.4045133290096032
  @DF-RHF Final Energy:  -196.41634794280029
    Total Energy =                       -196.4163479428003143
  @DF-RHF Final Energy:  -230.78136156029120
    Total Energy =                       -230.7813615602912023
  @DF-RHF Final Energy:  -230.79445464889162
    Total Energy =                       -230.7944546488915876
  @DF-RHF Final Energy:  -230.78125095918327
    Total Energy =                       -230.7812509591832395
  @DF-RHF Final Energy:  -230.79442560689441
    Total Energy =                       -230.7944256068943787
  Multiplicity = 1
  @DF-RHF Final Energy:  -427.18599454270060
    Total Energy =                       -427.1859945427006551
	 Singles Energy            =      -0.0000000000000000 [Eh]
	 Same-Spin Energy          =      -0.4684316863553680 [Eh]
	 Opposite-Spin Energy      =      -1.6189361906170965 [Eh]
	 Correlation Energy        =      -2.0873678769724644 [Eh]
	 Total Energy              =    -429.2733624196730489 [Eh]
	 SCS Total Energy          =    -429.2848618668929248 [Eh]
    Molecular point group: c1

    Geometry (in Angstrom), charge = 0, multiplicity = 1:

       Center              X                  Y                   Z               Mass
    ------------   -----------------  -----------------  -----------------  -----------------
         C            0.376752136729     0.707468277884    -2.605663353536    12.000000000000
         H            0.806942136729     1.699818277884    -2.620793353536     1.007825032230
         C            1.206982136729    -0.411621722116    -2.566303353536    12.000000000000
         H            2.281312136729    -0.287801722116    -2.550013353536     1.007825032230
         C            0.652602136729    -1.690241722116    -2.548223353536    12.000000000000
         H            1.296712136729    -2.558391722116    -2.517143353536     1.007825032230
         C           -0.731857863271    -1.849931722116    -2.569403353536    12.000000000000
         H           -1.161967863271    -2.841991722116    -2.553723353536     1.007825032230
         C           -1.562087863271    -0.731021722116    -2.608193353536    12.000000000000
         H           -2.636317863271    -0.854901722116    -2.622553353536     1.007825032230
         C           -1.007857863271     0.547658277884    -2.626393353536    12.000000000000
         H           -1.652167863271     1.415848277884    -2.656443353536     1.007825032230
         C            0.192072136729     0.618068277884     2.802296646464    12.000000000000
         C            1.638322136729     0.796858277884     2.347336646464    12.000000000000
         H            2.054182136729     1.730138277884     2.730756646464     1.007825032230
         H            2.261722136729    -0.023761722116     2.706186646464     1.007825032230
         H            1.698932136729     0.816248277884     1.258406646464     1.007825032230
         C            0.137682136729     0.586698277884     4.327166646464    12.000000000000
         H           -0.888107863271     0.459278277884     4.676256646464     1.007825032230
         H            0.733092136729    -0.238991722116     4.719716646464     1.007825032230
         H            0.525982136729     1.514588277884     4.750066646464     1.007825032230
         C           -0.357307863271    -0.691421722116     2.242006646464    12.000000000000
         H           -1.392177863271    -0.841701722116     2.554676646464     1.007825032230
         H            0.229152136729    -1.540391722116     2.597816646464     1.007825032230
         H           -0.328527863271    -0.691871722116     1.151686646464     1.007825032230
         C           -0.649297863271     1.782638277884     2.286096646464    12.000000000000
         H           -0.627757863271     1.818668277884     1.196096646464     1.007825032230
         H           -1.689087863271     1.678868277884     2.600576646464     1.007825032230
         H           -0.273647863271     2.733338277884     2.668196646464     1.007825032230

  Charge       = 0
  Multiplicity = 1
  Basis Set: AUG-CC-PVQZ
    Blend: AUG-CC-PVQZ
  Basis Set: (AUG-CC-PVQZ AUX)
    Blend: AUG-CC-PVQZ-JKFIT

    Orbital Energies [Eh]
    ---------------------

    Doubly Occupied:

       1A    -11.236378     2A    -11.235794     3A    -11.235785
       4A    -11.234561     5A    -11.234536     6A    -11.233929
       7A    -11.221294     8A    -11.201325     9A    -11.200526
      10A    -11.200505    11A    -11.198717    12A     -1.151280
      13A     -1.101985    14A     -1.015720    15A     -1.015677
      16A     -0.925095    17A     -0.924442    18A     -0.923247
      19A     -0.825183    20A     -0.825135    21A     -0.725343
      22A     -0.710870    23A     -0.645251    24A     -0.620356
      25A     -0.607952    26A     -0.607601    27A     -0.607454
      28A     -0.589285    29A     -0.589246    30A     -0.549019
      31A     -0.548644    32A     -0.505814    33A     -0.505636
      34A     -0.504895    35A     -0.503160    36A     -0.496126
      37A     -0.496107    38A     -0.448371    39A     -0.448112
      40A     -0.447819    41A     -0.338195    42A     -0.338188

  @DF-RHF Final Energy:  -427.21092084435276

   => Energetics <=

    Nuclear Repulsion Energy =            564.8878628664951975
    One-Electron Energy =               -1696.2484575632856831
    Two-Electron Energy =                 704.1496738524377861
    Total Energy =                       -427.2109208443526995

  Dipole Moment: [D]
     X:    -0.0261      Y:    -0.0720      Z:    -0.1871     Total:     0.2022

  Basis Set: (AUG-CC-PVQZ AUX)
    Blend: AUG-CC-PVQZ-RI
	 Reference Energy          =    -427.2109208443527564 [Eh]
	 Singles Energy            =      -0.0000000000000000 [Eh]
	 Same-Spin Energy          =      -0.4946454389991841 [Eh]
	 Opposite-Spin Energy      =      -1.8025063114235931 [Eh]
	 Correlation Energy        =      -2.2971517504227772 [Eh]
	 Total Energy              =    -429.5080725947755127 [Eh]

	 ================> DF-SCS-MP2 Energies <==================
	-----------------------------------------------------------
	 SCS Same-Spin Scale       =       0.3333333333333333 [-]
	 SCS Opposite-Spin Scale   =       1.2000000000000000 [-]
	 SCS Same-Spin Energy      =      -0.1648818129997280 [Eh]
	 SCS Opposite-Spin Energy  =      -2.1630075737083114 [Eh]
	 SCS Correlation Energy    =      -2.3278893867080397 [Eh]
	 SCS Total Energy          =    -429.5388102310607792 [Eh]
	-----------------------------------------------------------

*** Psi4 exiting successfully. Buy a developer a beer!
