                               Psi4 1.4a2.dev224

  ==> Input File <==

--------------------------------------------------------------------------
#Generated by lconvert.py for cbs job

memory 40 GB

molecule  {
0 1
  C        0.3119540     0.5610230     0.4966990
  H        0.7421360     1.5533690     0.4815660
  C        1.1421820    -0.5580750     0.5360620
  H        2.2165110    -0.4342500     0.5523500
  C        0.5878040    -1.8366870     0.5541440
  H        1.2319120    -2.7048420     0.5852220
  C       -0.7966580    -1.9963760     0.5329630
  H       -1.2267740    -2.9884440     0.5486370
  C       -1.6268930    -0.8774740     0.4941680
  H       -2.7011220    -1.0013500     0.4798150
  C       -1.0726650     0.4012060     0.4759740
  H       -1.7169740     1.2694010     0.4459200
--
0 1
  C        0.1644390     0.5013150     4.9840310
  C        1.6106880     0.6801030     4.5290700
  H        2.0265440     1.6133810     4.9124930
  H        2.2340870    -0.1405130     4.8879240
  H        1.6712970     0.6994940     3.4401350
  C        0.1100480     0.4699440     6.5088960
  H       -0.9157420     0.3425240     6.8579840
  H        0.7054540    -0.3557430     6.9014500
  H        0.4983420     1.3978290     6.9318020
  C       -0.3849410    -0.8081770     4.4237350
  H       -1.4198150    -0.9584520     4.7364070
  H        0.2015160    -1.6571500     4.7795460
  H       -0.3561610    -0.8086290     3.3334210
  C       -0.6769340     1.6658870     4.4678260
  H       -0.6553930     1.7019170     3.3778270
  H       -1.7167230     1.5621170     4.7823080
  H       -0.3012810     2.6165810     4.8499330
units angstrom
no_reorient
symmetry c1
}

set {
scf_type DF
mp2_type DF
e_convergence 7
reference rhf
}

energy('mp2/aug-cc-pv[tq]z', bsse_type='cp')
--------------------------------------------------------------------------

    Molecular point group: c1
  Charge       = 0
  Multiplicity = 1
  Basis Set: AUG-CC-PVTZ
    Blend: AUG-CC-PVTZ
  Basis Set: (AUG-CC-PVTZ AUX)
    Blend: AUG-CC-PVTZ-JKFIT
  @DF-RHF Final Energy:  -196.40449761393830
    Total Energy =                       -196.4044976139383039
  Basis Set: (AUG-CC-PVTZ AUX)
    Blend: AUG-CC-PVTZ-RI
	 Reference Energy          =    -196.4044976139383039 [Eh]
	 Singles Energy            =      -0.0000000000000000 [Eh]
	 Same-Spin Energy          =      -0.2117565547767797 [Eh]
	 Opposite-Spin Energy      =      -0.7978681566056751 [Eh]
	 Correlation Energy        =      -1.0096247113824548 [Eh]
	 Total Energy              =    -197.4141223253207613 [Eh]
	 SCS Total Energy          =    -197.4325249201240524 [Eh]
    Molecular point group: c1
  Basis Set: AUG-CC-PVQZ
    Blend: AUG-CC-PVQZ
  Basis Set: (AUG-CC-PVQZ AUX)
    Blend: AUG-CC-PVQZ-JKFIT
  @DF-RHF Final Energy:  -196.41634245727460
    Total Energy =                       -196.4163424572745953
  Basis Set: (AUG-CC-PVQZ AUX)
  @DF-RHF Final Energy:  -196.40453098951483
    Total Energy =                       -196.4045309895147966
  @DF-RHF Final Energy:  -196.41635276433951
    Total Energy =                       -196.4163527643394787
  @DF-RHF Final Energy:  -230.78149475897345
    Total Energy =                       -230.7814947589734516
  @DF-RHF Final Energy:  -230.79448033980589
    Total Energy =                       -230.7944803398058866
  @DF-RHF Final Energy:  -230.78125076901617
    Total Energy =                       -230.7812507690161965
  @DF-RHF Final Energy:  -230.79442541537426
    Total Energy =                       -230.7944254153742918
  Multiplicity = 1
  @DF-RHF Final Energy:  -427.18397879041731
    Total Energy =                       -427.1839787904173136
	 Singles Energy            =      -0.0000000000000000 [Eh]
	 Same-Spin Energy          =      -0.4710981573693169 [Eh]
	 Opposite-Spin Energy      =      -1.6238283514776279 [Eh]
	 Correlation Energy        =      -2.0949265088469446 [Eh]
	 Total Energy              =    -429.2789052992642382 [Eh]
	 SCS Total Energy          =    -429.2896055313135548 [Eh]
    Molecular point group: c1

    Geometry (in Angstrom), charge = 0, multiplicity = 1:

       Center              X                  Y                   Z               Mass
    ------------   -----------------  -----------------  -----------------  -----------------
         C            0.358908883108     0.693213091606    -2.163600509254    12.000000000000
         H            0.789090883108     1.685559091606    -2.178733509254     1.007825032230
         C            1.189136883108    -0.425884908394    -2.124237509254    12.000000000000
         H            2.263465883108    -0.302059908394    -2.107949509254     1.007825032230
         C            0.634758883108    -1.704496908394    -2.106155509254    12.000000000000
         H            1.278866883108    -2.572651908394    -2.075077509254     1.007825032230
         C           -0.749703116892    -1.864185908394    -2.127336509254    12.000000000000
         H           -1.179819116892    -2.856253908394    -2.111662509254     1.007825032230
         C           -1.579938116892    -0.745283908394    -2.166131509254    12.000000000000
         H           -2.654167116892    -0.869159908394    -2.180484509254     1.007825032230
         C           -1.025710116892     0.533396091606    -2.184325509254    12.000000000000
         H           -1.670019116892     1.401591091606    -2.214379509254     1.007825032230
         C            0.211393883108     0.633505091606     2.323731490746    12.000000000000
         C            1.657642883108     0.812293091606     1.868770490746    12.000000000000
         H            2.073498883108     1.745571091606     2.252193490746     1.007825032230
         H            2.281041883108    -0.008322908394     2.227624490746     1.007825032230
         H            1.718251883108     0.831684091606     0.779835490746     1.007825032230
         C            0.157002883108     0.602134091606     3.848596490746    12.000000000000
         H           -0.868787116892     0.474714091606     4.197684490746     1.007825032230
         H            0.752408883108    -0.223552908394     4.241150490746     1.007825032230
         H            0.545296883108     1.530019091606     4.271502490746     1.007825032230
         C           -0.337986116892    -0.675986908394     1.763435490746    12.000000000000
         H           -1.372860116892    -0.826261908394     2.076107490746     1.007825032230
         H            0.248470883108    -1.524959908394     2.119246490746     1.007825032230
         H           -0.309206116892    -0.676438908394     0.673121490746     1.007825032230
         C           -0.629979116892     1.798077091606     1.807526490746    12.000000000000
         H           -0.608438116892     1.834107091606     0.717527490746     1.007825032230
         H           -1.669768116892     1.694307091606     2.122008490746     1.007825032230
         H           -0.254326116892     2.748771091606     2.189633490746     1.007825032230

  Charge       = 0
  Multiplicity = 1
  Basis Set: AUG-CC-PVQZ
    Blend: AUG-CC-PVQZ
  Basis Set: (AUG-CC-PVQZ AUX)
    Blend: AUG-CC-PVQZ-JKFIT

    Orbital Energies [Eh]
    ---------------------

    Doubly Occupied:

       1A    -11.237164     2A    -11.236575     3A    -11.236553
       4A    -11.235338     5A    -11.235316     6A    -11.234695
       7A    -11.218892     8A    -11.199422     9A    -11.198433
      10A    -11.198412    11A    -11.194376    12A     -1.152436
      13A     -1.099567    14A     -1.016758    15A     -1.016722
      16A     -0.923205    17A     -0.922566    18A     -0.920069
      19A     -0.826127    20A     -0.826099    21A     -0.723182
      22A     -0.711846    23A     -0.646156    24A     -0.621278
      25A     -0.606071    26A     -0.605623    27A     -0.605205
      28A     -0.590200    29A     -0.590148    30A     -0.546859
      31A     -0.546819    32A     -0.509572    33A     -0.503957
      34A     -0.502497    35A     -0.498621    36A     -0.497021
      37A     -0.496934    38A     -0.446011    39A     -0.445428
      40A     -0.444104    41A     -0.339335    42A     -0.339259

  @DF-RHF Final Energy:  -427.20878947487336

   => Energetics <=

    Nuclear Repulsion Energy =            592.7246307345225205
    One-Electron Energy =               -1751.9771368438084664
    Two-Electron Energy =                 732.0437166344127036
    Total Energy =                       -427.2087894748733561

  Dipole Moment: [D]
     X:    -0.0480      Y:    -0.1311      Z:    -0.3191     Total:     0.3483

  Basis Set: (AUG-CC-PVQZ AUX)
    Blend: AUG-CC-PVQZ-RI
	 Reference Energy          =    -427.2087894748733561 [Eh]
	 Singles Energy            =      -0.0000000000000000 [Eh]
	 Same-Spin Energy          =      -0.4971987547998375 [Eh]
	 Opposite-Spin Energy      =      -1.8058191864122790 [Eh]
	 Correlation Energy        =      -2.3030179412121163 [Eh]
	 Total Energy              =    -429.5118074160854462 [Eh]

	 ================> DF-SCS-MP2 Energies <==================
	-----------------------------------------------------------
	 SCS Same-Spin Scale       =       0.3333333333333333 [-]
	 SCS Opposite-Spin Scale   =       1.2000000000000000 [-]
	 SCS Same-Spin Energy      =      -0.1657329182666125 [Eh]
	 SCS Opposite-Spin Energy  =      -2.1669830236947347 [Eh]
	 SCS Correlation Energy    =      -2.3327159419613470 [Eh]
	 SCS Total Energy          =    -429.5415054168346956 [Eh]
	-----------------------------------------------------------

*** Psi4 exiting successfully. Buy a developer a beer!
