                               Psi4 1.4a2.dev224

  ==> Input File <==

--------------------------------------------------------------------------
#Generated by lconvert.py for cbs job

memory 40 GB

molecule  {
0 1
  C        0.3119540     0.5610230     0.4966990
  H        0.7421360     1.5533690     0.4815660
  C        1.1421820    -0.5580750     0.5360620
  H        2.2165110    -0.4342500     0.5523500
  C        0.5878040    -1.8366870     0.5541440
  H        1.2319120    -2.7048420     0.5852220
  C       -0.7966580    -1.9963760     0.5329630
  H       -1.2267740    -2.9884440     0.5486370
  C       -1.6268930    -0.8774740     0.4941680
  H       -2.7011220    -1.0013500     0.4798150
  C       -1.0726650     0.4012060     0.4759740
  H       -1.7169740     1.2694010     0.4459200
--
0 1
  C        0.1778600     0.5120380     4.6515880
  C        1.6241090     0.6908250     4.1966270
  H        2.0399660     1.6241030     4.5800500
  H        2.2475080    -0.1297900     4.5554800
  H        1.6847180     0.7102160     3.1076920
  C        0.1234690     0.4806670     6.1764530
  H       -0.9023210     0.3532460     6.5255410
  H        0.7188750    -0.3450200     6.5690070
  H        0.5117630     1.4085510     6.5993590
  C       -0.3715200    -0.7974540     4.0912920
  H       -1.4063930    -0.9477290     4.4039640
  H        0.2149370    -1.6464280     4.4471030
  H       -0.3427400    -0.7979070     3.0009780
  C       -0.6635130     1.6766090     4.1353830
  H       -0.6419720     1.7126400     3.0453840
  H       -1.7033020     1.5728400     4.4498650
  H       -0.2878600     2.6273040     4.5174890
units angstrom
no_reorient
symmetry c1
}

set {
scf_type DF
mp2_type DF
e_convergence 7
reference rhf
}

energy('mp2/aug-cc-pv[tq]z', bsse_type='cp')
--------------------------------------------------------------------------

    Molecular point group: c1
  Charge       = 0
  Multiplicity = 1
  Basis Set: AUG-CC-PVTZ
    Blend: AUG-CC-PVTZ
  Basis Set: (AUG-CC-PVTZ AUX)
    Blend: AUG-CC-PVTZ-JKFIT
  @DF-RHF Final Energy:  -196.40449762992392
    Total Energy =                       -196.4044976299239238
  Basis Set: (AUG-CC-PVTZ AUX)
    Blend: AUG-CC-PVTZ-RI
	 Reference Energy          =    -196.4044976299239238 [Eh]
	 Singles Energy            =      -0.0000000000000000 [Eh]
	 Same-Spin Energy          =      -0.2117565577142899 [Eh]
	 Opposite-Spin Energy      =      -0.7978681433253266 [Eh]
	 Correlation Energy        =      -1.0096247010396167 [Eh]
	 Total Energy              =    -197.4141223309635507 [Eh]
	 SCS Total Energy          =    -197.4325249211524067 [Eh]
    Molecular point group: c1
  Basis Set: AUG-CC-PVQZ
    Blend: AUG-CC-PVQZ
  Basis Set: (AUG-CC-PVQZ AUX)
    Blend: AUG-CC-PVQZ-JKFIT
  @DF-RHF Final Energy:  -196.41634247390687
    Total Energy =                       -196.4163424739068660
  Basis Set: (AUG-CC-PVQZ AUX)
  @DF-RHF Final Energy:  -196.40454105184924
    Total Energy =                       -196.4045410518492076
  @DF-RHF Final Energy:  -196.41635580412057
    Total Energy =                       -196.4163558041205988
  @DF-RHF Final Energy:  -230.78154554381027
    Total Energy =                       -230.7815455438102958
  @DF-RHF Final Energy:  -230.79449417091189
    Total Energy =                       -230.7944941709118893
  @DF-RHF Final Energy:  -230.78125076701591
    Total Energy =                       -230.7812507670158766
  @DF-RHF Final Energy:  -230.79442541406186
    Total Energy =                       -230.7944254140618341
  Multiplicity = 1
  @DF-RHF Final Energy:  -427.17999453863359
    Total Energy =                       -427.1799945386335366
	 Singles Energy            =      -0.0000000000000000 [Eh]
	 Same-Spin Energy          =      -0.4732707177375368 [Eh]
	 Opposite-Spin Energy      =      -1.6273169609880220 [Eh]
	 Correlation Energy        =      -2.1005876787255588 [Eh]
	 Total Energy              =    -429.2805822173591537 [Eh]
	 SCS Total Energy          =    -429.2905317977317168 [Eh]
    Molecular point group: c1

    Geometry (in Angstrom), charge = 0, multiplicity = 1:

       Center              X                  Y                   Z               Mass
    ------------   -----------------  -----------------  -----------------  -----------------
         C            0.352464439447     0.688064373959    -2.003969639645    12.000000000000
         H            0.782646439447     1.680410373959    -2.019102639645     1.007825032230
         C            1.182692439447    -0.431033626041    -1.964606639645    12.000000000000
         H            2.257021439447    -0.307208626041    -1.948318639645     1.007825032230
         C            0.628314439447    -1.709645626041    -1.946524639645    12.000000000000
         H            1.272422439447    -2.577800626041    -1.915446639645     1.007825032230
         C           -0.756147560553    -1.869334626041    -1.967705639645    12.000000000000
         H           -1.186263560553    -2.861402626041    -1.952031639645     1.007825032230
         C           -1.586382560553    -0.750432626041    -2.006500639645    12.000000000000
         H           -2.660611560553    -0.874308626041    -2.020853639645     1.007825032230
         C           -1.032154560553     0.528247373959    -2.024694639645    12.000000000000
         H           -1.676463560553     1.396442373959    -2.054748639645     1.007825032230
         C            0.218370439447     0.639079373959     2.150919360355    12.000000000000
         C            1.664619439447     0.817866373959     1.695958360355    12.000000000000
         H            2.080476439447     1.751144373959     2.079381360355     1.007825032230
         H            2.288018439447    -0.002748626041     2.054811360355     1.007825032230
         H            1.725228439447     0.837257373959     0.607023360355     1.007825032230
         C            0.163979439447     0.607708373959     3.675784360355    12.000000000000
         H           -0.861810560553     0.480287373959     4.024872360355     1.007825032230
         H            0.759385439447    -0.217978626041     4.068338360355     1.007825032230
         H            0.552273439447     1.535592373959     4.098690360355     1.007825032230
         C           -0.331009560553    -0.670412626041     1.590623360355    12.000000000000
         H           -1.365882560553    -0.820687626041     1.903295360355     1.007825032230
         H            0.255447439447    -1.519386626041     1.946434360355     1.007825032230
         H           -0.302229560553    -0.670865626041     0.500309360355     1.007825032230
         C           -0.623002560553     1.803650373959     1.634714360355    12.000000000000
         H           -0.601461560553     1.839681373959     0.544715360355     1.007825032230
         H           -1.662791560553     1.699881373959     1.949196360355     1.007825032230
         H           -0.247349560553     2.754345373959     2.016820360355     1.007825032230

  Charge       = 0
  Multiplicity = 1
  Basis Set: AUG-CC-PVQZ
    Blend: AUG-CC-PVQZ
  Basis Set: (AUG-CC-PVQZ AUX)
    Blend: AUG-CC-PVQZ-JKFIT

    Orbital Energies [Eh]
    ---------------------

    Doubly Occupied:

       1A    -11.237484     2A    -11.236890     3A    -11.236821
       4A    -11.235646     5A    -11.235610     6A    -11.234968
       7A    -11.217559     8A    -11.198335     9A    -11.197270
      10A    -11.197249    11A    -11.191573    12A     -1.153280
      13A     -1.098281    14A     -1.017480    15A     -1.017340
      16A     -0.922243    17A     -0.921716    18A     -0.918418
      19A     -0.826694    20A     -0.826678    21A     -0.722238
      22A     -0.712498    23A     -0.646709    24A     -0.621818
      25A     -0.606067    26A     -0.604771    27A     -0.604052
      28A     -0.590733    29A     -0.590607    30A     -0.546556
      31A     -0.545885    32A     -0.512603    33A     -0.503303
      34A     -0.501238    35A     -0.497527    36A     -0.497338
      37A     -0.495263    38A     -0.444934    39A     -0.444158
      40A     -0.440253    41A     -0.339975    42A     -0.339673

  @DF-RHF Final Energy:  -427.20476647634604

   => Energetics <=

    Nuclear Repulsion Energy =            605.0351520564436214
    One-Electron Energy =               -1776.6203628183318415
    Two-Electron Energy =                 744.3804442855421257
    Total Energy =                       -427.2047664763460944

  Dipole Moment: [D]
     X:    -0.0582      Y:    -0.1588      Z:    -0.3854     Total:     0.4208

  Basis Set: (AUG-CC-PVQZ AUX)
    Blend: AUG-CC-PVQZ-RI
	 Reference Energy          =    -427.2047664763460375 [Eh]
	 Singles Energy            =      -0.0000000000000000 [Eh]
	 Same-Spin Energy          =      -0.4992925603027865 [Eh]
	 Opposite-Spin Energy      =      -1.8085617151358031 [Eh]
	 Correlation Energy        =      -2.3078542754385896 [Eh]
	 Total Energy              =    -429.5126207517846524 [Eh]

	 ================> DF-SCS-MP2 Energies <==================
	-----------------------------------------------------------
	 SCS Same-Spin Scale       =       0.3333333333333333 [-]
	 SCS Opposite-Spin Scale   =       1.2000000000000000 [-]
	 SCS Same-Spin Energy      =      -0.1664308534342622 [Eh]
	 SCS Opposite-Spin Energy  =      -2.1702740581629638 [Eh]
	 SCS Correlation Energy    =      -2.3367049115972258 [Eh]
	 SCS Total Energy          =    -429.5414713879432611 [Eh]
	-----------------------------------------------------------

*** Psi4 exiting successfully. Buy a developer a beer!
