                               Psi4 1.4a2.dev224

  ==> Input File <==

--------------------------------------------------------------------------
#Generated by lconvert.py for cbs job

memory 40 GB

molecule  {
0 1
  C        0.3119540     0.5610230     0.4966990
  H        0.7421360     1.5533690     0.4815660
  C        1.1421820    -0.5580750     0.5360620
  H        2.2165110    -0.4342500     0.5523500
  C        0.5878040    -1.8366870     0.5541440
  H        1.2319120    -2.7048420     0.5852220
  C       -0.7966580    -1.9963760     0.5329630
  H       -1.2267740    -2.9884440     0.5486370
  C       -1.6268930    -0.8774740     0.4941680
  H       -2.7011220    -1.0013500     0.4798150
  C       -1.0726650     0.4012060     0.4759740
  H       -1.7169740     1.2694010     0.4459200
--
0 1
  C        0.2142890     0.5411420     3.7492450
  C        1.6605380     0.7199290     3.2942840
  H        2.0763940     1.6532070     3.6777070
  H        2.2839370    -0.1006870     3.6531370
  H        1.7211470     0.7393200     2.2053490
  C        0.1598980     0.5097700     5.2741100
  H       -0.8658920     0.3823500     5.6231980
  H        0.7553030    -0.3159160     5.6666640
  H        0.5481920     1.4376550     5.6970160
  C       -0.3350910    -0.7683500     3.1889490
  H       -1.3699650    -0.9186250     3.5016210
  H        0.2513650    -1.6173240     3.5447600
  H       -0.3063110    -0.7688030     2.0986350
  C       -0.6270840     1.7057130     3.2330400
  H       -0.6055430     1.7417440     2.1430410
  H       -1.6668730     1.6019440     3.5475220
  H       -0.2514310     2.6564080     3.6151470
units angstrom
no_reorient
symmetry c1
}

set {
scf_type DF
mp2_type DF
e_convergence 7
reference rhf
}

energy('mp2/aug-cc-pv[tq]z', bsse_type='cp')
--------------------------------------------------------------------------

    Molecular point group: c1
  Charge       = 0
  Multiplicity = 1
  Basis Set: AUG-CC-PVTZ
    Blend: AUG-CC-PVTZ
  Basis Set: (AUG-CC-PVTZ AUX)
    Blend: AUG-CC-PVTZ-JKFIT
  @DF-RHF Final Energy:  -196.40449762301151
    Total Energy =                       -196.4044976230114798
  Basis Set: (AUG-CC-PVTZ AUX)
    Blend: AUG-CC-PVTZ-RI
	 Reference Energy          =    -196.4044976230115083 [Eh]
	 Singles Energy            =      -0.0000000000000000 [Eh]
	 Same-Spin Energy          =      -0.2117565584733956 [Eh]
	 Opposite-Spin Energy      =      -0.7978681484707055 [Eh]
	 Correlation Energy        =      -1.0096247069441011 [Eh]
	 Total Energy              =    -197.4141223299556032 [Eh]
	 SCS Total Energy          =    -197.4325249206674755 [Eh]
    Molecular point group: c1
  Basis Set: AUG-CC-PVQZ
    Blend: AUG-CC-PVQZ
  Basis Set: (AUG-CC-PVQZ AUX)
    Blend: AUG-CC-PVQZ-JKFIT
  @DF-RHF Final Energy:  -196.41634246752329
    Total Energy =                       -196.4163424675232932
  Basis Set: (AUG-CC-PVQZ AUX)
  @DF-RHF Final Energy:  -196.40460099853104
    Total Energy =                       -196.4046009985310661
  @DF-RHF Final Energy:  -196.41636834868706
    Total Energy =                       -196.4163683486870582
  @DF-RHF Final Energy:  -230.78179721313865
    Total Energy =                       -230.7817972131386455
  @DF-RHF Final Energy:  -230.79453756835258
    Total Energy =                       -230.7945375683525526
  @DF-RHF Final Energy:  -230.78125076769754
    Total Energy =                       -230.7812507676975429
  @DF-RHF Final Energy:  -230.79442541471474
    Total Energy =                       -230.7944254147147376
  Multiplicity = 1
  @DF-RHF Final Energy:  -427.11096866845662
    Total Energy =                       -427.1109686684566213
	 Singles Energy            =      -0.0000000000000000 [Eh]
	 Same-Spin Energy          =      -0.4876828711374714 [Eh]
	 Opposite-Spin Energy      =      -1.6492886355224736 [Eh]
	 Correlation Energy        =      -2.1369715066599451 [Eh]
	 Total Energy              =    -429.2479401751165824 [Eh]
	 SCS Total Energy          =    -429.2526759881293970 [Eh]
    Molecular point group: c1

    Geometry (in Angstrom), charge = 0, multiplicity = 1:

       Center              X                  Y                   Z               Mass
    ------------   -----------------  -----------------  -----------------  -----------------
         C            0.334972166986     0.674089444012    -1.570686991401    12.000000000000
         H            0.765154166986     1.666435444012    -1.585819991401     1.007825032230
         C            1.165200166986    -0.445008555988    -1.531323991401    12.000000000000
         H            2.239529166986    -0.321183555988    -1.515035991401     1.007825032230
         C            0.610822166986    -1.723620555988    -1.513241991401    12.000000000000
         H            1.254930166986    -2.591775555988    -1.482163991401     1.007825032230
         C           -0.773639833014    -1.883309555988    -1.534422991401    12.000000000000
         H           -1.203755833014    -2.875377555988    -1.518748991401     1.007825032230
         C           -1.603874833014    -0.764407555988    -1.573217991401    12.000000000000
         H           -2.678103833014    -0.888283555988    -1.587570991401     1.007825032230
         C           -1.049646833014     0.514272444012    -1.591411991401    12.000000000000
         H           -1.693955833014     1.382467444012    -1.621465991401     1.007825032230
         C            0.237307166986     0.654208444012     1.681859008599    12.000000000000
         C            1.683556166986     0.832995444012     1.226898008599    12.000000000000
         H            2.099412166986     1.766273444012     1.610321008599     1.007825032230
         H            2.306955166986     0.012379444012     1.585751008599     1.007825032230
         H            1.744165166986     0.852386444012     0.137963008599     1.007825032230
         C            0.182916166986     0.622836444012     3.206724008599    12.000000000000
         H           -0.842873833014     0.495416444012     3.555812008599     1.007825032230
         H            0.778321166986    -0.202849555988     3.599278008599     1.007825032230
         H            0.571210166986     1.550721444012     3.629630008599     1.007825032230
         C           -0.312072833014    -0.655283555988     1.121563008599    12.000000000000
         H           -1.346946833014    -0.805558555988     1.434235008599     1.007825032230
         H            0.274383166986    -1.504257555988     1.477374008599     1.007825032230
         H           -0.283292833014    -0.655736555988     0.031249008599     1.007825032230
         C           -0.604065833014     1.818779444012     1.165654008599    12.000000000000
         H           -0.582524833014     1.854810444012     0.075655008599     1.007825032230
         H           -1.643854833014     1.715010444012     1.480136008599     1.007825032230
         H           -0.228412833014     2.769474444012     1.547761008599     1.007825032230

  Charge       = 0
  Multiplicity = 1
  Basis Set: AUG-CC-PVQZ
    Blend: AUG-CC-PVQZ
  Basis Set: (AUG-CC-PVQZ AUX)
    Blend: AUG-CC-PVQZ-JKFIT

    Orbital Energies [Eh]
    ---------------------

    Doubly Occupied:

       1A    -11.238849     2A    -11.237774     3A    -11.237238
       4A    -11.236391     5A    -11.235806     6A    -11.234811
       7A    -11.211982     8A    -11.193978     9A    -11.192036
      10A    -11.192013    11A    -11.174739    12A     -1.163917
      13A     -1.093397    14A     -1.024118    15A     -1.022461
      16A     -0.920885    17A     -0.919120    18A     -0.913877
      19A     -0.831017    20A     -0.830425    21A     -0.722805
      22A     -0.719671    23A     -0.650615    24A     -0.627332
      25A     -0.618608    26A     -0.603501    27A     -0.602105
      28A     -0.593232    29A     -0.592533    30A     -0.550957
      31A     -0.543813    32A     -0.517645    33A     -0.501695
      34A     -0.500938    35A     -0.500716    36A     -0.495676
      37A     -0.480286    38A     -0.441527    39A     -0.439836
      40A     -0.406439    41A     -0.341094    42A     -0.338116

  @DF-RHF Final Energy:  -427.13550087615641

   => Energetics <=

    Nuclear Repulsion Energy =            646.8079273619750893
    One-Electron Energy =               -1860.0988942004851197
    Two-Electron Energy =                 786.1554659623535599
    Total Energy =                       -427.1355008761564704

  Dipole Moment: [D]
     X:    -0.0749      Y:    -0.2090      Z:    -0.5843     Total:     0.6251

  Basis Set: (AUG-CC-PVQZ AUX)
    Blend: AUG-CC-PVQZ-RI
	 Reference Energy          =    -427.1355008761564136 [Eh]
	 Singles Energy            =      -0.0000000000000000 [Eh]
	 Same-Spin Energy          =      -0.5134970412974698 [Eh]
	 Opposite-Spin Energy      =      -1.8272877353795312 [Eh]
	 Correlation Energy        =      -2.3407847766770011 [Eh]
	 Total Energy              =    -429.4762856528334396 [Eh]

	 ================> DF-SCS-MP2 Energies <==================
	-----------------------------------------------------------
	 SCS Same-Spin Scale       =       0.3333333333333333 [-]
	 SCS Opposite-Spin Scale   =       1.2000000000000000 [-]
	 SCS Same-Spin Energy      =      -0.1711656804324899 [Eh]
	 SCS Opposite-Spin Energy  =      -2.1927452824554372 [Eh]
	 SCS Correlation Energy    =      -2.3639109628879273 [Eh]
	 SCS Total Energy          =    -429.4994118390443418 [Eh]
	-----------------------------------------------------------

*** Psi4 exiting successfully. Buy a developer a beer!
