                               Psi4 1.4a2.dev224

  ==> Input File <==

--------------------------------------------------------------------------
#Generated by lconvert.py for cbs job

memory 40 GB

molecule  {
0 1
  C        0.3119540     0.5610230     0.4966990
  H        0.7421360     1.5533690     0.4815660
  C        1.1421820    -0.5580750     0.5360620
  H        2.2165110    -0.4342500     0.5523500
  C        0.5878040    -1.8366870     0.5541440
  H        1.2319120    -2.7048420     0.5852220
  C       -0.7966580    -1.9963760     0.5329630
  H       -1.2267740    -2.9884440     0.5486370
  C       -1.6268930    -0.8774740     0.4941680
  H       -2.7011220    -1.0013500     0.4798150
  C       -1.0726650     0.4012060     0.4759740
  H       -1.7169740     1.2694010     0.4459200
--
0 1
  C        0.1711050     0.5066410     4.8189150
  C        1.6173540     0.6854280     4.3639540
  H        2.0332100     1.6187060     4.7473770
  H        2.2407530    -0.1351870     4.7228080
  H        1.6779630     0.7048200     3.2750200
  C        0.1167140     0.4752700     6.3437810
  H       -0.9090760     0.3478490     6.6928690
  H        0.7121200    -0.3504170     6.7363350
  H        0.5050080     1.4031540     6.7666860
  C       -0.3782750    -0.8028510     4.2586190
  H       -1.4131490    -0.9531260     4.5712910
  H        0.2081820    -1.6518250     4.6144310
  H       -0.3494950    -0.8033040     3.1683050
  C       -0.6702680     1.6712130     4.3027100
  H       -0.6487270     1.7072430     3.2127110
  H       -1.7100570     1.5674430     4.6171920
  H       -0.2946150     2.6219070     4.6848170
units angstrom
no_reorient
symmetry c1
}

set {
scf_type DF
mp2_type DF
e_convergence 7
reference rhf
}

energy('mp2/aug-cc-pv[tq]z', bsse_type='cp')
--------------------------------------------------------------------------

    Molecular point group: c1
  Charge       = 0
  Multiplicity = 1
  Basis Set: AUG-CC-PVTZ
    Blend: AUG-CC-PVTZ
  Basis Set: (AUG-CC-PVTZ AUX)
    Blend: AUG-CC-PVTZ-JKFIT
  @DF-RHF Final Energy:  -196.40449763758770
    Total Energy =                       -196.4044976375877241
  Basis Set: (AUG-CC-PVTZ AUX)
    Blend: AUG-CC-PVTZ-RI
	 Reference Energy          =    -196.4044976375876956 [Eh]
	 Singles Energy            =      -0.0000000000000000 [Eh]
	 Same-Spin Energy          =      -0.2117565443264292 [Eh]
	 Opposite-Spin Energy      =      -0.7978681384148585 [Eh]
	 Correlation Energy        =      -1.0096246827412876 [Eh]
	 Total Energy              =    -197.4141223203289712 [Eh]
	 SCS Total Energy          =    -197.4325249184610129 [Eh]
    Molecular point group: c1
  Basis Set: AUG-CC-PVQZ
    Blend: AUG-CC-PVQZ
  Basis Set: (AUG-CC-PVQZ AUX)
    Blend: AUG-CC-PVQZ-JKFIT
  @DF-RHF Final Energy:  -196.41634248028294
    Total Energy =                       -196.4163424802829354
  Basis Set: (AUG-CC-PVQZ AUX)
  @DF-RHF Final Energy:  -196.40453560622819
    Total Energy =                       -196.4045356062281940
  @DF-RHF Final Energy:  -196.41635415805655
    Total Energy =                       -196.4163541580565493
  @DF-RHF Final Energy:  -230.78151708232383
    Total Energy =                       -230.7815170823238304
  @DF-RHF Final Energy:  -230.79448739558626
    Total Energy =                       -230.7944873955862590
  @DF-RHF Final Energy:  -230.78125076850122
    Total Energy =                       -230.7812507685011951
  @DF-RHF Final Energy:  -230.79442541499657
    Total Energy =                       -230.7944254149965673
  Multiplicity = 1
  @DF-RHF Final Energy:  -427.18247023769067
    Total Energy =                       -427.1824702376907226
	 Singles Energy            =      -0.0000000000000000 [Eh]
	 Same-Spin Energy          =      -0.4720504151818220 [Eh]
	 Opposite-Spin Energy      =      -1.6253714584191581 [Eh]
	 Correlation Energy        =      -2.0974218736009802 [Eh]
	 Total Energy              =    -429.2798921112916446 [Eh]
	 SCS Total Energy          =    -429.2902661261875892 [Eh]
    Molecular point group: c1

    Geometry (in Angstrom), charge = 0, multiplicity = 1:

       Center              X                  Y                   Z               Mass
    ------------   -----------------  -----------------  -----------------  -----------------
         C            0.355708035783     0.690655792424    -2.084316021528    12.000000000000
         H            0.785890035783     1.683001792424    -2.099449021528     1.007825032230
         C            1.185936035783    -0.428442207576    -2.044953021528    12.000000000000
         H            2.260265035783    -0.304617207576    -2.028665021528     1.007825032230
         C            0.631558035783    -1.707054207576    -2.026871021528    12.000000000000
         H            1.275666035783    -2.575209207576    -1.995793021528     1.007825032230
         C           -0.752903964217    -1.866743207576    -2.048052021528    12.000000000000
         H           -1.183019964217    -2.858811207576    -2.032378021528     1.007825032230
         C           -1.583138964217    -0.747841207576    -2.086847021528    12.000000000000
         H           -2.657367964217    -0.871717207576    -2.101200021528     1.007825032230
         C           -1.028910964217     0.530838792424    -2.105041021528    12.000000000000
         H           -1.673219964217     1.399033792424    -2.135095021528     1.007825032230
         C            0.214859035783     0.636273792424     2.237899978472    12.000000000000
         C            1.661108035783     0.815060792424     1.782938978472    12.000000000000
         H            2.076964035783     1.748338792424     2.166361978472     1.007825032230
         H            2.284507035783    -0.005554207576     2.141792978472     1.007825032230
         H            1.721717035783     0.834452792424     0.694004978472     1.007825032230
         C            0.160468035783     0.604902792424     3.762765978472    12.000000000000
         H           -0.865321964217     0.477481792424     4.111853978472     1.007825032230
         H            0.755874035783    -0.220784207576     4.155319978472     1.007825032230
         H            0.548762035783     1.532786792424     4.185670978472     1.007825032230
         C           -0.334520964217    -0.673218207576     1.677603978472    12.000000000000
         H           -1.369394964217    -0.823493207576     1.990275978472     1.007825032230
         H            0.251936035783    -1.522192207576     2.033415978472     1.007825032230
         H           -0.305740964217    -0.673671207576     0.587289978472     1.007825032230
         C           -0.626513964217     1.800845792424     1.721694978472    12.000000000000
         H           -0.604972964217     1.836875792424     0.631695978472     1.007825032230
         H           -1.666302964217     1.697075792424     2.036176978472     1.007825032230
         H           -0.250860964217     2.751539792424     2.103801978472     1.007825032230

  Charge       = 0
  Multiplicity = 1
  Basis Set: AUG-CC-PVQZ
    Blend: AUG-CC-PVQZ
  Basis Set: (AUG-CC-PVQZ AUX)
    Blend: AUG-CC-PVQZ-JKFIT

    Orbital Energies [Eh]
    ---------------------

    Doubly Occupied:

       1A    -11.237322     2A    -11.236732     3A    -11.236692
       4A    -11.235491     5A    -11.235467     6A    -11.234837
       7A    -11.218271     8A    -11.198918     9A    -11.197892
      10A    -11.197872    11A    -11.193113    12A     -1.152799
      13A     -1.098962    14A     -1.017076    15A     -1.016999
      16A     -0.922748    17A     -0.922149    18A     -0.919285
      19A     -0.826379    20A     -0.826365    21A     -0.722712
      22A     -0.712131    23A     -0.646406    24A     -0.621520
      25A     -0.605925    26A     -0.605220    27A     -0.604657
      28A     -0.590444    29A     -0.590366    30A     -0.546608
      31A     -0.546382    32A     -0.510983    33A     -0.503629
      34A     -0.501899    35A     -0.497254    36A     -0.497130
      37A     -0.497085    38A     -0.445500    39A     -0.444830
      40A     -0.442474    41A     -0.339636    42A     -0.339476

  @DF-RHF Final Energy:  -427.20726460506870

   => Energetics <=

    Nuclear Repulsion Energy =            598.6637434037495495
    One-Electron Energy =               -1763.8667431796707206
    Two-Electron Energy =                 737.9957351708524129
    Total Energy =                       -427.2072646050687581

  Dipole Moment: [D]
     X:    -0.0530      Y:    -0.1446      Z:    -0.3507     Total:     0.3830

  Basis Set: (AUG-CC-PVQZ AUX)
    Blend: AUG-CC-PVQZ-RI
	 Reference Energy          =    -427.2072646050687013 [Eh]
	 Singles Energy            =      -0.0000000000000000 [Eh]
	 Same-Spin Energy          =      -0.4981165348682628 [Eh]
	 Opposite-Spin Energy      =      -1.8070216137739723 [Eh]
	 Correlation Energy        =      -2.3051381486422349 [Eh]
	 Total Energy              =    -429.5124027537109441 [Eh]

	 ================> DF-SCS-MP2 Energies <==================
	-----------------------------------------------------------
	 SCS Same-Spin Scale       =       0.3333333333333333 [-]
	 SCS Opposite-Spin Scale   =       1.2000000000000000 [-]
	 SCS Same-Spin Energy      =      -0.1660388449560876 [Eh]
	 SCS Opposite-Spin Energy  =      -2.1684259365287666 [Eh]
	 SCS Correlation Energy    =      -2.3344647814848543 [Eh]
	 SCS Total Energy          =    -429.5417293865535839 [Eh]
	-----------------------------------------------------------

*** Psi4 exiting successfully. Buy a developer a beer!
