                               Psi4 1.4a2.dev224

  ==> Input File <==

--------------------------------------------------------------------------
#Generated by lconvert.py for cbs job

memory 40 GB

molecule  {
0 1
  C        0.3119540     0.5610230     0.4966990
  H        0.7421360     1.5533690     0.4815660
  C        1.1421820    -0.5580750     0.5360620
  H        2.2165110    -0.4342500     0.5523500
  C        0.5878040    -1.8366870     0.5541440
  H        1.2319120    -2.7048420     0.5852220
  C       -0.7966580    -1.9963760     0.5329630
  H       -1.2267740    -2.9884440     0.5486370
  C       -1.6268930    -0.8774740     0.4941680
  H       -2.7011220    -1.0013500     0.4798150
  C       -1.0726650     0.4012060     0.4759740
  H       -1.7169740     1.2694010     0.4459200
--
0 1
  C        0.1847400     0.5175340     4.4811780
  C        1.6309890     0.6963210     4.0262170
  H        2.0468450     1.6295990     4.4096400
  H        2.2543880    -0.1242940     4.3850700
  H        1.6915980     0.7157130     2.9372820
  C        0.1303480     0.4861630     6.0060430
  H       -0.8954420     0.3587430     6.3551310
  H        0.7257540    -0.3395240     6.3985970
  H        0.5186430     1.4140480     6.4289490
  C       -0.3646400    -0.7919580     3.9208820
  H       -1.3995140    -0.9422330     4.2335540
  H        0.2218160    -1.6409320     4.2766930
  H       -0.3358600    -0.7924110     2.8305680
  C       -0.6566330     1.6821060     3.9649730
  H       -0.6350920     1.7181360     2.8749740
  H       -1.6964220     1.5783360     4.2794550
  H       -0.2809800     2.6328000     4.3470800
units angstrom
no_reorient
symmetry c1
}

set {
scf_type DF
mp2_type DF
e_convergence 7
reference rhf
}

energy('mp2/aug-cc-pv[tq]z', bsse_type='cp')
--------------------------------------------------------------------------

    Molecular point group: c1
  Charge       = 0
  Multiplicity = 1
  Basis Set: AUG-CC-PVTZ
    Blend: AUG-CC-PVTZ
  Basis Set: (AUG-CC-PVTZ AUX)
    Blend: AUG-CC-PVTZ-JKFIT
  @DF-RHF Final Energy:  -196.40449762311226
    Total Energy =                       -196.4044976231122632
  Basis Set: (AUG-CC-PVTZ AUX)
    Blend: AUG-CC-PVTZ-RI
	 Reference Energy          =    -196.4044976231122632 [Eh]
	 Singles Energy            =      -0.0000000000000000 [Eh]
	 Same-Spin Energy          =      -0.2117565526277349 [Eh]
	 Opposite-Spin Energy      =      -0.7978681487507493 [Eh]
	 Correlation Energy        =      -1.0096247013784843 [Eh]
	 Total Energy              =    -197.4141223244907337 [Eh]
	 SCS Total Energy          =    -197.4325249191557532 [Eh]
    Molecular point group: c1
  Basis Set: AUG-CC-PVQZ
    Blend: AUG-CC-PVQZ
  Basis Set: (AUG-CC-PVQZ AUX)
    Blend: AUG-CC-PVQZ-JKFIT
  @DF-RHF Final Energy:  -196.41634246736885
    Total Energy =                       -196.4163424673688496
  Basis Set: (AUG-CC-PVQZ AUX)
  @DF-RHF Final Energy:  -196.40454769934831
    Total Energy =                       -196.4045476993483135
  @DF-RHF Final Energy:  -196.41635772018122
    Total Energy =                       -196.4163577201812245
  @DF-RHF Final Energy:  -230.78158424766940
    Total Energy =                       -230.7815842476694002
  @DF-RHF Final Energy:  -230.79450181286367
    Total Energy =                       -230.7945018128637003
  @DF-RHF Final Energy:  -230.78125077009085
    Total Energy =                       -230.7812507700908782
  @DF-RHF Final Energy:  -230.79442540929603
    Total Energy =                       -230.7944254092960250
  Multiplicity = 1
  @DF-RHF Final Energy:  -427.17594577581997
    Total Energy =                       -427.1759457758199687
	 Singles Energy            =      -0.0000000000000000 [Eh]
	 Same-Spin Energy          =      -0.4748405923047605 [Eh]
	 Opposite-Spin Energy      =      -1.6298001886890754 [Eh]
	 Correlation Energy        =      -2.1046407809938357 [Eh]
	 Total Energy              =    -429.2805865568138302 [Eh]
	 SCS Total Energy          =    -429.2899861996817776 [Eh]
    Molecular point group: c1

    Geometry (in Angstrom), charge = 0, multiplicity = 1:

       Center              X                  Y                   Z               Mass
    ------------   -----------------  -----------------  -----------------  -----------------
         C            0.349160948135     0.685425231457    -1.922143004791    12.000000000000
         H            0.779342948135     1.677771231457    -1.937276004791     1.007825032230
         C            1.179388948135    -0.433672768543    -1.882780004791    12.000000000000
         H            2.253717948135    -0.309847768543    -1.866492004791     1.007825032230
         C            0.625010948135    -1.712284768543    -1.864698004791    12.000000000000
         H            1.269118948135    -2.580439768543    -1.833620004791     1.007825032230
         C           -0.759451051865    -1.871973768543    -1.885879004791    12.000000000000
         H           -1.189567051865    -2.864041768543    -1.870205004791     1.007825032230
         C           -1.589686051865    -0.753071768543    -1.924674004791    12.000000000000
         H           -2.663915051865    -0.876947768543    -1.939027004791     1.007825032230
         C           -1.035458051865     0.525608231457    -1.942868004791    12.000000000000
         H           -1.679767051865     1.393803231457    -1.972922004791     1.007825032230
         C            0.221946948135     0.641936231457     2.062335995209    12.000000000000
         C            1.668195948135     0.820723231457     1.607374995209    12.000000000000
         H            2.084051948135     1.754001231457     1.990797995209     1.007825032230
         H            2.291594948135     0.000108231457     1.966227995209     1.007825032230
         H            1.728804948135     0.840115231457     0.518439995209     1.007825032230
         C            0.167554948135     0.610565231457     3.587200995209    12.000000000000
         H           -0.858235051865     0.483145231457     3.936288995209     1.007825032230
         H            0.762960948135    -0.215121768543     3.979754995209     1.007825032230
         H            0.555849948135     1.538450231457     4.010106995209     1.007825032230
         C           -0.327433051865    -0.667555768543     1.502039995209    12.000000000000
         H           -1.362307051865    -0.817830768543     1.814711995209     1.007825032230
         H            0.259022948135    -1.516529768543     1.857850995209     1.007825032230
         H           -0.298653051865    -0.668008768543     0.411725995209     1.007825032230
         C           -0.619426051865     1.806508231457     1.546130995209    12.000000000000
         H           -0.597885051865     1.842538231457     0.456131995209     1.007825032230
         H           -1.659215051865     1.702738231457     1.860612995209     1.007825032230
         H           -0.243773051865     2.757202231457     1.928237995209     1.007825032230

  Charge       = 0
  Multiplicity = 1
  Basis Set: AUG-CC-PVQZ
    Blend: AUG-CC-PVQZ
  Basis Set: (AUG-CC-PVQZ AUX)
    Blend: AUG-CC-PVQZ-JKFIT

    Orbital Energies [Eh]
    ---------------------

    Doubly Occupied:

       1A    -11.237655     2A    -11.237048     3A    -11.236930
       4A    -11.235807     5A    -11.235739     6A    -11.235075
       7A    -11.216737     8A    -11.197661     9A    -11.196545
      10A    -11.196524    11A    -11.189655    12A     -1.153957
      13A     -1.097513    14A     -1.018017    15A     -1.017779
      16A     -0.921688    17A     -0.921281    18A     -0.917472
      19A     -0.827108    20A     -0.827053    21A     -0.721788
      22A     -0.713001    23A     -0.647089    24A     -0.622209
      25A     -0.606658    26A     -0.604308    27A     -0.603392
      28A     -0.591085    29A     -0.590877    30A     -0.546775
      31A     -0.545382    32A     -0.514332    33A     -0.502989
      34A     -0.500527    35A     -0.497861    36A     -0.497559
      37A     -0.493109    38A     -0.444309    39A     -0.443404
      40A     -0.437178    41A     -0.340350    42A     -0.339820

  @DF-RHF Final Energy:  -427.20068533765499

   => Energetics <=

    Nuclear Repulsion Energy =            611.9179087966947463
    One-Electron Energy =               -1790.3946927888250684
    Two-Electron Energy =                 751.2760986544752768
    Total Energy =                       -427.2006853376550453

  Dipole Moment: [D]
     X:    -0.0634      Y:    -0.1731      Z:    -0.4233     Total:     0.4617

  Basis Set: (AUG-CC-PVQZ AUX)
    Blend: AUG-CC-PVQZ-RI
	 Reference Energy          =    -427.2006853376549884 [Eh]
	 Singles Energy            =      -0.0000000000000000 [Eh]
	 Same-Spin Energy          =      -0.5008111795676021 [Eh]
	 Opposite-Spin Energy      =      -1.8105443491308861 [Eh]
	 Correlation Energy        =      -2.3113555286984884 [Eh]
	 Total Energy              =    -429.5120408663534590 [Eh]

	 ================> DF-SCS-MP2 Energies <==================
	-----------------------------------------------------------
	 SCS Same-Spin Scale       =       0.3333333333333333 [-]
	 SCS Opposite-Spin Scale   =       1.2000000000000000 [-]
	 SCS Same-Spin Energy      =      -0.1669370598558674 [Eh]
	 SCS Opposite-Spin Energy  =      -2.1726532189570631 [Eh]
	 SCS Correlation Energy    =      -2.3395902788129304 [Eh]
	 SCS Total Energy          =    -429.5402756164679090 [Eh]
	-----------------------------------------------------------

*** Psi4 exiting successfully. Buy a developer a beer!
