                               Psi4 1.4a2.dev224

  ==> Input File <==

--------------------------------------------------------------------------
#Generated by lconvert.py for cbs job

memory 20 GB

molecule  {
0 1
  C       0.311950    0.561020    0.496700
  H       0.742140    1.553370    0.481570
  C       1.142180   -0.558070    0.536060
  H       2.216510   -0.434250    0.552350
  C       0.587800   -1.836690    0.554140
  H       1.231910   -2.704840    0.585220
  C      -0.796660   -1.996380    0.532960
  H      -1.226770   -2.988440    0.548640
  C      -1.626890   -0.877470    0.494170
  H      -2.701120   -1.001350    0.479810
  C      -1.072660    0.401210    0.475970
  H      -1.716970    1.269400    0.445920
--
0 1
  C       0.081390    0.434960    7.041180
  C       1.527640    0.613750    6.586220
  H       1.943500    1.547030    6.969650
  H       2.151040   -0.206860    6.945080
  H       1.588250    0.633140    5.497290
  C       0.027000    0.403590    8.566050
  H      -0.998790    0.276170    8.915140
  H       0.622400   -0.422090    8.958600
  H       0.415290    1.331480    8.988960
  C      -0.467990   -0.874530    6.480890
  H      -1.502860   -1.024800    6.793560
  H       0.118470   -1.723500    6.836700
  H      -0.439210   -0.874980    5.390580
  C      -0.759980    1.599540    6.524980
  H      -0.738440    1.635570    5.434980
  H      -1.799770    1.495770    6.839460
  H      -0.384330    2.550230    6.907090
units angstrom
no_reorient
symmetry c1
}

set {
scf_type DF
mp2_type DF
e_convergence 7
reference rhf
}

energy('mp2/aug-cc-pv[tq]z', bsse_type='cp')
--------------------------------------------------------------------------

    Molecular point group: c1
  Charge       = 0
  Multiplicity = 1
  Basis Set: AUG-CC-PVTZ
    Blend: AUG-CC-PVTZ
  Basis Set: (AUG-CC-PVTZ AUX)
    Blend: AUG-CC-PVTZ-JKFIT
  @DF-RHF Final Energy:  -196.40449779710832
    Total Energy =                       -196.4044977971083199
  Basis Set: (AUG-CC-PVTZ AUX)
    Blend: AUG-CC-PVTZ-RI
	 Reference Energy          =    -196.4044977971083199 [Eh]
	 Singles Energy            =      -0.0000000000000000 [Eh]
	 Same-Spin Energy          =      -0.2117565062532729 [Eh]
	 Opposite-Spin Energy      =      -0.7978680149220678 [Eh]
	 Correlation Energy        =      -1.0096245211753407 [Eh]
	 Total Energy              =    -197.4141223182836598 [Eh]
	 SCS Total Energy          =    -197.4325249170992151 [Eh]
    Molecular point group: c1
  Basis Set: AUG-CC-PVQZ
    Blend: AUG-CC-PVQZ
  Basis Set: (AUG-CC-PVQZ AUX)
    Blend: AUG-CC-PVQZ-JKFIT
  @DF-RHF Final Energy:  -196.41634264866298
    Total Energy =                       -196.4163426486629760
  Basis Set: (AUG-CC-PVQZ AUX)
  @DF-RHF Final Energy:  -196.40450364722651
    Total Energy =                       -196.4045036472264769
  @DF-RHF Final Energy:  -196.41634489422455
    Total Energy =                       -196.4163448942245509
  @DF-RHF Final Energy:  -230.78129868910247
    Total Energy =                       -230.7812986891024707
  @DF-RHF Final Energy:  -230.79443933388825
    Total Energy =                       -230.7944393338882492
  @DF-RHF Final Energy:  -230.78125095620388
    Total Energy =                       -230.7812509562038485
  @DF-RHF Final Energy:  -230.79442561033409
    Total Energy =                       -230.7944256103340877
  Multiplicity = 1
  @DF-RHF Final Energy:  -427.18591791893192
    Total Energy =                       -427.1859179189319775
	 Singles Energy            =      -0.0000000000000000 [Eh]
	 Same-Spin Energy          =      -0.4675242381827667 [Eh]
	 Opposite-Spin Energy      =      -1.6170229894833978 [Eh]
	 Correlation Energy        =      -2.0845472276661647 [Eh]
	 Total Energy              =    -429.2704651465980987 [Eh]
	 SCS Total Energy          =    -429.2821869190395887 [Eh]
    Molecular point group: c1

    Geometry (in Angstrom), charge = 0, multiplicity = 1:

       Center              X                  Y                   Z               Mass
    ------------   -----------------  -----------------  -----------------  -----------------
         C            0.398782705315     0.725070362771    -3.151392312325    12.000000000000
         H            0.828972705315     1.717420362771    -3.166522312325     1.007825032230
         C            1.229012705315    -0.394019637229    -3.112032312325    12.000000000000
         H            2.303342705315    -0.270199637229    -3.095742312325     1.007825032230
         C            0.674632705315    -1.672639637229    -3.093952312325    12.000000000000
         H            1.318742705315    -2.540789637229    -3.062872312325     1.007825032230
         C           -0.709827294685    -1.832329637229    -3.115132312325    12.000000000000
         H           -1.139937294685    -2.824389637229    -3.099452312325     1.007825032230
         C           -1.540057294685    -0.713419637229    -3.153922312325    12.000000000000
         H           -2.614287294685    -0.837299637229    -3.168282312325     1.007825032230
         C           -0.985827294685     0.565260362771    -3.172122312325    12.000000000000
         H           -1.630137294685     1.433450362771    -3.202172312325     1.007825032230
         C            0.168222705315     0.599010362771     3.393087687675    12.000000000000
         C            1.614472705315     0.777800362771     2.938127687675    12.000000000000
         H            2.030332705315     1.711080362771     3.321557687675     1.007825032230
         H            2.237872705315    -0.042809637229     3.296987687675     1.007825032230
         H            1.675082705315     0.797190362771     1.849197687675     1.007825032230
         C            0.113832705315     0.567640362771     4.917957687675    12.000000000000
         H           -0.911957294685     0.440220362771     5.267047687675     1.007825032230
         H            0.709232705315    -0.258039637229     5.310507687675     1.007825032230
         H            0.502122705315     1.495530362771     5.340867687675     1.007825032230
         C           -0.381157294685    -0.710479637229     2.832797687675    12.000000000000
         H           -1.416027294685    -0.860749637229     3.145467687675     1.007825032230
         H            0.205302705315    -1.559449637229     3.188607687675     1.007825032230
         H           -0.352377294685    -0.710929637229     1.742487687675     1.007825032230
         C           -0.673147294685     1.763590362771     2.876887687675    12.000000000000
         H           -0.651607294685     1.799620362771     1.786887687675     1.007825032230
         H           -1.712937294685     1.659820362771     3.191367687675     1.007825032230
         H           -0.297497294685     2.714280362771     3.258997687675     1.007825032230

  Charge       = 0
  Multiplicity = 1
  Basis Set: AUG-CC-PVQZ
    Blend: AUG-CC-PVQZ
  Basis Set: (AUG-CC-PVQZ AUX)
    Blend: AUG-CC-PVQZ-JKFIT

    Orbital Energies [Eh]
    ---------------------

    Doubly Occupied:

       1A    -11.235799     2A    -11.235223     3A    -11.235210
       4A    -11.233983     5A    -11.233963     6A    -11.233359
       7A    -11.222879     8A    -11.202546     9A    -11.201958
      10A    -11.201938    11A    -11.201243    12A     -1.150641
      13A     -1.103611    14A     -1.015120    15A     -1.015058
      16A     -0.926425    17A     -0.925848    18A     -0.925328
      19A     -0.824603    20A     -0.824555    21A     -0.726920
      22A     -0.710296    23A     -0.644710    24A     -0.619768
      25A     -0.609559    26A     -0.609245    27A     -0.609006
      28A     -0.588725    29A     -0.588672    30A     -0.550604
      31A     -0.550241    32A     -0.507030    33A     -0.506899
      34A     -0.506486    35A     -0.503137    36A     -0.495566
      37A     -0.495556    38A     -0.450261    39A     -0.449577
      40A     -0.449419    41A     -0.337540    42A     -0.337502

  @DF-RHF Final Energy:  -427.21089885702202

   => Energetics <=

    Nuclear Repulsion Energy =            539.5949328748704374
    One-Electron Energy =               -1645.6196521665763157
    Two-Electron Energy =                 678.8138204346838620
    Total Energy =                       -427.2108988570220163

  Dipole Moment: [D]
     X:    -0.0123      Y:    -0.0346      Z:    -0.0991     Total:     0.1057

  Basis Set: (AUG-CC-PVQZ AUX)
    Blend: AUG-CC-PVQZ-RI
	 Reference Energy          =    -427.2108988570220163 [Eh]
	 Singles Energy            =      -0.0000000000000000 [Eh]
	 Same-Spin Energy          =      -0.4938173439078128 [Eh]
	 Opposite-Spin Energy      =      -1.8014216509662875 [Eh]
	 Correlation Energy        =      -2.2952389948741003 [Eh]
	 Total Energy              =    -429.5061378518961419 [Eh]

	 ================> DF-SCS-MP2 Energies <==================
	-----------------------------------------------------------
	 SCS Same-Spin Scale       =       0.3333333333333333 [-]
	 SCS Opposite-Spin Scale   =       1.2000000000000000 [-]
	 SCS Same-Spin Energy      =      -0.1646057813026043 [Eh]
	 SCS Opposite-Spin Energy  =      -2.1617059811595447 [Eh]
	 SCS Correlation Energy    =      -2.3263117624621490 [Eh]
	 SCS Total Energy          =    -429.5372106194841422 [Eh]
	-----------------------------------------------------------

*** Psi4 exiting successfully. Buy a developer a beer!
