                               Psi4 1.4a2.dev224

  ==> Input File <==

--------------------------------------------------------------------------
#Generated by lconvert.py for cbs job

memory 40 GB

molecule  {
0 1
  C        0.3119540     0.5610230     0.4966990
  H        0.7421360     1.5533690     0.4815660
  C        1.1421820    -0.5580750     0.5360620
  H        2.2165110    -0.4342500     0.5523500
  C        0.5878040    -1.8366870     0.5541440
  H        1.2319120    -2.7048420     0.5852220
  C       -0.7966580    -1.9963760     0.5329630
  H       -1.2267740    -2.9884440     0.5486370
  C       -1.6268930    -0.8774740     0.4941680
  H       -2.7011220    -1.0013500     0.4798150
  C       -1.0726650     0.4012060     0.4759740
  H       -1.7169740     1.2694010     0.4459200
--
0 1
  C        0.1989950     0.5289230     4.1280860
  C        1.6452430     0.7077100     3.6731240
  H        2.0611000     1.6409880     4.0565470
  H        2.2686430    -0.1129060     4.0319780
  H        1.7058520     0.7271010     2.5841900
  C        0.1446030     0.4975510     5.6529510
  H       -0.8811870     0.3701310     6.0020390
  H        0.7400090    -0.3281350     6.0455050
  H        0.5328980     1.4254360     6.0758570
  C       -0.3503850    -0.7805690     3.5677900
  H       -1.3852590    -0.9308440     3.8804610
  H        0.2360710    -1.6295430     3.9236010
  H       -0.3216060    -0.7810220     2.4774750
  C       -0.6423780     1.6934940     3.6118800
  H       -0.6208370     1.7295250     2.5218820
  H       -1.6821670     1.5897250     3.9263630
  H       -0.2667260     2.6441890     3.9939870
units angstrom
no_reorient
symmetry c1
}

set {
scf_type DF
mp2_type DF
e_convergence 7
reference rhf
}

energy('mp2/aug-cc-pv[tq]z', bsse_type='cp')
--------------------------------------------------------------------------

    Molecular point group: c1
  Charge       = 0
  Multiplicity = 1
  Basis Set: AUG-CC-PVTZ
    Blend: AUG-CC-PVTZ
  Basis Set: (AUG-CC-PVTZ AUX)
    Blend: AUG-CC-PVTZ-JKFIT
  @DF-RHF Final Energy:  -196.40449761885088
    Total Energy =                       -196.4044976188508826
  Basis Set: (AUG-CC-PVTZ AUX)
    Blend: AUG-CC-PVTZ-RI
	 Reference Energy          =    -196.4044976188508826 [Eh]
	 Singles Energy            =      -0.0000000000000000 [Eh]
	 Same-Spin Energy          =      -0.2117565594092728 [Eh]
	 Opposite-Spin Energy      =      -0.7978681516845874 [Eh]
	 Correlation Energy        =      -1.0096247110938601 [Eh]
	 Total Energy              =    -197.4141223299447461 [Eh]
	 SCS Total Energy          =    -197.4325249206754904 [Eh]
    Molecular point group: c1
  Basis Set: AUG-CC-PVQZ
    Blend: AUG-CC-PVQZ
  Basis Set: (AUG-CC-PVQZ AUX)
    Blend: AUG-CC-PVQZ-JKFIT
  @DF-RHF Final Energy:  -196.41634246161283
    Total Energy =                       -196.4163424616128282
  Basis Set: (AUG-CC-PVQZ AUX)
  @DF-RHF Final Energy:  -196.40456782814405
    Total Energy =                       -196.4045678281440814
  @DF-RHF Final Energy:  -196.41636190422000
    Total Energy =                       -196.4163619042200253
  @DF-RHF Final Energy:  -230.78169242275865
    Total Energy =                       -230.7816924227586242
  @DF-RHF Final Energy:  -230.79451960099220
    Total Energy =                       -230.7945196009922029
  @DF-RHF Final Energy:  -230.78125076786654
    Total Energy =                       -230.7812507678665384
  @DF-RHF Final Energy:  -230.79442541216292
    Total Energy =                       -230.7944254121629228
  Multiplicity = 1
  @DF-RHF Final Energy:  -427.15850592250638
    Total Energy =                       -427.1585059225063787
	 Singles Energy            =      -0.0000000000000000 [Eh]
	 Same-Spin Energy          =      -0.4795088025162467 [Eh]
	 Opposite-Spin Energy      =      -1.6370651691991627 [Eh]
	 Correlation Energy        =      -2.1165739717154093 [Eh]
	 Total Energy              =    -429.2750798942217898 [Eh]
	 SCS Total Energy          =    -429.2828203930507698 [Eh]
    Molecular point group: c1

    Geometry (in Angstrom), charge = 0, multiplicity = 1:

       Center              X                  Y                   Z               Mass
    ------------   -----------------  -----------------  -----------------  -----------------
         C            0.342316151915     0.679956703758    -1.752596825931    12.000000000000
         H            0.772498151915     1.672302703758    -1.767729825931     1.007825032230
         C            1.172544151915    -0.439141296242    -1.713233825931    12.000000000000
         H            2.246873151915    -0.315316296242    -1.696945825931     1.007825032230
         C            0.618166151915    -1.717753296242    -1.695151825931    12.000000000000
         H            1.262274151915    -2.585908296242    -1.664073825931     1.007825032230
         C           -0.766295848085    -1.877442296242    -1.716332825931    12.000000000000
         H           -1.196411848085    -2.869510296242    -1.700658825931     1.007825032230
         C           -1.596530848085    -0.758540296242    -1.755127825931    12.000000000000
         H           -2.670759848085    -0.882416296242    -1.769480825931     1.007825032230
         C           -1.042302848085     0.520139703758    -1.773321825931    12.000000000000
         H           -1.686611848085     1.388334703758    -1.803375825931     1.007825032230
         C            0.229357151915     0.647856703758     1.878790174069    12.000000000000
         C            1.675605151915     0.826643703758     1.423828174069    12.000000000000
         H            2.091462151915     1.759921703758     1.807251174069     1.007825032230
         H            2.299005151915     0.006027703758     1.782682174069     1.007825032230
         H            1.736214151915     0.846034703758     0.334894174069     1.007825032230
         C            0.174965151915     0.616484703758     3.403655174069    12.000000000000
         H           -0.850824848085     0.489064703758     3.752743174069     1.007825032230
         H            0.770371151915    -0.209201296242     3.796209174069     1.007825032230
         H            0.563260151915     1.544369703758     3.826561174069     1.007825032230
         C           -0.320022848085    -0.661635296242     1.318494174069    12.000000000000
         H           -1.354896848085    -0.811910296242     1.631165174069     1.007825032230
         H            0.266433151915    -1.510609296242     1.674305174069     1.007825032230
         H           -0.291243848085    -0.662088296242     0.228179174069     1.007825032230
         C           -0.612015848085     1.812427703758     1.362584174069    12.000000000000
         H           -0.590474848085     1.848458703758     0.272586174069     1.007825032230
         H           -1.651804848085     1.708658703758     1.677067174069     1.007825032230
         H           -0.236363848085     2.763122703758     1.744691174069     1.007825032230

  Charge       = 0
  Multiplicity = 1
  Basis Set: AUG-CC-PVQZ
    Blend: AUG-CC-PVQZ
  Basis Set: (AUG-CC-PVQZ AUX)
    Blend: AUG-CC-PVQZ-JKFIT

    Orbital Energies [Eh]
    ---------------------

    Doubly Occupied:

       1A    -11.238081     2A    -11.237384     3A    -11.237043
       4A    -11.236182     5A    -11.235895     6A    -11.235137
       7A    -11.214688     8A    -11.195996     9A    -11.194685
      10A    -11.194663    11A    -11.184105    12A     -1.156576
      13A     -1.095671    14A     -1.019859    15A     -1.019216
      16A     -0.920571    17A     -0.920438    18A     -0.915445
      19A     -0.828418    20A     -0.828190    21A     -0.721235
      22A     -0.714908    23A     -0.648259    24A     -0.623610
      25A     -0.610199    26A     -0.603531    27A     -0.602055
      28A     -0.592003    29A     -0.591621    30A     -0.548466
      31A     -0.544452    32A     -0.517221    33A     -0.502375
      34A     -0.499569    35A     -0.498851    36A     -0.497542
      37A     -0.487692    38A     -0.442905    39A     -0.441653
      40A     -0.426820    41A     -0.341100    42A     -0.339719

  @DF-RHF Final Energy:  -427.18314157238126

   => Energetics <=

    Nuclear Repulsion Energy =            627.5856801258474889
    One-Electron Energy =               -1821.7295737484864731
    Two-Electron Energy =                 766.9607520502578382
    Total Energy =                       -427.1831415723812597

  Dipole Moment: [D]
     X:    -0.0722      Y:    -0.1986      Z:    -0.5074     Total:     0.5496

  Basis Set: (AUG-CC-PVQZ AUX)
    Blend: AUG-CC-PVQZ-RI
	 Reference Energy          =    -427.1831415723812597 [Eh]
	 Singles Energy            =      -0.0000000000000000 [Eh]
	 Same-Spin Energy          =      -0.5053793981898491 [Eh]
	 Opposite-Spin Energy      =      -1.8164986159899512 [Eh]
	 Correlation Energy        =      -2.3218780141798003 [Eh]
	 Total Energy              =    -429.5050195865610476 [Eh]

	 ================> DF-SCS-MP2 Energies <==================
	-----------------------------------------------------------
	 SCS Same-Spin Scale       =       0.3333333333333333 [-]
	 SCS Opposite-Spin Scale   =       1.2000000000000000 [-]
	 SCS Same-Spin Energy      =      -0.1684597993966164 [Eh]
	 SCS Opposite-Spin Energy  =      -2.1797983391879412 [Eh]
	 SCS Correlation Energy    =      -2.3482581385845576 [Eh]
	 SCS Total Energy          =    -429.5313997109658430 [Eh]
	-----------------------------------------------------------

*** Psi4 exiting successfully. Buy a developer a beer!
