                               Psi4 1.4a2.dev224

  ==> Input File <==

--------------------------------------------------------------------------
#Generated by lconvert.py for cbs job

memory 20 GB

molecule  {
0 1
  N      -0.208910   -0.964580    0.534760
  H      -0.224150   -1.973110    0.605080
  C      -1.446340   -0.344580    0.306660
  O      -2.461240   -1.010790    0.197890
  C      -1.357780    1.103190    0.228140
  H      -2.256570    1.667730    0.049850
  C      -0.163000    1.709890    0.381130
  H      -0.046290    2.782450    0.333350
  N       0.985450    1.000820    0.611210
  H       1.867560    1.466930    0.744780
  C       1.027020   -0.379170    0.712650
  O       2.049200   -0.997400    0.937260
--
0 1
  C       1.296050    2.377100    5.896840
  H       0.865210    2.688150    4.944050
  H       0.661820    2.782530    6.685080
  H       2.278940    2.837550    5.989960
  C       1.369070    0.858230    5.986360
  H       1.799460    0.568670    6.947650
  H       2.043660    0.467070    5.221240
  C       0.004290    0.200060    5.831540
  H      -0.666960    0.568940    6.613160
  H      -0.443180    0.510330    4.881640
  C       0.060570   -1.320620    5.891170
  H       0.484180   -1.623050    6.851810
  H       0.752100   -1.682500    5.126670
  C      -1.308710   -1.962500    5.707400
  H      -1.747090   -1.689040    4.747210
  H      -1.251770   -3.049270    5.751460
  H      -1.996670   -1.634150    6.486630
units angstrom
no_reorient
symmetry c1
}

set {
scf_type DF
mp2_type DF
e_convergence 7
reference rhf
}

energy('mp2/aug-cc-pv[tq]z', bsse_type='cp')
--------------------------------------------------------------------------

    Molecular point group: c1
  Charge       = 0
  Multiplicity = 1
  Basis Set: AUG-CC-PVTZ
    Blend: AUG-CC-PVTZ
  Basis Set: (AUG-CC-PVTZ AUX)
    Blend: AUG-CC-PVTZ-JKFIT
  @DF-RHF Final Energy:  -196.40429788864199
    Total Energy =                       -196.4042978886419917
  Basis Set: (AUG-CC-PVTZ AUX)
    Blend: AUG-CC-PVTZ-RI
	 Reference Energy          =    -196.4042978886419917 [Eh]
	 Singles Energy            =      -0.0000000000000000 [Eh]
	 Same-Spin Energy          =      -0.2078812914278465 [Eh]
	 Opposite-Spin Energy      =      -0.7930758732393505 [Eh]
	 Correlation Energy        =      -1.0009571646671969 [Eh]
	 Total Energy              =    -197.4052550533091903 [Eh]
	 SCS Total Energy          =    -197.4252827003384994 [Eh]
    Molecular point group: c1
  Basis Set: AUG-CC-PVQZ
    Blend: AUG-CC-PVQZ
  Basis Set: (AUG-CC-PVQZ AUX)
    Blend: AUG-CC-PVQZ-JKFIT
  @DF-RHF Final Energy:  -196.41611826365889
    Total Energy =                       -196.4161182636588876
  Basis Set: (AUG-CC-PVQZ AUX)
  @DF-RHF Final Energy:  -196.40431006305002
    Total Energy =                       -196.4043100630500192
  @DF-RHF Final Energy:  -196.41612390307742
    Total Energy =                       -196.4161239030774198
  @DF-RHF Final Energy:  -412.62465224588044
    Total Energy =                       -412.6246522458804407
  @DF-RHF Final Energy:  -412.65012508633492
    Total Energy =                       -412.6501250863349242
  @DF-RHF Final Energy:  -412.62456176940714
    Total Energy =                       -412.6245617694071370
  @DF-RHF Final Energy:  -412.65009508292616
    Total Energy =                       -412.6500950829261569
  Multiplicity = 1
  @DF-RHF Final Energy:  -609.02902755697187
    Total Energy =                       -609.0290275569718688
	 Singles Energy            =      -0.0000000000000000 [Eh]
	 Same-Spin Energy          =      -0.6228005354660944 [Eh]
	 Opposite-Spin Energy      =      -2.0213306338335446 [Eh]
	 Correlation Energy        =      -2.6441311692996390 [Eh]
	 Total Energy              =    -611.6731587262714811 [Eh]
	 SCS Total Energy          =    -611.6622244960608441 [Eh]
    Molecular point group: c1

    Geometry (in Angstrom), charge = 0, multiplicity = 1:

       Center              X                  Y                   Z               Mass
    ------------   -----------------  -----------------  -----------------  -----------------
         N           -0.209965193620    -0.964643910019    -2.061623961367    14.003074004430
         H           -0.225205193620    -1.973173910019    -1.991303961367     1.007825032230
         C           -1.447395193620    -0.344643910019    -2.289723961367    12.000000000000
         O           -2.462295193620    -1.010853910019    -2.398493961367    15.994914619570
         C           -1.358835193620     1.103126089981    -2.368243961367    12.000000000000
         H           -2.257625193620     1.667666089981    -2.546533961367     1.007825032230
         C           -0.164055193620     1.709826089981    -2.215253961367    12.000000000000
         H           -0.047345193620     2.782386089981    -2.263033961367     1.007825032230
         N            0.984394806380     1.000756089981    -1.985173961367    14.003074004430
         H            1.866504806380     1.466866089981    -1.851603961367     1.007825032230
         C            1.025964806380    -0.379233910019    -1.883733961367    12.000000000000
         O            2.048144806380    -0.997463910019    -1.659123961367    15.994914619570
         C            1.294994806380     2.377036089981     3.300456038633    12.000000000000
         H            0.864154806380     2.688086089981     2.347666038633     1.007825032230
         H            0.660764806380     2.782466089981     4.088696038633     1.007825032230
         H            2.277884806380     2.837486089981     3.393576038633     1.007825032230
         C            1.368014806380     0.858166089981     3.389976038633    12.000000000000
         H            1.798404806380     0.568606089981     4.351266038633     1.007825032230
         H            2.042604806380     0.467006089981     2.624856038633     1.007825032230
         C            0.003234806380     0.199996089981     3.235156038633    12.000000000000
         H           -0.668015193620     0.568876089981     4.016776038633     1.007825032230
         H           -0.444235193620     0.510266089981     2.285256038633     1.007825032230
         C            0.059514806380    -1.320683910019     3.294786038633    12.000000000000
         H            0.483124806380    -1.623113910019     4.255426038633     1.007825032230
         H            0.751044806380    -1.682563910019     2.530286038633     1.007825032230
         C           -1.309765193620    -1.962563910019     3.111016038633    12.000000000000
         H           -1.748145193620    -1.689103910019     2.150826038633     1.007825032230
         H           -1.252825193620    -3.049333910019     3.155076038633     1.007825032230
         H           -1.997725193620    -1.634213910019     3.890246038633     1.007825032230

  Charge       = 0
  Multiplicity = 1
  Basis Set: AUG-CC-PVQZ
    Blend: AUG-CC-PVQZ
  Basis Set: (AUG-CC-PVQZ AUX)
    Blend: AUG-CC-PVQZ-JKFIT

    Orbital Energies [Eh]
    ---------------------

    Doubly Occupied:

       1A    -20.545747     2A    -20.540203     3A    -15.643488
       4A    -15.626493     5A    -11.418953     6A    -11.380855
       7A    -11.340734     8A    -11.255351     9A    -11.213907
      10A    -11.211219    11A    -11.211150    12A    -11.210536
      13A    -11.204505    14A     -1.436766    15A     -1.398573
      16A     -1.314168    17A     -1.246477    18A     -1.089112
      19A     -1.082130    20A     -1.016225    21A     -0.934516
      22A     -0.920169    23A     -0.902486    24A     -0.821207
      25A     -0.808117    26A     -0.786469    27A     -0.766298
      28A     -0.715526    29A     -0.678669    30A     -0.670323
      31A     -0.654123    32A     -0.648130    33A     -0.616175
      34A     -0.602849    35A     -0.599934    36A     -0.593687
      37A     -0.572064    38A     -0.555717    39A     -0.548984
      40A     -0.527307    41A     -0.526794    42A     -0.496651
      43A     -0.485168    44A     -0.476955    45A     -0.463812
      46A     -0.460008    47A     -0.450691    48A     -0.447828
      49A     -0.438396    50A     -0.370224

  @DF-RHF Final Energy:  -609.06631428368803

   => Energetics <=

    Nuclear Repulsion Energy =            759.8459624124863012
    One-Electron Energy =               -2335.9728013101689612
    Two-Electron Energy =                 967.0605246139947440
    Total Energy =                       -609.0663142836880297

  Dipole Moment: [D]
     X:     1.4288      Y:     4.6379      Z:    -0.0461     Total:     4.8532

  Basis Set: (AUG-CC-PVQZ AUX)
    Blend: AUG-CC-PVQZ-RI
	 Reference Energy          =    -609.0663142836880297 [Eh]
	 Singles Energy            =      -0.0000000000000000 [Eh]
	 Same-Spin Energy          =      -0.6595632550182491 [Eh]
	 Opposite-Spin Energy      =      -2.2679054215889587 [Eh]
	 Correlation Energy        =      -2.9274686766072078 [Eh]
	 Total Energy              =    -611.9937829602952206 [Eh]

	 ================> DF-SCS-MP2 Energies <==================
	-----------------------------------------------------------
	 SCS Same-Spin Scale       =       0.3333333333333333 [-]
	 SCS Opposite-Spin Scale   =       1.2000000000000000 [-]
	 SCS Same-Spin Energy      =      -0.2198544183394164 [Eh]
	 SCS Opposite-Spin Energy  =      -2.7214865059067503 [Eh]
	 SCS Correlation Energy    =      -2.9413409242461666 [Eh]
	 SCS Total Energy          =    -612.0076552079342491 [Eh]
	-----------------------------------------------------------

*** Psi4 exiting successfully. Buy a developer a beer!
