                               Psi4 1.4a2.dev224

  ==> Input File <==

--------------------------------------------------------------------------
#Generated by lconvert.py for cbs job

memory 40 GB

molecule  {
0 1
  N       -0.2089050    -0.9645830     0.5347610
  H       -0.2241510    -1.9731090     0.6050840
  C       -1.4463420    -0.3445810     0.3066590
  O       -2.4612370    -1.0107920     0.1978920
  C       -1.3577820     1.1031860     0.2281440
  H       -2.2565720     1.6677310     0.0498470
  C       -0.1630030     1.7098930     0.3811260
  H       -0.0462900     2.7824460     0.3333500
  N        0.9854520     1.0008240     0.6112060
  H        1.8675600     1.4669280     0.7447840
  C        1.0270210    -0.3791700     0.7126470
  O        2.0491970    -0.9973950     0.9372600
--
0 1
  C        1.1317290     2.3557750     3.9418820
  H        0.7008810     2.6668240     2.9890990
  H        0.4974960     2.7612080     4.7301290
  H        2.1146100     2.8162220     4.0350030
  C        1.2047460     0.8369040     4.0314000
  H        1.6351300     0.5473410     4.9926910
  H        1.8793360     0.4457430     3.2662820
  C       -0.1600390     0.1787370     3.8765830
  H       -0.8312840     0.5476130     4.6582030
  H       -0.6075100     0.4890020     2.9266830
  C       -0.1037500    -1.3419490     3.9362190
  H        0.3198550    -1.6443800     4.8968550
  H        0.5877710    -1.7038280     3.1717160
  C       -1.4730330    -1.9838220     3.7524450
  H       -1.9114120    -1.7103650     2.7922600
  H       -1.4160940    -3.0705910     3.7965020
  H       -2.1609960    -1.6554760     4.5316780
units angstrom
no_reorient
symmetry c1
}

set {
scf_type DF
mp2_type DF
e_convergence 7
reference rhf
}

energy('mp2/aug-cc-pv[tq]z', bsse_type='cp')
--------------------------------------------------------------------------

    Molecular point group: c1
  Charge       = 0
  Multiplicity = 1
  Basis Set: AUG-CC-PVTZ
    Blend: AUG-CC-PVTZ
  Basis Set: (AUG-CC-PVTZ AUX)
    Blend: AUG-CC-PVTZ-JKFIT
  @DF-RHF Final Energy:  -196.40429805394305
    Total Energy =                       -196.4042980539430516
  Basis Set: (AUG-CC-PVTZ AUX)
    Blend: AUG-CC-PVTZ-RI
	 Reference Energy          =    -196.4042980539430516 [Eh]
	 Singles Energy            =      -0.0000000000000000 [Eh]
	 Same-Spin Energy          =      -0.2078812370031362 [Eh]
	 Opposite-Spin Energy      =      -0.7930757427900849 [Eh]
	 Correlation Energy        =      -1.0009569797932212 [Eh]
	 Total Energy              =    -197.4052550337362675 [Eh]
	 SCS Total Energy          =    -197.4252826909588521 [Eh]
    Molecular point group: c1
  Basis Set: AUG-CC-PVQZ
    Blend: AUG-CC-PVQZ
  Basis Set: (AUG-CC-PVQZ AUX)
    Blend: AUG-CC-PVQZ-JKFIT
  @DF-RHF Final Energy:  -196.41611843944759
    Total Energy =                       -196.4161184394475868
  Basis Set: (AUG-CC-PVQZ AUX)
  @DF-RHF Final Energy:  -196.40436370363216
    Total Energy =                       -196.4043637036321570
  @DF-RHF Final Energy:  -196.41613978483986
    Total Energy =                       -196.4161397848398565
  @DF-RHF Final Energy:  -412.62501990899665
    Total Energy =                       -412.6250199089966486
  @DF-RHF Final Energy:  -412.65021508179336
    Total Energy =                       -412.6502150817933625
  @DF-RHF Final Energy:  -412.62456256721066
    Total Energy =                       -412.6245625672106598
  @DF-RHF Final Energy:  -412.65009592608993
    Total Energy =                       -412.6500959260899322
  Multiplicity = 1
  @DF-RHF Final Energy:  -609.02124057929075
    Total Energy =                       -609.0212405792908612
	 Singles Energy            =      -0.0000000000000000 [Eh]
	 Same-Spin Energy          =      -0.6308737742237761 [Eh]
	 Opposite-Spin Energy      =      -2.0346256272670478 [Eh]
	 Correlation Energy        =      -2.6654994014908238 [Eh]
	 Total Energy              =    -611.6867399807815673 [Eh]
	 SCS Total Energy          =    -611.6730825900857553 [Eh]
    Molecular point group: c1

    Geometry (in Angstrom), charge = 0, multiplicity = 1:

       Center              X                  Y                   Z               Mass
    ------------   -----------------  -----------------  -----------------  -----------------
         N           -0.145618174631    -0.956297052491    -1.296146351262    14.003074004430
         H           -0.160864174631    -1.964823052491    -1.225823351262     1.007825032230
         C           -1.383055174631    -0.336295052491    -1.524248351262    12.000000000000
         O           -2.397950174631    -1.002506052491    -1.633015351262    15.994914619570
         C           -1.294495174631     1.111471947509    -1.602763351262    12.000000000000
         H           -2.193285174631     1.676016947509    -1.781060351262     1.007825032230
         C           -0.099716174631     1.718178947509    -1.449781351262    12.000000000000
         H            0.016996825369     2.790731947509    -1.497557351262     1.007825032230
         N            1.048738825369     1.009109947509    -1.219701351262    14.003074004430
         H            1.930846825369     1.475213947509    -1.086123351262     1.007825032230
         C            1.090307825369    -0.370884052491    -1.118260351262    12.000000000000
         O            2.112483825369    -0.989109052491    -0.893647351262    15.994914619570
         C            1.195015825369     2.364060947509     2.110974648738    12.000000000000
         H            0.764167825369     2.675109947509     1.158191648738     1.007825032230
         H            0.560782825369     2.769493947509     2.899221648738     1.007825032230
         H            2.177896825369     2.824507947509     2.204095648738     1.007825032230
         C            1.268032825369     0.845189947509     2.200492648738    12.000000000000
         H            1.698416825369     0.555626947509     3.161783648738     1.007825032230
         H            1.942622825369     0.454028947509     1.435374648738     1.007825032230
         C           -0.096752174631     0.187022947509     2.045675648738    12.000000000000
         H           -0.767997174631     0.555898947509     2.827295648738     1.007825032230
         H           -0.544223174631     0.497287947509     1.095775648738     1.007825032230
         C           -0.040463174631    -1.333663052491     2.105311648738    12.000000000000
         H            0.383141825369    -1.636094052491     3.065947648738     1.007825032230
         H            0.651057825369    -1.695542052491     1.340808648738     1.007825032230
         C           -1.409746174631    -1.975536052491     1.921537648738    12.000000000000
         H           -1.848125174631    -1.702079052491     0.961352648738     1.007825032230
         H           -1.352807174631    -3.062305052491     1.965594648738     1.007825032230
         H           -2.097709174631    -1.647190052491     2.700770648738     1.007825032230

  Charge       = 0
  Multiplicity = 1
  Basis Set: AUG-CC-PVQZ
    Blend: AUG-CC-PVQZ
  Basis Set: (AUG-CC-PVQZ AUX)
    Blend: AUG-CC-PVQZ-JKFIT

    Orbital Energies [Eh]
    ---------------------

    Doubly Occupied:

       1A    -20.546075     2A    -20.540480     3A    -15.642483
       4A    -15.625895     5A    -11.418878     6A    -11.380898
       7A    -11.340086     8A    -11.254879     9A    -11.218110
      10A    -11.215965    11A    -11.212789    12A    -11.209386
      13A    -11.201195    14A     -1.437449    15A     -1.399292
      16A     -1.314247    17A     -1.246591    18A     -1.089064
      19A     -1.084770    20A     -1.018457    21A     -0.934825
      22A     -0.922557    23A     -0.902512    24A     -0.823294
      25A     -0.808099    26A     -0.788478    27A     -0.766245
      28A     -0.715553    29A     -0.683818    30A     -0.679018
      31A     -0.654576    32A     -0.638588    33A     -0.616363
      34A     -0.603671    35A     -0.602674    36A     -0.600108
      37A     -0.571129    38A     -0.558288    39A     -0.550980
      40A     -0.530434    41A     -0.527893    42A     -0.498302
      43A     -0.486258    44A     -0.479341    45A     -0.464630
      46A     -0.460164    47A     -0.450608    48A     -0.449544
      49A     -0.437743    50A     -0.369961

  @DF-RHF Final Energy:  -609.05822208250731

   => Energetics <=

    Nuclear Repulsion Energy =            850.4416644697454331
    One-Electron Energy =               -2517.0544741345265720
    Two-Electron Energy =                1057.5545875822738253
    Total Energy =                       -609.0582220825074273

  Dipole Moment: [D]
     X:     1.4176      Y:     4.5324      Z:     0.0185     Total:     4.7490

  Basis Set: (AUG-CC-PVQZ AUX)
    Blend: AUG-CC-PVQZ-RI
	 Reference Energy          =    -609.0582220825073136 [Eh]
	 Singles Energy            =      -0.0000000000000000 [Eh]
	 Same-Spin Energy          =      -0.6673507255301077 [Eh]
	 Opposite-Spin Energy      =      -2.2778328409643764 [Eh]
	 Correlation Energy        =      -2.9451835664944843 [Eh]
	 Total Energy              =    -612.0034056490018202 [Eh]

	 ================> DF-SCS-MP2 Energies <==================
	-----------------------------------------------------------
	 SCS Same-Spin Scale       =       0.3333333333333333 [-]
	 SCS Opposite-Spin Scale   =       1.2000000000000000 [-]
	 SCS Same-Spin Energy      =      -0.2224502418433692 [Eh]
	 SCS Opposite-Spin Energy  =      -2.7333994091572515 [Eh]
	 SCS Correlation Energy    =      -2.9558496510006207 [Eh]
	 SCS Total Energy          =    -612.0140717335079898 [Eh]
	-----------------------------------------------------------

*** Psi4 exiting successfully. Buy a developer a beer!
