                               Psi4 1.4a2.dev224

  ==> Input File <==

--------------------------------------------------------------------------
#Generated by lconvert.py for cbs job

memory 20 GB

molecule  {
0 1
  N      -0.208910   -0.964580    0.534760
  H      -0.224150   -1.973110    0.605080
  C      -1.446340   -0.344580    0.306660
  O      -2.461240   -1.010790    0.197890
  C      -1.357780    1.103190    0.228140
  H      -2.256570    1.667730    0.049850
  C      -0.163000    1.709890    0.381130
  H      -0.046290    2.782450    0.333350
  N       0.985450    1.000820    0.611210
  H       1.867560    1.466930    0.744780
  C       1.027020   -0.379170    0.712650
  O       2.049200   -0.997400    0.937260
--
0 1
  C       1.221020    2.367360    5.004140
  H       0.790170    2.678410    4.051360
  H       0.586790    2.772800    5.792390
  H       2.203900    2.827810    5.097260
  C       1.294040    0.848490    5.093660
  H       1.724420    0.558930    6.054950
  H       1.968630    0.457330    4.328540
  C      -0.070750    0.190320    4.938840
  H      -0.741990    0.559200    5.720460
  H      -0.518220    0.500590    3.988940
  C      -0.014460   -1.330360    4.998480
  H       0.409140   -1.632790    5.959120
  H       0.677060   -1.692240    4.233980
  C      -1.383740   -1.972230    4.814710
  H      -1.822120   -1.698780    3.854520
  H      -1.326810   -3.059000    4.858760
  H      -2.071710   -1.643890    5.593940
units angstrom
no_reorient
symmetry c1
}

set {
scf_type DF
mp2_type DF
e_convergence 7
reference rhf
}

energy('mp2/aug-cc-pv[tq]z', bsse_type='cp')
--------------------------------------------------------------------------

    Molecular point group: c1
  Charge       = 0
  Multiplicity = 1
  Basis Set: AUG-CC-PVTZ
    Blend: AUG-CC-PVTZ
  Basis Set: (AUG-CC-PVTZ AUX)
    Blend: AUG-CC-PVTZ-JKFIT
  @DF-RHF Final Energy:  -196.40429804787070
    Total Energy =                       -196.4042980478706966
  Basis Set: (AUG-CC-PVTZ AUX)
    Blend: AUG-CC-PVTZ-RI
	 Reference Energy          =    -196.4042980478706966 [Eh]
	 Singles Energy            =      -0.0000000000000000 [Eh]
	 Same-Spin Energy          =      -0.2078812639886363 [Eh]
	 Opposite-Spin Energy      =      -0.7930757329719167 [Eh]
	 Correlation Energy        =      -1.0009569969605530 [Eh]
	 Total Energy              =    -197.4052550448312502 [Eh]
	 SCS Total Energy          =    -197.4252826820998621 [Eh]
    Molecular point group: c1
  Basis Set: AUG-CC-PVQZ
    Blend: AUG-CC-PVQZ
  Basis Set: (AUG-CC-PVQZ AUX)
    Blend: AUG-CC-PVQZ-JKFIT
  @DF-RHF Final Energy:  -196.41611843494366
    Total Energy =                       -196.4161184349436553
  Basis Set: (AUG-CC-PVQZ AUX)
  @DF-RHF Final Energy:  -196.40432188856556
    Total Energy =                       -196.4043218885655619
  @DF-RHF Final Energy:  -196.41612817015826
    Total Energy =                       -196.4161281701582595
  @DF-RHF Final Energy:  -412.62475924871285
    Total Energy =                       -412.6247592487128486
  @DF-RHF Final Energy:  -412.65015131243462
    Total Energy =                       -412.6501513124346161
  @DF-RHF Final Energy:  -412.62456177429391
    Total Energy =                       -412.6245617742939089
  @DF-RHF Final Energy:  -412.65009508313574
    Total Energy =                       -412.6500950831357386
  Multiplicity = 1
  @DF-RHF Final Energy:  -609.02903689716061
    Total Energy =                       -609.0290368971606085
	 Singles Energy            =      -0.0000000000000000 [Eh]
	 Same-Spin Energy          =      -0.6241896448742801 [Eh]
	 Opposite-Spin Energy      =      -2.0238944732238755 [Eh]
	 Correlation Energy        =      -2.6480841180981556 [Eh]
	 Total Energy              =    -611.6771210152587628 [Eh]
	 SCS Total Energy          =    -611.6657734799873651 [Eh]
    Molecular point group: c1

    Geometry (in Angstrom), charge = 0, multiplicity = 1:

       Center              X                  Y                   Z               Mass
    ------------   -----------------  -----------------  -----------------  -----------------
         N           -0.180585596782    -0.960830907942    -1.712082832055    14.003074004430
         H           -0.195825596782    -1.969360907942    -1.641762832055     1.007825032230
         C           -1.418015596782    -0.340830907942    -1.940182832055    12.000000000000
         O           -2.432915596782    -1.007040907942    -2.048952832055    15.994914619570
         C           -1.329455596782     1.106939092058    -2.018702832055    12.000000000000
         H           -2.228245596782     1.671479092058    -2.196992832055     1.007825032230
         C           -0.134675596782     1.713639092058    -1.865712832055    12.000000000000
         H           -0.017965596782     2.786199092058    -1.913492832055     1.007825032230
         N            1.013774403218     1.004569092058    -1.635632832055    14.003074004430
         H            1.895884403218     1.470679092058    -1.502062832055     1.007825032230
         C            1.055344403218    -0.375420907942    -1.534192832055    12.000000000000
         O            2.077524403218    -0.993650907942    -1.309582832055    15.994914619570
         C            1.249344403218     2.371109092058     2.757297167945    12.000000000000
         H            0.818494403218     2.682159092058     1.804517167945     1.007825032230
         H            0.615114403218     2.776549092058     3.545547167945     1.007825032230
         H            2.232224403218     2.831559092058     2.850417167945     1.007825032230
         C            1.322364403218     0.852239092058     2.846817167945    12.000000000000
         H            1.752744403218     0.562679092058     3.808107167945     1.007825032230
         H            1.996954403218     0.461079092058     2.081697167945     1.007825032230
         C           -0.042425596782     0.194069092058     2.691997167945    12.000000000000
         H           -0.713665596782     0.562949092058     3.473617167945     1.007825032230
         H           -0.489895596782     0.504339092058     1.742097167945     1.007825032230
         C            0.013864403218    -1.326610907942     2.751637167945    12.000000000000
         H            0.437464403218    -1.629040907942     3.712277167945     1.007825032230
         H            0.705384403218    -1.688490907942     1.987137167945     1.007825032230
         C           -1.355415596782    -1.968480907942     2.567867167945    12.000000000000
         H           -1.793795596782    -1.695030907942     1.607677167945     1.007825032230
         H           -1.298485596782    -3.055250907942     2.611917167945     1.007825032230
         H           -2.043385596782    -1.640140907942     3.347097167945     1.007825032230

  Charge       = 0
  Multiplicity = 1
  Basis Set: AUG-CC-PVQZ
    Blend: AUG-CC-PVQZ
  Basis Set: (AUG-CC-PVQZ AUX)
    Blend: AUG-CC-PVQZ-JKFIT

    Orbital Energies [Eh]
    ---------------------

    Doubly Occupied:

       1A    -20.545876     2A    -20.540282     3A    -15.643400
       4A    -15.626556     5A    -11.419036     6A    -11.380905
       7A    -11.340646     8A    -11.255272     9A    -11.214967
      10A    -11.213564    11A    -11.211970    12A    -11.210566
      13A    -11.203891    14A     -1.436883    15A     -1.398684
      16A     -1.314175    17A     -1.246525    18A     -1.089071
      19A     -1.082991    20A     -1.017035    21A     -0.934492
      22A     -0.921110    23A     -0.902524    24A     -0.821953
      25A     -0.808082    26A     -0.787139    27A     -0.766300
      28A     -0.715505    29A     -0.678740    30A     -0.670970
      31A     -0.654222    32A     -0.648559    33A     -0.616193
      34A     -0.602838    35A     -0.600891    36A     -0.594729
      37A     -0.572121    38A     -0.556560    39A     -0.549835
      40A     -0.528012    41A     -0.527301    42A     -0.497341
      43A     -0.485317    44A     -0.477713    45A     -0.464401
      46A     -0.460595    47A     -0.450770    48A     -0.448587
      49A     -0.438494    50A     -0.370200

  @DF-RHF Final Energy:  -609.06623451787073

   => Energetics <=

    Nuclear Repulsion Energy =            794.3004170995574214
    One-Electron Energy =               -2404.8457185570459842
    Two-Electron Energy =                1001.4790669396179510
    Total Energy =                       -609.0662345178707255

  Dipole Moment: [D]
     X:     1.4299      Y:     4.5887      Z:    -0.0107     Total:     4.8063

  Basis Set: (AUG-CC-PVQZ AUX)
    Blend: AUG-CC-PVQZ-RI
	 Reference Energy          =    -609.0662345178707255 [Eh]
	 Singles Energy            =      -0.0000000000000000 [Eh]
	 Same-Spin Energy          =      -0.6608682613802770 [Eh]
	 Opposite-Spin Energy      =      -2.2696343390612950 [Eh]
	 Correlation Energy        =      -2.9305026004415717 [Eh]
	 Total Energy              =    -611.9967371183123532 [Eh]

	 ================> DF-SCS-MP2 Energies <==================
	-----------------------------------------------------------
	 SCS Same-Spin Scale       =       0.3333333333333333 [-]
	 SCS Opposite-Spin Scale   =       1.2000000000000000 [-]
	 SCS Same-Spin Energy      =      -0.2202894204600923 [Eh]
	 SCS Opposite-Spin Energy  =      -2.7235612068735540 [Eh]
	 SCS Correlation Energy    =      -2.9438506273336462 [Eh]
	 SCS Total Energy          =    -612.0100851452043571 [Eh]
	-----------------------------------------------------------

*** Psi4 exiting successfully. Buy a developer a beer!
