                               Psi4 1.4a2.dev224

  ==> Input File <==

--------------------------------------------------------------------------
#Generated by lconvert.py for cbs job

memory 40 GB

molecule  {
0 1
  N       -0.2089050    -0.9645830     0.5347610
  H       -0.2241510    -1.9731090     0.6050840
  C       -1.4463420    -0.3445810     0.3066590
  O       -2.4612370    -1.0107920     0.1978920
  C       -1.3577820     1.1031860     0.2281440
  H       -2.2565720     1.6677310     0.0498470
  C       -0.1630030     1.7098930     0.3811260
  H       -0.0462900     2.7824460     0.3333500
  N        0.9854520     1.0008240     0.6112060
  H        1.8675600     1.4669280     0.7447840
  C        1.0270210    -0.3791700     0.7126470
  O        2.0491970    -0.9973950     0.9372600
--
0 1
  C        1.1194340     2.3541790     3.7956040
  H        0.6885850     2.6652280     2.8428220
  H        0.4852000     2.7596120     4.5838520
  H        2.1023140     2.8146270     3.8887260
  C        1.1924500     0.8353080     3.8851220
  H        1.6228340     0.5457450     4.8464130
  H        1.8670400     0.4441480     3.1200040
  C       -0.1723350     0.1771420     3.7303060
  H       -0.8435790     0.5460170     4.5119250
  H       -0.6198060     0.4874070     2.7804050
  C       -0.1160460    -1.3435450     3.7899410
  H        0.3075600    -1.6459750     4.7505770
  H        0.5754760    -1.7054240     3.0254390
  C       -1.4853290    -1.9854180     3.6061680
  H       -1.9237080    -1.7119600     2.6459820
  H       -1.4283900    -3.0721860     3.6502250
  H       -2.1732920    -1.6570720     4.3854010
units angstrom
no_reorient
symmetry c1
}

set {
scf_type DF
mp2_type DF
e_convergence 7
reference rhf
}

energy('mp2/aug-cc-pv[tq]z', bsse_type='cp')
--------------------------------------------------------------------------

    Molecular point group: c1
  Charge       = 0
  Multiplicity = 1
  Basis Set: AUG-CC-PVTZ
    Blend: AUG-CC-PVTZ
  Basis Set: (AUG-CC-PVTZ AUX)
    Blend: AUG-CC-PVTZ-JKFIT
  @DF-RHF Final Energy:  -196.40429805774329
    Total Energy =                       -196.4042980577432900
  Basis Set: (AUG-CC-PVTZ AUX)
    Blend: AUG-CC-PVTZ-RI
	 Reference Energy          =    -196.4042980577432900 [Eh]
	 Singles Energy            =      -0.0000000000000000 [Eh]
	 Same-Spin Energy          =      -0.2078812359353105 [Eh]
	 Opposite-Spin Energy      =      -0.7930757395829825 [Eh]
	 Correlation Energy        =      -1.0009569755182930 [Eh]
	 Total Energy              =    -197.4052550332615965 [Eh]
	 SCS Total Energy          =    -197.4252826905546385 [Eh]
    Molecular point group: c1
  Basis Set: AUG-CC-PVQZ
    Blend: AUG-CC-PVQZ
  Basis Set: (AUG-CC-PVQZ AUX)
    Blend: AUG-CC-PVQZ-JKFIT
  @DF-RHF Final Energy:  -196.41611844230050
    Total Energy =                       -196.4161184423005011
  Basis Set: (AUG-CC-PVQZ AUX)
  @DF-RHF Final Energy:  -196.40437502480364
    Total Energy =                       -196.4043750248036417
  @DF-RHF Final Energy:  -196.41614258648082
    Total Energy =                       -196.4161425864808166
  @DF-RHF Final Energy:  -412.62508423876818
    Total Energy =                       -412.6250842387681814
  @DF-RHF Final Energy:  -412.65022854300440
    Total Energy =                       -412.6502285430044026
  @DF-RHF Final Energy:  -412.62456257128099
    Total Energy =                       -412.6245625712809897
  @DF-RHF Final Energy:  -412.65009592692763
    Total Energy =                       -412.6500959269276336
  Multiplicity = 1
  @DF-RHF Final Energy:  -609.01623592622047
    Total Energy =                       -609.0162359262205882
	 Singles Energy            =      -0.0000000000000000 [Eh]
	 Same-Spin Energy          =      -0.6329167640074205 [Eh]
	 Opposite-Spin Energy      =      -2.0377002593141595 [Eh]
	 Correlation Energy        =      -2.6706170233215802 [Eh]
	 Total Energy              =    -611.6868529495420717 [Eh]
	 SCS Total Energy          =    -611.6724484920665645 [Eh]
    Molecular point group: c1

    Geometry (in Angstrom), charge = 0, multiplicity = 1:

       Center              X                  Y                   Z               Mass
    ------------   -----------------  -----------------  -----------------  -----------------
         N           -0.140803673733    -0.955672225844    -1.238870367902    14.003074004430
         H           -0.156049673733    -1.964198225844    -1.168547367902     1.007825032230
         C           -1.378240673733    -0.335670225844    -1.466972367902    12.000000000000
         O           -2.393135673733    -1.001881225844    -1.575739367902    15.994914619570
         C           -1.289680673733     1.112096774156    -1.545487367902    12.000000000000
         H           -2.188470673733     1.676641774156    -1.723784367902     1.007825032230
         C           -0.094901673733     1.718803774156    -1.392505367902    12.000000000000
         H            0.021811326267     2.791356774156    -1.440281367902     1.007825032230
         N            1.053553326267     1.009734774156    -1.162425367902    14.003074004430
         H            1.935661326267     1.475838774156    -1.028847367902     1.007825032230
         C            1.095122326267    -0.370259225844    -1.060984367902    12.000000000000
         O            2.117298326267    -0.988484225844    -0.836371367902    15.994914619570
         C            1.187535326267     2.363089774156     2.021972632098    12.000000000000
         H            0.756686326267     2.674138774156     1.069190632098     1.007825032230
         H            0.553301326267     2.768522774156     2.810220632098     1.007825032230
         H            2.170415326267     2.823537774156     2.115094632098     1.007825032230
         C            1.260551326267     0.844218774156     2.111490632098    12.000000000000
         H            1.690935326267     0.554655774156     3.072781632098     1.007825032230
         H            1.935141326267     0.453058774156     1.346372632098     1.007825032230
         C           -0.104233673733     0.186052774156     1.956674632098    12.000000000000
         H           -0.775477673733     0.554927774156     2.738293632098     1.007825032230
         H           -0.551704673733     0.496317774156     1.006773632098     1.007825032230
         C           -0.047944673733    -1.334634225844     2.016309632098    12.000000000000
         H            0.375661326267    -1.637064225844     2.976945632098     1.007825032230
         H            0.643577326267    -1.696513225844     1.251807632098     1.007825032230
         C           -1.417227673733    -1.976507225844     1.832536632098    12.000000000000
         H           -1.855606673733    -1.703049225844     0.872350632098     1.007825032230
         H           -1.360288673733    -3.063275225844     1.876593632098     1.007825032230
         H           -2.105190673733    -1.648161225844     2.611769632098     1.007825032230

  Charge       = 0
  Multiplicity = 1
  Basis Set: AUG-CC-PVQZ
    Blend: AUG-CC-PVQZ
  Basis Set: (AUG-CC-PVQZ AUX)
    Blend: AUG-CC-PVQZ-JKFIT

    Orbital Energies [Eh]
    ---------------------

    Doubly Occupied:

       1A    -20.546189     2A    -20.540550     3A    -15.642171
       4A    -15.625565     5A    -11.418843     6A    -11.380928
       7A    -11.339955     8A    -11.254811     9A    -11.218792
      10A    -11.215869    11A    -11.212520    12A    -11.208839
      13A    -11.200248    14A     -1.437783    15A     -1.399594
      16A     -1.314421    17A     -1.246728    18A     -1.089222
      19A     -1.085113    20A     -1.018666    21A     -0.935302
      22A     -0.922590    23A     -0.902575    24A     -0.823528
      25A     -0.808349    26A     -0.788683    27A     -0.766311
      28A     -0.715736    29A     -0.688657    30A     -0.679235
      31A     -0.654768    32A     -0.634362    33A     -0.616524
      34A     -0.605105    35A     -0.602759    36A     -0.601354
      37A     -0.570869    38A     -0.558647    39A     -0.550963
      40A     -0.530741    41A     -0.528079    42A     -0.498499
      43A     -0.486653    44A     -0.479779    45A     -0.464438
      46A     -0.459438    47A     -0.450377    48A     -0.449539
      49A     -0.437270    50A     -0.369837

  @DF-RHF Final Energy:  -609.05316595699344

   => Energetics <=

    Nuclear Repulsion Energy =            859.9130761798091953
    One-Electron Energy =               -2535.9769187338938536
    Two-Electron Energy =                1067.0106765970911056
    Total Energy =                       -609.0531659569935528

  Dipole Moment: [D]
     X:     1.4125      Y:     4.5303      Z:     0.0085     Total:     4.7454

  Basis Set: (AUG-CC-PVQZ AUX)
    Blend: AUG-CC-PVQZ-RI
	 Reference Energy          =    -609.0531659569934391 [Eh]
	 Singles Energy            =      -0.0000000000000000 [Eh]
	 Same-Spin Energy          =      -0.6693488701487594 [Eh]
	 Opposite-Spin Energy      =      -2.2803053160158044 [Eh]
	 Correlation Energy        =      -2.9496541861645640 [Eh]
	 Total Energy              =    -612.0028201431580328 [Eh]

	 ================> DF-SCS-MP2 Energies <==================
	-----------------------------------------------------------
	 SCS Same-Spin Scale       =       0.3333333333333333 [-]
	 SCS Opposite-Spin Scale   =       1.2000000000000000 [-]
	 SCS Same-Spin Energy      =      -0.2231162900495865 [Eh]
	 SCS Opposite-Spin Energy  =      -2.7363663792189654 [Eh]
	 SCS Correlation Energy    =      -2.9594826692685521 [Eh]
	 SCS Total Energy          =    -612.0126486262620347 [Eh]
	-----------------------------------------------------------

*** Psi4 exiting successfully. Buy a developer a beer!
