                               Psi4 1.4a2.dev224

  ==> Input File <==

--------------------------------------------------------------------------
#Generated by lconvert.py for cbs job

memory 40 GB

molecule  {
0 1
  N       -0.2089050    -0.9645830     0.5347610
  H       -0.2241510    -1.9731090     0.6050840
  C       -1.4463420    -0.3445810     0.3066590
  O       -2.4612370    -1.0107920     0.1978920
  C       -1.3577820     1.1031860     0.2281440
  H       -2.2565720     1.6677310     0.0498470
  C       -0.1630030     1.7098930     0.3811260
  H       -0.0462900     2.7824460     0.3333500
  N        0.9854520     1.0008240     0.6112060
  H        1.8675600     1.4669280     0.7447840
  C        1.0270210    -0.3791700     0.7126470
  O        2.0491970    -0.9973950     0.9372600
--
0 1
  C        1.0946900     2.3509680     3.5012340
  H        0.6638420     2.6620170     2.5484520
  H        0.4604560     2.7564010     4.2894820
  H        2.0775700     2.8114160     3.5943560
  C        1.1677070     0.8320970     3.5907520
  H        1.5980900     0.5425340     4.5520430
  H        1.8422960     0.4409370     2.8256340
  C       -0.1970790     0.1739310     3.4359360
  H       -0.8683230     0.5428060     4.2175550
  H       -0.6445490     0.4841960     2.4860350
  C       -0.1407900    -1.3467560     3.4955710
  H        0.2828160    -1.6491860     4.4562070
  H        0.5507320    -1.7086350     2.7310690
  C       -1.5100730    -1.9886290     3.3117980
  H       -1.9484520    -1.7151720     2.3516120
  H       -1.4531340    -3.0753980     3.3558550
  H       -2.1980350    -1.6602830     4.0910310
units angstrom
no_reorient
symmetry c1
}

set {
scf_type DF
mp2_type DF
e_convergence 7
reference rhf
}

energy('mp2/aug-cc-pv[tq]z', bsse_type='cp')
--------------------------------------------------------------------------

    Molecular point group: c1
  Charge       = 0
  Multiplicity = 1
  Basis Set: AUG-CC-PVTZ
    Blend: AUG-CC-PVTZ
  Basis Set: (AUG-CC-PVTZ AUX)
    Blend: AUG-CC-PVTZ-JKFIT
  @DF-RHF Final Energy:  -196.40429807041434
    Total Energy =                       -196.4042980704143417
  Basis Set: (AUG-CC-PVTZ AUX)
    Blend: AUG-CC-PVTZ-RI
	 Reference Energy          =    -196.4042980704143417 [Eh]
	 Singles Energy            =      -0.0000000000000000 [Eh]
	 Same-Spin Energy          =      -0.2078812302077180 [Eh]
	 Opposite-Spin Energy      =      -0.7930757312948289 [Eh]
	 Correlation Energy        =      -1.0009569615025469 [Eh]
	 Total Energy              =    -197.4052550319168802 [Eh]
	 SCS Total Energy          =    -197.4252826913707111 [Eh]
    Molecular point group: c1
  Basis Set: AUG-CC-PVQZ
    Blend: AUG-CC-PVQZ
  Basis Set: (AUG-CC-PVQZ AUX)
    Blend: AUG-CC-PVQZ-JKFIT
  @DF-RHF Final Energy:  -196.41611845654927
    Total Energy =                       -196.4161184565492704
  Basis Set: (AUG-CC-PVQZ AUX)
  @DF-RHF Final Energy:  -196.40440325250711
    Total Energy =                       -196.4044032525071088
  @DF-RHF Final Energy:  -196.41614964218169
    Total Energy =                       -196.4161496421816935
  @DF-RHF Final Energy:  -412.62522987706279
    Total Energy =                       -412.6252298770627931
  @DF-RHF Final Energy:  -412.65025749727471
    Total Energy =                       -412.6502574972747084
  @DF-RHF Final Energy:  -412.62456256650393
    Total Energy =                       -412.6245625665039256
  @DF-RHF Final Energy:  -412.65009592726642
    Total Energy =                       -412.6500959272664204
  Multiplicity = 1
  @DF-RHF Final Energy:  -608.99584401794925
    Total Energy =                       -608.9958440179493664
	 Singles Energy            =      -0.0000000000000000 [Eh]
	 Same-Spin Energy          =      -0.6386401365701303 [Eh]
	 Opposite-Spin Energy      =      -2.0460384840051518 [Eh]
	 Correlation Energy        =      -2.6846786205752822 [Eh]
	 Total Energy              =    -611.6805226385245078 [Eh]
	 SCS Total Energy          =    -611.6639702442788575 [Eh]
    Molecular point group: c1

    Geometry (in Angstrom), charge = 0, multiplicity = 1:

       Center              X                  Y                   Z               Mass
    ------------   -----------------  -----------------  -----------------  -----------------
         N           -0.131115073707    -0.954414925991    -1.123607790753    14.003074004430
         H           -0.146361073707    -1.962940925991    -1.053284790753     1.007825032230
         C           -1.368552073707    -0.334412925991    -1.351709790753    12.000000000000
         O           -2.383447073707    -1.000623925991    -1.460476790753    15.994914619570
         C           -1.279992073707     1.113354074009    -1.430224790753    12.000000000000
         H           -2.178782073707     1.677899074009    -1.608521790753     1.007825032230
         C           -0.085213073707     1.720061074009    -1.277242790753    12.000000000000
         H            0.031499926293     2.792614074009    -1.325018790753     1.007825032230
         N            1.063241926293     1.010992074009    -1.047162790753    14.003074004430
         H            1.945349926293     1.477096074009    -0.913584790753     1.007825032230
         C            1.104810926293    -0.369001925991    -0.945721790753    12.000000000000
         O            2.126986926293    -0.987226925991    -0.721108790753    15.994914619570
         C            1.172479926293     2.361136074009     1.842865209247    12.000000000000
         H            0.741631926293     2.672185074009     0.890083209247     1.007825032230
         H            0.538245926293     2.766569074009     2.631113209247     1.007825032230
         H            2.155359926293     2.821584074009     1.935987209247     1.007825032230
         C            1.245496926293     0.842265074009     1.932383209247    12.000000000000
         H            1.675879926293     0.552702074009     2.893674209247     1.007825032230
         H            1.920085926293     0.451105074009     1.167265209247     1.007825032230
         C           -0.119289073707     0.184099074009     1.777567209247    12.000000000000
         H           -0.790533073707     0.552974074009     2.559186209247     1.007825032230
         H           -0.566759073707     0.494364074009     0.827666209247     1.007825032230
         C           -0.063000073707    -1.336587925991     1.837202209247    12.000000000000
         H            0.360605926293    -1.639017925991     2.797838209247     1.007825032230
         H            0.628521926293    -1.698466925991     1.072700209247     1.007825032230
         C           -1.432283073707    -1.978460925991     1.653429209247    12.000000000000
         H           -1.870662073707    -1.705003925991     0.693243209247     1.007825032230
         H           -1.375344073707    -3.065229925991     1.697486209247     1.007825032230
         H           -2.120245073707    -1.650114925991     2.432662209247     1.007825032230

  Charge       = 0
  Multiplicity = 1
  Basis Set: AUG-CC-PVQZ
    Blend: AUG-CC-PVQZ
  Basis Set: (AUG-CC-PVQZ AUX)
    Blend: AUG-CC-PVQZ-JKFIT

    Orbital Energies [Eh]
    ---------------------

    Doubly Occupied:

       1A    -20.546743     2A    -20.540791     3A    -15.641287
       4A    -15.624482     5A    -11.418904     6A    -11.381135
       7A    -11.339705     8A    -11.254716     9A    -11.220092
      10A    -11.215049    11A    -11.211116    12A    -11.207009
      13A    -11.197303    14A     -1.439178    15A     -1.400752
      16A     -1.315338    17A     -1.247511    18A     -1.090082
      19A     -1.085973    20A     -1.019096    21A     -0.937756
      22A     -0.922074    23A     -0.902923    24A     -0.824163
      25A     -0.809910    26A     -0.788828    27A     -0.766701
      28A     -0.716729    29A     -0.701771    30A     -0.680093
      31A     -0.655577    32A     -0.623408    33A     -0.617258
      34A     -0.610646    35A     -0.603031    36A     -0.602750
      37A     -0.571402    38A     -0.559507    39A     -0.550347
      40A     -0.531207    41A     -0.527675    42A     -0.499417
      43A     -0.487995    44A     -0.480871    45A     -0.463869
      46A     -0.457072    47A     -0.449242    48A     -0.448808
      49A     -0.435417    50A     -0.369151

  @DF-RHF Final Energy:  -609.03266583471043

   => Energetics <=

    Nuclear Repulsion Energy =            880.5656200333525021
    One-Electron Energy =               -2577.2128293577520708
    Two-Electron Energy =                1087.6145434896893676
    Total Energy =                       -609.0326658347103148

  Dipole Moment: [D]
     X:     1.3972      Y:     4.5388      Z:    -0.0425     Total:     4.7492

  Basis Set: (AUG-CC-PVQZ AUX)
    Blend: AUG-CC-PVQZ-RI
	 Reference Energy          =    -609.0326658347104285 [Eh]
	 Singles Energy            =      -0.0000000000000000 [Eh]
	 Same-Spin Energy          =      -0.6749968355806708 [Eh]
	 Opposite-Spin Energy      =      -2.2872278014519920 [Eh]
	 Correlation Energy        =      -2.9622246370326630 [Eh]
	 Total Energy              =    -611.9948904717431333 [Eh]

	 ================> DF-SCS-MP2 Energies <==================
	-----------------------------------------------------------
	 SCS Same-Spin Scale       =       0.3333333333333333 [-]
	 SCS Opposite-Spin Scale   =       1.2000000000000000 [-]
	 SCS Same-Spin Energy      =      -0.2249989451935569 [Eh]
	 SCS Opposite-Spin Energy  =      -2.7446733617423904 [Eh]
	 SCS Correlation Energy    =      -2.9696723069359474 [Eh]
	 SCS Total Energy          =    -612.0023381416464190 [Eh]
	-----------------------------------------------------------

*** Psi4 exiting successfully. Buy a developer a beer!
