                               Psi4 1.4a2.dev224

  ==> Input File <==

--------------------------------------------------------------------------
#Generated by lconvert.py for cbs job

memory 40 GB

molecule  {
0 1
  N       -0.2089050    -0.9645830     0.5347610
  H       -0.2241510    -1.9731090     0.6050840
  C       -1.4463420    -0.3445810     0.3066590
  O       -2.4612370    -1.0107920     0.1978920
  C       -1.3577820     1.1031860     0.2281440
  H       -2.2565720     1.6677310     0.0498470
  C       -0.1630030     1.7098930     0.3811260
  H       -0.0462900     2.7824460     0.3333500
  N        0.9854520     1.0008240     0.6112060
  H        1.8675600     1.4669280     0.7447840
  C        1.0270210    -0.3791700     0.7126470
  O        2.0491970    -0.9973950     0.9372600
--
0 1
  C        1.1562570     2.3589580     4.2336760
  H        0.7254080     2.6700070     3.2808940
  H        0.5220230     2.7643910     5.0219240
  H        2.1391370     2.8194050     4.3267980
  C        1.2292730     0.8400870     4.3231950
  H        1.6596570     0.5505240     5.2844860
  H        1.9038630     0.4489260     3.5580760
  C       -0.1355120     0.1819200     4.1683780
  H       -0.8067560     0.5507960     4.9499970
  H       -0.5829830     0.4921850     3.2184780
  C       -0.0792230    -1.3387660     4.2280130
  H        0.3443820    -1.6411970     5.1886500
  H        0.6122990    -1.7006450     3.4635110
  C       -1.4485060    -1.9806390     4.0442400
  H       -1.8868850    -1.7071820     3.0840540
  H       -1.3915670    -3.0674080     4.0882970
  H       -2.1364690    -1.6522930     4.8234730
units angstrom
no_reorient
symmetry c1
}

set {
scf_type DF
mp2_type DF
e_convergence 7
reference rhf
}

energy('mp2/aug-cc-pv[tq]z', bsse_type='cp')
--------------------------------------------------------------------------

    Molecular point group: c1
  Charge       = 0
  Multiplicity = 1
  Basis Set: AUG-CC-PVTZ
    Blend: AUG-CC-PVTZ
  Basis Set: (AUG-CC-PVTZ AUX)
    Blend: AUG-CC-PVTZ-JKFIT
  @DF-RHF Final Energy:  -196.40429804846778
    Total Energy =                       -196.4042980484677798
  Basis Set: (AUG-CC-PVTZ AUX)
    Blend: AUG-CC-PVTZ-RI
	 Reference Energy          =    -196.4042980484677798 [Eh]
	 Singles Energy            =      -0.0000000000000000 [Eh]
	 Same-Spin Energy          =      -0.2078812368375438 [Eh]
	 Opposite-Spin Energy      =      -0.7930757481743153 [Eh]
	 Correlation Energy        =      -1.0009569850118589 [Eh]
	 Total Energy              =    -197.4052550334796479 [Eh]
	 SCS Total Energy          =    -197.4252826918894641 [Eh]
    Molecular point group: c1
  Basis Set: AUG-CC-PVQZ
    Blend: AUG-CC-PVQZ
  Basis Set: (AUG-CC-PVQZ AUX)
    Blend: AUG-CC-PVQZ-JKFIT
  @DF-RHF Final Energy:  -196.41611843026288
    Total Energy =                       -196.4161184302628840
  Basis Set: (AUG-CC-PVQZ AUX)
  @DF-RHF Final Energy:  -196.40434561953680
    Total Energy =                       -196.4043456195367980
  @DF-RHF Final Energy:  -196.41613522043428
    Total Energy =                       -196.4161352204342847
  @DF-RHF Final Energy:  -412.62492236183454
    Total Energy =                       -412.6249223618345354
  @DF-RHF Final Energy:  -412.65019311494086
    Total Energy =                       -412.6501931149408620
  @DF-RHF Final Energy:  -412.62456256700386
    Total Energy =                       -412.6245625670038635
  @DF-RHF Final Energy:  -412.65009592359303
    Total Energy =                       -412.6500959235930281
  Multiplicity = 1
  @DF-RHF Final Energy:  -609.02632713983985
    Total Energy =                       -609.0263271398398501
	 Singles Energy            =      -0.0000000000000000 [Eh]
	 Same-Spin Energy          =      -0.6279165644266729 [Eh]
	 Opposite-Spin Energy      =      -2.0300470994621636 [Eh]
	 Correlation Energy        =      -2.6579636638888364 [Eh]
	 Total Energy              =    -611.6842908037286861 [Eh]
	 SCS Total Energy          =    -611.6716891806700005 [Eh]
    Molecular point group: c1

    Geometry (in Angstrom), charge = 0, multiplicity = 1:

       Center              X                  Y                   Z               Mass
    ------------   -----------------  -----------------  -----------------  -----------------
         N           -0.155221964547    -0.957543377806    -1.410400522865    14.003074004430
         H           -0.170467964547    -1.966069377806    -1.340077522865     1.007825032230
         C           -1.392658964547    -0.337541377806    -1.638502522865    12.000000000000
         O           -2.407553964547    -1.003752377806    -1.747269522865    15.994914619570
         C           -1.304098964547     1.110225622194    -1.717017522865    12.000000000000
         H           -2.202888964547     1.674770622194    -1.895314522865     1.007825032230
         C           -0.109319964547     1.716932622194    -1.564035522865    12.000000000000
         H            0.007393035453     2.789485622194    -1.611811522865     1.007825032230
         N            1.039135035453     1.007863622194    -1.333955522865    14.003074004430
         H            1.921243035453     1.473967622194    -1.200377522865     1.007825032230
         C            1.080704035453    -0.372130377806    -1.232514522865    12.000000000000
         O            2.102880035453    -0.990355377806    -1.007901522865    15.994914619570
         C            1.209940035453     2.365997622194     2.288514477135    12.000000000000
         H            0.779091035453     2.677046622194     1.335732477135     1.007825032230
         H            0.575706035453     2.771430622194     3.076762477135     1.007825032230
         H            2.192820035453     2.826444622194     2.381636477135     1.007825032230
         C            1.282956035453     0.847126622194     2.378033477135    12.000000000000
         H            1.713340035453     0.557563622194     3.339324477135     1.007825032230
         H            1.957546035453     0.455965622194     1.612914477135     1.007825032230
         C           -0.081828964547     0.188959622194     2.223216477135    12.000000000000
         H           -0.753072964547     0.557835622194     3.004835477135     1.007825032230
         H           -0.529299964547     0.499224622194     1.273316477135     1.007825032230
         C           -0.025539964547    -1.331726377806     2.282851477135    12.000000000000
         H            0.398065035453    -1.634157377806     3.243488477135     1.007825032230
         H            0.665982035453    -1.693605377806     1.518349477135     1.007825032230
         C           -1.394822964547    -1.973599377806     2.099078477135    12.000000000000
         H           -1.833201964547    -1.700142377806     1.138892477135     1.007825032230
         H           -1.337883964547    -3.060368377806     2.143135477135     1.007825032230
         H           -2.082785964547    -1.645253377806     2.878311477135     1.007825032230

  Charge       = 0
  Multiplicity = 1
  Basis Set: AUG-CC-PVQZ
    Blend: AUG-CC-PVQZ
  Basis Set: (AUG-CC-PVQZ AUX)
    Blend: AUG-CC-PVQZ-JKFIT

    Orbital Energies [Eh]
    ---------------------

    Doubly Occupied:

       1A    -20.545975     2A    -20.540391     3A    -15.642920
       4A    -15.626289     5A    -11.418962     6A    -11.380891
       7A    -11.340313     8A    -11.255017     9A    -11.216802
      10A    -11.215787    11A    -11.212851    12A    -11.210043
      13A    -11.202458    14A     -1.437114    15A     -1.398957
      16A     -1.314131    17A     -1.246507    18A     -1.088974
      19A     -1.084179    20A     -1.018041    21A     -0.934483
      22A     -0.922233    23A     -0.902484    24A     -0.822880
      25A     -0.807969    26A     -0.788047    27A     -0.766222
      28A     -0.715438    29A     -0.678924    30A     -0.676928
      31A     -0.654385    32A     -0.644314    33A     -0.616224
      34A     -0.602832    35A     -0.602265    36A     -0.597601
      37A     -0.571681    38A     -0.557695    39A     -0.550764
      40A     -0.529690    41A     -0.527565    42A     -0.498039
      43A     -0.485752    44A     -0.478727    45A     -0.464787
      46A     -0.460817    47A     -0.450766    48A     -0.449383
      49A     -0.438241    50A     -0.370077

  @DF-RHF Final Energy:  -609.06338929681147

   => Energetics <=

    Nuclear Repulsion Energy =            832.9522586010926943
    One-Electron Energy =               -2482.1036561030914527
    Two-Electron Energy =                1040.0880082051874069
    Total Energy =                       -609.0633892968114651

  Dipole Moment: [D]
     X:     1.4244      Y:     4.5437      Z:     0.0212     Total:     4.7618

  Basis Set: (AUG-CC-PVQZ AUX)
    Blend: AUG-CC-PVQZ-RI
	 Reference Energy          =    -609.0633892968114651 [Eh]
	 Singles Energy            =      -0.0000000000000000 [Eh]
	 Same-Spin Energy          =      -0.6644687587971566 [Eh]
	 Opposite-Spin Energy      =      -2.2742124712397711 [Eh]
	 Correlation Energy        =      -2.9386812300369276 [Eh]
	 Total Energy              =    -612.0020705268483425 [Eh]

	 ================> DF-SCS-MP2 Energies <==================
	-----------------------------------------------------------
	 SCS Same-Spin Scale       =       0.3333333333333333 [-]
	 SCS Opposite-Spin Scale   =       1.2000000000000000 [-]
	 SCS Same-Spin Energy      =      -0.2214895862657189 [Eh]
	 SCS Opposite-Spin Energy  =      -2.7290549654877254 [Eh]
	 SCS Correlation Energy    =      -2.9505445517534441 [Eh]
	 SCS Total Energy          =    -612.0139338485648750 [Eh]
	-----------------------------------------------------------

*** Psi4 exiting successfully. Buy a developer a beer!
