                               Psi4 1.4a2.dev224

  ==> Input File <==

--------------------------------------------------------------------------
#Generated by lconvert.py for cbs job

memory 40 GB

molecule  {
0 1
  N       -0.2089050    -0.9645830     0.5347610
  H       -0.2241510    -1.9731090     0.6050840
  C       -1.4463420    -0.3445810     0.3066590
  O       -2.4612370    -1.0107920     0.1978920
  C       -1.3577820     1.1031860     0.2281440
  H       -2.2565720     1.6677310     0.0498470
  C       -0.1630030     1.7098930     0.3811260
  H       -0.0462900     2.7824460     0.3333500
  N        0.9854520     1.0008240     0.6112060
  H        1.8675600     1.4669280     0.7447840
  C        1.0270210    -0.3791700     0.7126470
  O        2.0491970    -0.9973950     0.9372600
--
0 1
  C        1.1709950     2.3608710     4.4090120
  H        0.7401460     2.6719190     3.4562300
  H        0.5367610     2.7663040     5.1972600
  H        2.1538750     2.8213180     4.5021340
  C        1.2440110     0.8420000     4.4985310
  H        1.6743950     0.5524370     5.4598220
  H        1.9186010     0.4508390     3.7334120
  C       -0.1207740     0.1838330     4.3437140
  H       -0.7920180     0.5527090     5.1253330
  H       -0.5682450     0.4940980     3.3938140
  C       -0.0644850    -1.3368540     4.4033490
  H        0.3591200    -1.6392840     5.3639860
  H        0.6270370    -1.6987330     3.6388470
  C       -1.4337680    -1.9787270     4.2195760
  H       -1.8721470    -1.7052690     3.2593900
  H       -1.3768290    -3.0654950     4.2636330
  H       -2.1217310    -1.6503810     4.9988090
units angstrom
no_reorient
symmetry c1
}

set {
scf_type DF
mp2_type DF
e_convergence 7
reference rhf
}

energy('mp2/aug-cc-pv[tq]z', bsse_type='cp')
--------------------------------------------------------------------------

    Molecular point group: c1
  Charge       = 0
  Multiplicity = 1
  Basis Set: AUG-CC-PVTZ
    Blend: AUG-CC-PVTZ
  Basis Set: (AUG-CC-PVTZ AUX)
    Blend: AUG-CC-PVTZ-JKFIT
  @DF-RHF Final Energy:  -196.40429805910588
    Total Energy =                       -196.4042980591058836
  Basis Set: (AUG-CC-PVTZ AUX)
    Blend: AUG-CC-PVTZ-RI
	 Reference Energy          =    -196.4042980591058836 [Eh]
	 Singles Energy            =      -0.0000000000000000 [Eh]
	 Same-Spin Energy          =      -0.2078812302690876 [Eh]
	 Opposite-Spin Energy      =      -0.7930757408165762 [Eh]
	 Correlation Energy        =      -1.0009569710856638 [Eh]
	 Total Energy              =    -197.4052550301915403 [Eh]
	 SCS Total Energy          =    -197.4252826915088121 [Eh]
    Molecular point group: c1
  Basis Set: AUG-CC-PVQZ
    Blend: AUG-CC-PVQZ
  Basis Set: (AUG-CC-PVQZ AUX)
    Blend: AUG-CC-PVQZ-JKFIT
  @DF-RHF Final Energy:  -196.41611844173093
    Total Energy =                       -196.4161184417309300
  Basis Set: (AUG-CC-PVQZ AUX)
  @DF-RHF Final Energy:  -196.40433799203396
    Total Energy =                       -196.4043379920339589
  @DF-RHF Final Energy:  -196.41613296737626
    Total Energy =                       -196.4161329673762566
  @DF-RHF Final Energy:  -412.62487976894562
    Total Energy =                       -412.6248797689456183
  @DF-RHF Final Energy:  -412.65018254416975
    Total Energy =                       -412.6501825441697520
  @DF-RHF Final Energy:  -412.62456256760663
    Total Energy =                       -412.6245625676066311
  @DF-RHF Final Energy:  -412.65009592612643
    Total Energy =                       -412.6500959261264256
  Multiplicity = 1
  @DF-RHF Final Energy:  -609.02769969381939
    Total Energy =                       -609.0276996938193861
	 Singles Energy            =      -0.0000000000000000 [Eh]
	 Same-Spin Energy          =      -0.6266714501429594 [Eh]
	 Opposite-Spin Energy      =      -2.0280624509878171 [Eh]
	 Correlation Energy        =      -2.6547339011307765 [Eh]
	 Total Energy              =    -611.6824335949501119 [Eh]
	 SCS Total Energy          =    -611.6702651183857142 [Eh]
    Molecular point group: c1

    Geometry (in Angstrom), charge = 0, multiplicity = 1:

       Center              X                  Y                   Z               Mass
    ------------   -----------------  -----------------  -----------------  -----------------
         N           -0.160992728763    -0.958292279207    -1.479054527102    14.003074004430
         H           -0.176238728763    -1.966818279207    -1.408731527102     1.007825032230
         C           -1.398429728763    -0.338290279207    -1.707156527102    12.000000000000
         O           -2.413324728763    -1.004501279207    -1.815923527102    15.994914619570
         C           -1.309869728763     1.109476720793    -1.785671527102    12.000000000000
         H           -2.208659728763     1.674021720793    -1.963968527102     1.007825032230
         C           -0.115090728763     1.716183720793    -1.632689527102    12.000000000000
         H            0.001622271237     2.788736720793    -1.680465527102     1.007825032230
         N            1.033364271237     1.007114720793    -1.402609527102    14.003074004430
         H            1.915472271237     1.473218720793    -1.269031527102     1.007825032230
         C            1.074933271237    -0.372879279207    -1.301168527102    12.000000000000
         O            2.097109271237    -0.991104279207    -1.076555527102    15.994914619570
         C            1.218907271237     2.367161720793     2.395196472898    12.000000000000
         H            0.788058271237     2.678209720793     1.442414472898     1.007825032230
         H            0.584673271237     2.772594720793     3.183444472898     1.007825032230
         H            2.201787271237     2.827608720793     2.488318472898     1.007825032230
         C            1.291923271237     0.848290720793     2.484715472898    12.000000000000
         H            1.722307271237     0.558727720793     3.446006472898     1.007825032230
         H            1.966513271237     0.457129720793     1.719596472898     1.007825032230
         C           -0.072861728763     0.190123720793     2.329898472898    12.000000000000
         H           -0.744105728763     0.558999720793     3.111517472898     1.007825032230
         H           -0.520332728763     0.500388720793     1.379998472898     1.007825032230
         C           -0.016572728763    -1.330563279207     2.389533472898    12.000000000000
         H            0.407032271237    -1.632993279207     3.350170472898     1.007825032230
         H            0.674949271237    -1.692442279207     1.625031472898     1.007825032230
         C           -1.385855728763    -1.972436279207     2.205760472898    12.000000000000
         H           -1.824234728763    -1.698978279207     1.245574472898     1.007825032230
         H           -1.328916728763    -3.059204279207     2.249817472898     1.007825032230
         H           -2.073818728763    -1.644090279207     2.984993472898     1.007825032230

  Charge       = 0
  Multiplicity = 1
  Basis Set: AUG-CC-PVQZ
    Blend: AUG-CC-PVQZ
  Basis Set: (AUG-CC-PVQZ AUX)
    Blend: AUG-CC-PVQZ-JKFIT

    Orbital Energies [Eh]
    ---------------------

    Doubly Occupied:

       1A    -20.545947     2A    -20.540356     3A    -15.643094
       4A    -15.626415     5A    -11.419001     6A    -11.380897
       7A    -11.340422     8A    -11.255093     9A    -11.216138
      10A    -11.215483    11A    -11.212714    12A    -11.210262
      13A    -11.202952    14A     -1.437020    15A     -1.398851
      16A     -1.314127    17A     -1.246505    18A     -1.088983
      19A     -1.083867    20A     -1.017794    21A     -0.934444
      22A     -0.921974    23A     -0.902492    24A     -0.822649
      25A     -0.807981    26A     -0.787808    27A     -0.766239
      28A     -0.715439    29A     -0.678827    30A     -0.674435
      31A     -0.654329    32A     -0.646329    33A     -0.616199
      34A     -0.602799    35A     -0.601890    36A     -0.596554
      37A     -0.571894    38A     -0.557394    39A     -0.550564
      40A     -0.529245    41A     -0.527447    42A     -0.497888
      43A     -0.485577    44A     -0.478451    45A     -0.464765
      46A     -0.460898    47A     -0.450788    48A     -0.449221
      49A     -0.438380    50A     -0.370117

  @DF-RHF Final Energy:  -609.06479723718337

   => Energetics <=

    Nuclear Repulsion Energy =            823.2631419925493219
    One-Electron Energy =               -2462.7379955762221471
    Two-Electron Energy =                1030.4100563464894549
    Total Energy =                       -609.0647972371834840

  Dipole Moment: [D]
     X:     1.4268      Y:     4.5529      Z:     0.0164     Total:     4.7713

  Basis Set: (AUG-CC-PVQZ AUX)
    Blend: AUG-CC-PVQZ-RI
	 Reference Energy          =    -609.0647972371833703 [Eh]
	 Singles Energy            =      -0.0000000000000000 [Eh]
	 Same-Spin Energy          =      -0.6632573114926132 [Eh]
	 Opposite-Spin Energy      =      -2.2726789945049042 [Eh]
	 Correlation Energy        =      -2.9359363059975174 [Eh]
	 Total Energy              =    -612.0007335431808997 [Eh]

	 ================> DF-SCS-MP2 Energies <==================
	-----------------------------------------------------------
	 SCS Same-Spin Scale       =       0.3333333333333333 [-]
	 SCS Opposite-Spin Scale   =       1.2000000000000000 [-]
	 SCS Same-Spin Energy      =      -0.2210857704975377 [Eh]
	 SCS Opposite-Spin Energy  =      -2.7272147934058850 [Eh]
	 SCS Correlation Energy    =      -2.9483005639034228 [Eh]
	 SCS Total Energy          =    -612.0130978010868148 [Eh]
	-----------------------------------------------------------

*** Psi4 exiting successfully. Buy a developer a beer!
