                               Psi4 1.4a2.dev224

  ==> Input File <==

--------------------------------------------------------------------------
#Generated by lconvert.py for cbs job

memory 40 GB

molecule  {
0 1
  N       -0.2089050    -0.9645830     0.5347610
  H       -0.2241510    -1.9731090     0.6050840
  C       -1.4463420    -0.3445810     0.3066590
  O       -2.4612370    -1.0107920     0.1978920
  C       -1.3577820     1.1031860     0.2281440
  H       -2.2565720     1.6677310     0.0498470
  C       -0.1630030     1.7098930     0.3811260
  H       -0.0462900     2.7824460     0.3333500
  N        0.9854520     1.0008240     0.6112060
  H        1.8675600     1.4669280     0.7447840
  C        1.0270210    -0.3791700     0.7126470
  O        2.0491970    -0.9973950     0.9372600
--
0 1
  C        1.0696780     2.3477220     3.2036690
  H        0.6388290     2.6587710     2.2508860
  H        0.4354440     2.7531550     3.9919160
  H        2.0525580     2.8081700     3.2967900
  C        1.1426940     0.8288510     3.2931870
  H        1.5730780     0.5392880     4.2544780
  H        1.8172840     0.4376910     2.5280690
  C       -0.2220910     0.1706850     3.1383700
  H       -0.8933350     0.5395600     3.9199890
  H       -0.6695620     0.4809500     2.1884700
  C       -0.1658020    -1.3500020     3.1980060
  H        0.2578040    -1.6524320     4.1586420
  H        0.5257200    -1.7118810     2.4335030
  C       -1.5350850    -1.9918750     3.0142320
  H       -1.9734640    -1.7184180     2.0540470
  H       -1.4781460    -3.0786440     3.0582890
  H       -2.2230480    -1.6635290     3.7934650
units angstrom
no_reorient
symmetry c1
}

set {
scf_type DF
mp2_type DF
e_convergence 7
reference rhf
}

energy('mp2/aug-cc-pv[tq]z', bsse_type='cp')
--------------------------------------------------------------------------

    Molecular point group: c1
  Charge       = 0
  Multiplicity = 1
  Basis Set: AUG-CC-PVTZ
    Blend: AUG-CC-PVTZ
  Basis Set: (AUG-CC-PVTZ AUX)
    Blend: AUG-CC-PVTZ-JKFIT
  @DF-RHF Final Energy:  -196.40429805821216
    Total Energy =                       -196.4042980582121629
  Basis Set: (AUG-CC-PVTZ AUX)
    Blend: AUG-CC-PVTZ-RI
	 Reference Energy          =    -196.4042980582121629 [Eh]
	 Singles Energy            =      -0.0000000000000000 [Eh]
	 Same-Spin Energy          =      -0.2078812335753846 [Eh]
	 Opposite-Spin Energy      =      -0.7930757372125035 [Eh]
	 Correlation Energy        =      -1.0009569707878880 [Eh]
	 Total Energy              =    -197.4052550290000454 [Eh]
	 SCS Total Energy          =    -197.4252826873922970 [Eh]
    Molecular point group: c1
  Basis Set: AUG-CC-PVQZ
    Blend: AUG-CC-PVQZ
  Basis Set: (AUG-CC-PVQZ AUX)
    Blend: AUG-CC-PVQZ-JKFIT
  @DF-RHF Final Energy:  -196.41611844312288
    Total Energy =                       -196.4161184431228833
  Basis Set: (AUG-CC-PVQZ AUX)
  @DF-RHF Final Energy:  -196.40444120359271
    Total Energy =                       -196.4044412035927110
  @DF-RHF Final Energy:  -196.41615822972722
    Total Energy =                       -196.4161582297272162
  @DF-RHF Final Energy:  -412.62538024585791
    Total Energy =                       -412.6253802458579116
  @DF-RHF Final Energy:  -412.65028860352038
    Total Energy =                       -412.6502886035203801
  @DF-RHF Final Energy:  -412.62456256824055
    Total Energy =                       -412.6245625682405489
  @DF-RHF Final Energy:  -412.65009592474547
    Total Energy =                       -412.6500959247454716
  Multiplicity = 1
  @DF-RHF Final Energy:  -608.94621102789938
    Total Energy =                       -608.9462110278993805
	 Singles Energy            =      -0.0000000000000000 [Eh]
	 Same-Spin Energy          =      -0.6476066962772051 [Eh]
	 Opposite-Spin Energy      =      -2.0586356475143330 [Eh]
	 Correlation Energy        =      -2.7062423437915379 [Eh]
	 Total Energy              =    -611.6524533716909673 [Eh]
	 SCS Total Energy          =    -611.6324427036756788 [Eh]
    Molecular point group: c1

    Geometry (in Angstrom), charge = 0, multiplicity = 1:

       Center              X                  Y                   Z               Mass
    ------------   -----------------  -----------------  -----------------  -----------------
         N           -0.121321373265    -0.953143932597    -1.007094020941    14.003074004430
         H           -0.136567373265    -1.961669932597    -0.936771020941     1.007825032230
         C           -1.358758373265    -0.333141932597    -1.235196020941    12.000000000000
         O           -2.373653373265    -0.999352932597    -1.343963020941    15.994914619570
         C           -1.270198373265     1.114625067403    -1.313711020941    12.000000000000
         H           -2.168988373265     1.679170067403    -1.492008020941     1.007825032230
         C           -0.075419373265     1.721332067403    -1.160729020941    12.000000000000
         H            0.041293626735     2.793885067403    -1.208505020941     1.007825032230
         N            1.073035626735     1.012263067403    -0.930649020941    14.003074004430
         H            1.955143626735     1.478367067403    -0.797071020941     1.007825032230
         C            1.114604626735    -0.367730932597    -0.829208020941    12.000000000000
         O            2.136780626735    -0.985955932597    -0.604595020941    15.994914619570
         C            1.157261626735     2.359161067403     1.661813979059    12.000000000000
         H            0.726412626735     2.670210067403     0.709030979059     1.007825032230
         H            0.523027626735     2.764594067403     2.450060979059     1.007825032230
         H            2.140141626735     2.819609067403     1.754934979059     1.007825032230
         C            1.230277626735     0.840290067403     1.751331979059    12.000000000000
         H            1.660661626735     0.550727067403     2.712622979059     1.007825032230
         H            1.904867626735     0.449130067403     0.986213979059     1.007825032230
         C           -0.134507373265     0.182124067403     1.596514979059    12.000000000000
         H           -0.805751373265     0.550999067403     2.378133979059     1.007825032230
         H           -0.581978373265     0.492389067403     0.646614979059     1.007825032230
         C           -0.078218373265    -1.338562932597     1.656150979059    12.000000000000
         H            0.345387626735    -1.640992932597     2.616786979059     1.007825032230
         H            0.613303626735    -1.700441932597     0.891647979059     1.007825032230
         C           -1.447501373265    -1.980435932597     1.472376979059    12.000000000000
         H           -1.885880373265    -1.706978932597     0.512191979059     1.007825032230
         H           -1.390562373265    -3.067204932597     1.516433979059     1.007825032230
         H           -2.135464373265    -1.652089932597     2.251609979059     1.007825032230

  Charge       = 0
  Multiplicity = 1
  Basis Set: AUG-CC-PVQZ
    Blend: AUG-CC-PVQZ
  Basis Set: (AUG-CC-PVQZ AUX)
    Blend: AUG-CC-PVQZ-JKFIT

    Orbital Energies [Eh]
    ---------------------

    Doubly Occupied:

       1A    -20.548241     2A    -20.541314     3A    -15.639968
       4A    -15.622571     5A    -11.419571     6A    -11.381852
       7A    -11.339633     8A    -11.254758     9A    -11.221068
      10A    -11.212875    11A    -11.207764    12A    -11.203619
      13A    -11.192028    14A     -1.442655    15A     -1.403437
      16A     -1.318024    17A     -1.250062    18A     -1.092659
      19A     -1.087275    20A     -1.019612    21A     -0.944418
      22A     -0.920677    23A     -0.903710    24A     -0.825558
      25A     -0.815005    26A     -0.787732    27A     -0.767765
      28A     -0.720023    29A     -0.719180    30A     -0.682229
      31A     -0.657601    32A     -0.625655    33A     -0.619253
      34A     -0.606419    35A     -0.603522    36A     -0.599622
      37A     -0.575688    38A     -0.560632    39A     -0.548549
      40A     -0.532021    41A     -0.523177    42A     -0.501880
      43A     -0.491615    44A     -0.480647    45A     -0.463734
      46A     -0.454344    47A     -0.448367    48A     -0.443440
      49A     -0.430786    50A     -0.366697

  @DF-RHF Final Energy:  -608.98294400560872

   => Energetics <=

    Nuclear Repulsion Energy =            903.8592288652031357
    One-Electron Energy =               -2623.6464599958430881
    Two-Electron Energy =                1110.8042871250313510
    Total Energy =                       -608.9829440056087151

  Dipole Moment: [D]
     X:     1.3735      Y:     4.5782      Z:    -0.1640     Total:     4.7827

  Basis Set: (AUG-CC-PVQZ AUX)
    Blend: AUG-CC-PVQZ-RI
	 Reference Energy          =    -608.9829440056087151 [Eh]
	 Singles Energy            =      -0.0000000000000000 [Eh]
	 Same-Spin Energy          =      -0.6839338607758538 [Eh]
	 Opposite-Spin Energy      =      -2.2982665595961103 [Eh]
	 Correlation Energy        =      -2.9822004203719641 [Eh]
	 Total Energy              =    -611.9651444259807249 [Eh]

	 ================> DF-SCS-MP2 Energies <==================
	-----------------------------------------------------------
	 SCS Same-Spin Scale       =       0.3333333333333333 [-]
	 SCS Opposite-Spin Scale   =       1.2000000000000000 [-]
	 SCS Same-Spin Energy      =      -0.2279779535919513 [Eh]
	 SCS Opposite-Spin Energy  =      -2.7579198715153321 [Eh]
	 SCS Correlation Energy    =      -2.9858978251072834 [Eh]
	 SCS Total Energy          =    -611.9688418307159736 [Eh]
	-----------------------------------------------------------

*** Psi4 exiting successfully. Buy a developer a beer!
