                               Psi4 1.4a2.dev224

  ==> Input File <==

--------------------------------------------------------------------------
#Generated by lconvert.py for cbs job

memory 40 GB

molecule  {
0 1
  N       -0.2089050    -0.9645830     0.5347610
  H       -0.2241510    -1.9731090     0.6050840
  C       -1.4463420    -0.3445810     0.3066590
  O       -2.4612370    -1.0107920     0.1978920
  C       -1.3577820     1.1031860     0.2281440
  H       -2.2565720     1.6677310     0.0498470
  C       -0.1630030     1.7098930     0.3811260
  H       -0.0462900     2.7824460     0.3333500
  N        0.9854520     1.0008240     0.6112060
  H        1.8675600     1.4669280     0.7447840
  C        1.0270210    -0.3791700     0.7126470
  O        2.0491970    -0.9973950     0.9372600
--
0 1
  C        1.0696780     2.3477220     3.2036690
  H        0.6388290     2.6587710     2.2508860
  H        0.4354440     2.7531550     3.9919160
  H        2.0525580     2.8081700     3.2967900
  C        1.1426940     0.8288510     3.2931870
  H        1.5730780     0.5392880     4.2544780
  H        1.8172840     0.4376910     2.5280690
  C       -0.2220910     0.1706850     3.1383700
  H       -0.8933350     0.5395600     3.9199890
  H       -0.6695620     0.4809500     2.1884700
  C       -0.1658020    -1.3500020     3.1980060
  H        0.2578040    -1.6524320     4.1586420
  H        0.5257200    -1.7118810     2.4335030
  C       -1.5350850    -1.9918750     3.0142320
  H       -1.9734640    -1.7184180     2.0540470
  H       -1.4781460    -3.0786440     3.0582890
  H       -2.2230480    -1.6635290     3.7934650
units angstrom
no_reorient
symmetry c1
}

set {
scf_type DF
mp2_type DF
e_convergence 7
reference rhf
}

energy('mp2/aug-cc-pv[tq]z', bsse_type='cp')
--------------------------------------------------------------------------

    Molecular point group: c1
  Charge       = 0
  Multiplicity = 1
  Basis Set: AUG-CC-PVTZ
    Blend: AUG-CC-PVTZ
  Basis Set: (AUG-CC-PVTZ AUX)
    Blend: AUG-CC-PVTZ-JKFIT
  @DF-RHF Final Energy:  -196.40429805821216
    Total Energy =                       -196.4042980582121629
  Basis Set: (AUG-CC-PVTZ AUX)
    Blend: AUG-CC-PVTZ-RI
	 Reference Energy          =    -196.4042980582121629 [Eh]
	 Singles Energy            =      -0.0000000000000000 [Eh]
	 Same-Spin Energy          =      -0.2078812335753846 [Eh]
	 Opposite-Spin Energy      =      -0.7930757372125035 [Eh]
	 Correlation Energy        =      -1.0009569707878880 [Eh]
	 Total Energy              =    -197.4052550290000454 [Eh]
	 SCS Total Energy          =    -197.4252826873922970 [Eh]
    Molecular point group: c1
  Basis Set: AUG-CC-PVQZ
    Blend: AUG-CC-PVQZ
  Basis Set: (AUG-CC-PVQZ AUX)
    Blend: AUG-CC-PVQZ-JKFIT
  @DF-RHF Final Energy:  -196.41611844312288
    Total Energy =                       -196.4161184431228833
  Basis Set: (AUG-CC-PVQZ AUX)
  @DF-RHF Final Energy:  -196.40444120359271
    Total Energy =                       -196.4044412035927110
  @DF-RHF Final Energy:  -196.41615822972722
    Total Energy =                       -196.4161582297272162
  @DF-RHF Final Energy:  -412.62538024585791
    Total Energy =                       -412.6253802458579116
  @DF-RHF Final Energy:  -412.65028860352038
    Total Energy =                       -412.6502886035203801
  @DF-RHF Final Energy:  -412.62456256824055
    Total Energy =                       -412.6245625682405489
  @DF-RHF Final Energy:  -412.65009592474547
    Total Energy =                       -412.6500959247454716
  @DF-RHF Final Energy:  -608.94621102789938
    Total Energy =                       -608.9462110278993805
  @DF-RHF Final Energy:  -608.98294400560872
    Total Energy =                       -608.9829440056087151
*** Psi4 exiting successfully. Buy a developer a beer!
                               Psi4 1.4a2.dev224
  @DF-RHF Final Energy:  -196.40429807041434
    Total Energy =                       -196.4042980704143417
  @DF-RHF Final Energy:  -196.41611845654927
    Total Energy =                       -196.4161184565492704
  @DF-RHF Final Energy:  -196.40440325250711
    Total Energy =                       -196.4044032525071088
  @DF-RHF Final Energy:  -196.41614964218169
    Total Energy =                       -196.4161496421816935
  @DF-RHF Final Energy:  -412.62522987706279
    Total Energy =                       -412.6252298770627931
  @DF-RHF Final Energy:  -412.65025749727471
    Total Energy =                       -412.6502574972747084
  @DF-RHF Final Energy:  -412.62456256650393
    Total Energy =                       -412.6245625665039256
  @DF-RHF Final Energy:  -412.65009592726642
    Total Energy =                       -412.6500959272664204
  @DF-RHF Final Energy:  -608.99584401794925
    Total Energy =                       -608.9958440179493664
  @DF-RHF Final Energy:  -609.03266583471043
    Total Energy =                       -609.0326658347103148
*** Psi4 exiting successfully. Buy a developer a beer!
                               Psi4 1.4a2.dev224
                               Psi4 1.4a2.dev224
                               Psi4 1.4a2.dev224
                               Psi4 1.4a2.dev224
                               Psi4 1.4a2.dev224
                               Psi4 1.4a2.dev224
                               Psi4 1.4a2.dev224
  @DF-RHF Final Energy:  -196.40429788864199
    Total Energy =                       -196.4042978886419917
  @DF-RHF Final Energy:  -196.41611826365889
    Total Energy =                       -196.4161182636588876
  @DF-RHF Final Energy:  -196.40431006305002
    Total Energy =                       -196.4043100630500192
  @DF-RHF Final Energy:  -196.41612390307742
    Total Energy =                       -196.4161239030774198
  @DF-RHF Final Energy:  -412.62465224588044
    Total Energy =                       -412.6246522458804407
  @DF-RHF Final Energy:  -412.65012508633492
    Total Energy =                       -412.6501250863349242
  @DF-RHF Final Energy:  -412.62456176940714
    Total Energy =                       -412.6245617694071370
  @DF-RHF Final Energy:  -412.65009508292616
    Total Energy =                       -412.6500950829261569
  @DF-RHF Final Energy:  -609.02902755697187
    Total Energy =                       -609.0290275569718688
  @DF-RHF Final Energy:  -609.06631428368803
    Total Energy =                       -609.0663142836880297
*** Psi4 exiting successfully. Buy a developer a beer!
                               Psi4 1.4a2.dev224
  @DF-RHF Final Energy:  -196.40429803941001
    Total Energy =                       -196.4042980394100084
  @DF-RHF Final Energy:  -196.41611841946010
    Total Energy =                       -196.4161184194601049
  @DF-RHF Final Energy:  -196.40430355548753
    Total Energy =                       -196.4043035554875303
  @DF-RHF Final Energy:  -196.41612144123812
    Total Energy =                       -196.4161214412381185
  @DF-RHF Final Energy:  -412.62459746576224
    Total Energy =                       -412.6245974657622355
  @DF-RHF Final Energy:  -412.65010952119911
    Total Energy =                       -412.6501095211991128
  @DF-RHF Final Energy:  -412.62456177085357
    Total Energy =                       -412.6245617708535747
  @DF-RHF Final Energy:  -412.65009508414494
    Total Energy =                       -412.6500950841449367
  Multiplicity = 1
  @DF-RHF Final Energy:  -609.02892936116143
    Total Energy =                       -609.0289293611614312
	 Singles Energy            =      -0.0000000000000000 [Eh]
	 Same-Spin Energy          =      -0.6223286145628208 [Eh]
	 Opposite-Spin Energy      =      -2.0202975440286552 [Eh]
	 Correlation Energy        =      -2.6426261585914759 [Eh]
	 Total Energy              =    -611.6715555197529284 [Eh]
	 SCS Total Energy          =    -611.6607292855167088 [Eh]
    Molecular point group: c1

    Geometry (in Angstrom), charge = 0, multiplicity = 1:

       Center              X                  Y                   Z               Mass
    ------------   -----------------  -----------------  -----------------  -----------------
         N           -0.239346690955    -0.968456857359    -2.411164438934    14.003074004430
         H           -0.254586690955    -1.976986857359    -2.340844438934     1.007825032230
         C           -1.476776690955    -0.348456857359    -2.639264438934    12.000000000000
         O           -2.491676690955    -1.014666857359    -2.748034438934    15.994914619570
         C           -1.388216690955     1.099313142641    -2.717784438934    12.000000000000
         H           -2.287006690955     1.663853142641    -2.896074438934     1.007825032230
         C           -0.193436690955     1.706013142641    -2.564794438934    12.000000000000
         H           -0.076726690955     2.778573142641    -2.612574438934     1.007825032230
         N            0.955013309045     0.996943142641    -2.334714438934    14.003074004430
         H            1.837123309045     1.463053142641    -2.201144438934     1.007825032230
         C            0.996583309045    -0.383046857359    -2.233274438934    12.000000000000
         O            2.018763309045    -1.001276857359    -2.008664438934    15.994914619570
         C            1.340653309045     2.382963142641     3.843605561066    12.000000000000
         H            0.909803309045     2.694013142641     2.890825561066     1.007825032230
         H            0.706423309045     2.788393142641     4.631855561066     1.007825032230
         H            2.323533309045     2.843413142641     3.936725561066     1.007825032230
         C            1.413673309045     0.864093142641     3.933125561066    12.000000000000
         H            1.844053309045     0.574523142641     4.894415561066     1.007825032230
         H            2.088263309045     0.472933142641     3.168005561066     1.007825032230
         C            0.048883309045     0.205923142641     3.778305561066    12.000000000000
         H           -0.622356690955     0.574803142641     4.559925561066     1.007825032230
         H           -0.398586690955     0.516193142641     2.828405561066     1.007825032230
         C            0.105173309045    -1.314766857359     3.837945561066    12.000000000000
         H            0.528783309045    -1.617196857359     4.798585561066     1.007825032230
         H            0.796693309045    -1.676646857359     3.073445561066     1.007825032230
         C           -1.264106690955    -1.956636857359     3.654175561066    12.000000000000
         H           -1.702486690955    -1.683176857359     2.693985561066     1.007825032230
         H           -1.207166690955    -3.043406857359     3.698225561066     1.007825032230
         H           -1.952066690955    -1.628286857359     4.433405561066     1.007825032230

  Charge       = 0
  Multiplicity = 1
  Basis Set: AUG-CC-PVQZ
    Blend: AUG-CC-PVQZ
  Basis Set: (AUG-CC-PVQZ AUX)
    Blend: AUG-CC-PVQZ-JKFIT

    Orbital Energies [Eh]
    ---------------------

    Doubly Occupied:

       1A    -20.545630     2A    -20.540128     3A    -15.643452
       4A    -15.626391     5A    -11.418850     6A    -11.380784
       7A    -11.340715     8A    -11.255330     9A    -11.213224
      10A    -11.211084    11A    -11.210155    12A    -11.209691
      13A    -11.204868    14A     -1.436659    15A     -1.398487
      16A     -1.314103    17A     -1.246392    18A     -1.089075
      19A     -1.081640    20A     -1.015745    21A     -0.934469
      22A     -0.919605    23A     -0.902408    24A     -0.820758
      25A     -0.808071    26A     -0.786076    27A     -0.766240
      28A     -0.715480    29A     -0.678592    30A     -0.670207
      31A     -0.654036    32A     -0.647625    33A     -0.616123
      34A     -0.602805    35A     -0.599386    36A     -0.593170
      37A     -0.571975    38A     -0.555219    39A     -0.548460
      40A     -0.527226    41A     -0.526144    42A     -0.496214
      43A     -0.485060    44A     -0.476504    45A     -0.463438
      46A     -0.459642    47A     -0.450610    48A     -0.447363
      49A     -0.438282    50A     -0.370181

  @DF-RHF Final Energy:  -609.06625939062610

   => Energetics <=

    Nuclear Repulsion Energy =            733.1929930288602009
    One-Electron Energy =               -2282.6909460094275346
    Two-Electron Energy =                 940.4316935899412329
    Total Energy =                       -609.0662593906261009

  Dipole Moment: [D]
     X:     1.4273      Y:     4.6752      Z:    -0.0660     Total:     4.8886

  Basis Set: (AUG-CC-PVQZ AUX)
    Blend: AUG-CC-PVQZ-RI
	 Reference Energy          =    -609.0662593906261009 [Eh]
	 Singles Energy            =      -0.0000000000000000 [Eh]
	 Same-Spin Energy          =      -0.6591382653781961 [Eh]
	 Opposite-Spin Energy      =      -2.2672965488750418 [Eh]
	 Correlation Energy        =      -2.9264348142532377 [Eh]
	 Total Energy              =    -611.9926942048792853 [Eh]

	 ================> DF-SCS-MP2 Energies <==================
	-----------------------------------------------------------
	 SCS Same-Spin Scale       =       0.3333333333333333 [-]
	 SCS Opposite-Spin Scale   =       1.2000000000000000 [-]
	 SCS Same-Spin Energy      =      -0.2197127551260654 [Eh]
	 SCS Opposite-Spin Energy  =      -2.7207558586500502 [Eh]
	 SCS Correlation Energy    =      -2.9404686137761153 [Eh]
	 SCS Total Energy          =    -612.0067280044022482 [Eh]
	-----------------------------------------------------------

*** Psi4 exiting successfully. Buy a developer a beer!
