                               Psi4 1.4a2.dev224

  ==> Input File <==

--------------------------------------------------------------------------
#Generated by lconvert.py for cbs job

memory 40 GB

molecule  {
0 1
  N       -0.2089050    -0.9645830     0.5347610
  H       -0.2241510    -1.9731090     0.6050840
  C       -1.4463420    -0.3445810     0.3066590
  O       -2.4612370    -1.0107920     0.1978920
  C       -1.3577820     1.1031860     0.2281440
  H       -2.2565720     1.6677310     0.0498470
  C       -0.1630030     1.7098930     0.3811260
  H       -0.0462900     2.7824460     0.3333500
  N        0.9854520     1.0008240     0.6112060
  H        1.8675600     1.4669280     0.7447840
  C        1.0270210    -0.3791700     0.7126470
  O        2.0491970    -0.9973950     0.9372600
--
0 1
  C        1.1439780     2.3573640     4.0876010
  H        0.7131290     2.6684130     3.1348190
  H        0.5097440     2.7627980     4.8758490
  H        2.1268580     2.8178120     4.1807230
  C        1.2169950     0.8384940     4.1771190
  H        1.6473780     0.5489310     5.1384100
  H        1.8915840     0.4473330     3.4120010
  C       -0.1477910     0.1803270     4.0223030
  H       -0.8190350     0.5492030     4.8039220
  H       -0.5952610     0.4905920     3.0724020
  C       -0.0915020    -1.3403600     4.0819380
  H        0.3321040    -1.6427900     5.0425740
  H        0.6000200    -1.7022390     3.3174360
  C       -1.4607850    -1.9822330     3.8981650
  H       -1.8991640    -1.7087750     2.9379790
  H       -1.4038460    -3.0690010     3.9422220
  H       -2.1487470    -1.6538870     4.6773980
units angstrom
no_reorient
symmetry c1
}

set {
scf_type DF
mp2_type DF
e_convergence 7
reference rhf
}

energy('mp2/aug-cc-pv[tq]z', bsse_type='cp')
--------------------------------------------------------------------------

    Molecular point group: c1
  Charge       = 0
  Multiplicity = 1
  Basis Set: AUG-CC-PVTZ
    Blend: AUG-CC-PVTZ
  Basis Set: (AUG-CC-PVTZ AUX)
    Blend: AUG-CC-PVTZ-JKFIT
  @DF-RHF Final Energy:  -196.40429806570825
    Total Energy =                       -196.4042980657082467
  Basis Set: (AUG-CC-PVTZ AUX)
    Blend: AUG-CC-PVTZ-RI
	 Reference Energy          =    -196.4042980657082467 [Eh]
	 Singles Energy            =      -0.0000000000000000 [Eh]
	 Same-Spin Energy          =      -0.2078812329978804 [Eh]
	 Opposite-Spin Energy      =      -0.7930757336432173 [Eh]
	 Correlation Energy        =      -1.0009569666410976 [Eh]
	 Total Energy              =    -197.4052550323493449 [Eh]
	 SCS Total Energy          =    -197.4252826904127289 [Eh]
    Molecular point group: c1
  Basis Set: AUG-CC-PVQZ
    Blend: AUG-CC-PVQZ
  Basis Set: (AUG-CC-PVQZ AUX)
    Blend: AUG-CC-PVQZ-JKFIT
  @DF-RHF Final Energy:  -196.41611844820662
    Total Energy =                       -196.4161184482066176
  Basis Set: (AUG-CC-PVQZ AUX)
  @DF-RHF Final Energy:  -196.40435387616787
    Total Energy =                       -196.4043538761678747
  @DF-RHF Final Energy:  -196.41613739171993
    Total Energy =                       -196.4161373917199285
  @DF-RHF Final Energy:  -412.62496590989537
    Total Energy =                       -412.6249659098953657
  @DF-RHF Final Energy:  -412.65020315641249
    Total Energy =                       -412.6502031564124877
  @DF-RHF Final Energy:  -412.62456256773612
    Total Energy =                       -412.6245625677361204
  @DF-RHF Final Energy:  -412.65009592667525
    Total Energy =                       -412.6500959266752488
  Multiplicity = 1
  @DF-RHF Final Energy:  -609.02437383135464
    Total Energy =                       -609.0243738313547510
	 Singles Energy            =      -0.0000000000000000 [Eh]
	 Same-Spin Energy          =      -0.6292358165755813 [Eh]
	 Opposite-Spin Energy      =      -2.0321099825188735 [Eh]
	 Correlation Energy        =      -2.6613457990944549 [Eh]
	 Total Energy              =    -611.6857196304490571 [Eh]
	 SCS Total Energy          =    -611.6726510825691321 [Eh]
    Molecular point group: c1

    Geometry (in Angstrom), charge = 0, multiplicity = 1:

       Center              X                  Y                   Z               Mass
    ------------   -----------------  -----------------  -----------------  -----------------
         N           -0.150414120115    -0.956919415868    -1.353203780750    14.003074004430
         H           -0.165660120115    -1.965445415868    -1.282880780750     1.007825032230
         C           -1.387851120115    -0.336917415868    -1.581305780750    12.000000000000
         O           -2.402746120115    -1.003128415868    -1.690072780750    15.994914619570
         C           -1.299291120115     1.110849584132    -1.659820780750    12.000000000000
         H           -2.198081120115     1.675394584132    -1.838117780750     1.007825032230
         C           -0.104512120115     1.717556584132    -1.506838780750    12.000000000000
         H            0.012200879885     2.790109584132    -1.554614780750     1.007825032230
         N            1.043942879885     1.008487584132    -1.276758780750    14.003074004430
         H            1.926050879885     1.474591584132    -1.143180780750     1.007825032230
         C            1.085511879885    -0.371506415868    -1.175317780750    12.000000000000
         O            2.107687879885    -0.989731415868    -0.950704780750    15.994914619570
         C            1.202468879885     2.365027584132     2.199636219250    12.000000000000
         H            0.771619879885     2.676076584132     1.246854219250     1.007825032230
         H            0.568234879885     2.770461584132     2.987884219250     1.007825032230
         H            2.185348879885     2.825475584132     2.292758219250     1.007825032230
         C            1.275485879885     0.846157584132     2.289154219250    12.000000000000
         H            1.705868879885     0.556594584132     3.250445219250     1.007825032230
         H            1.950074879885     0.454996584132     1.524036219250     1.007825032230
         C           -0.089300120115     0.187990584132     2.134338219250    12.000000000000
         H           -0.760544120115     0.556866584132     2.915957219250     1.007825032230
         H           -0.536770120115     0.498255584132     1.184437219250     1.007825032230
         C           -0.033011120115    -1.332696415868     2.193973219250    12.000000000000
         H            0.390594879885    -1.635126415868     3.154609219250     1.007825032230
         H            0.658510879885    -1.694575415868     1.429471219250     1.007825032230
         C           -1.402294120115    -1.974569415868     2.010200219250    12.000000000000
         H           -1.840673120115    -1.701111415868     1.050014219250     1.007825032230
         H           -1.345355120115    -3.061337415868     2.054257219250     1.007825032230
         H           -2.090256120115    -1.646223415868     2.789433219250     1.007825032230

  Charge       = 0
  Multiplicity = 1
  Basis Set: AUG-CC-PVQZ
    Blend: AUG-CC-PVQZ
  Basis Set: (AUG-CC-PVQZ AUX)
    Blend: AUG-CC-PVQZ-JKFIT

    Orbital Energies [Eh]
    ---------------------

    Doubly Occupied:

       1A    -20.546012     2A    -20.540430     3A    -15.642729
       4A    -15.626128     5A    -11.418921     6A    -11.380889
       7A    -11.340206     8A    -11.254949     9A    -11.217440
      10A    -11.215927    11A    -11.212880    12A    -11.209772
      13A    -11.201910    14A     -1.437243    15A     -1.399092
      16A     -1.314163    17A     -1.246530    18A     -1.088994
      19A     -1.084462    20A     -1.018249    21A     -0.934588
      22A     -0.922423    23A     -0.902487    24A     -0.823082
      25A     -0.807997    26A     -0.788260    27A     -0.766222
      28A     -0.715468    29A     -0.680079    30A     -0.678798
      31A     -0.654459    32A     -0.641863    33A     -0.616272
      34A     -0.603023    35A     -0.602546    36A     -0.598755
      37A     -0.571427    38A     -0.557975    39A     -0.550900
      40A     -0.530071    41A     -0.527709    42A     -0.498163
      43A     -0.485965    44A     -0.479001    45A     -0.464744
      46A     -0.460597    47A     -0.450716    48A     -0.449485
      49A     -0.438047    50A     -0.370032

  @DF-RHF Final Energy:  -609.06139963412829

   => Energetics <=

    Nuclear Repulsion Energy =            841.4840178780914357
    One-Electron Energy =               -2499.1546638520212582
    Two-Electron Energy =                1048.6092463398015298
    Total Energy =                       -609.0613996341282927

  Dipole Moment: [D]
     X:     1.4215      Y:     4.5372      Z:     0.0220     Total:     4.7547

  Basis Set: (AUG-CC-PVQZ AUX)
    Blend: AUG-CC-PVQZ-RI
	 Reference Energy          =    -609.0613996341282927 [Eh]
	 Singles Energy            =      -0.0000000000000000 [Eh]
	 Same-Spin Energy          =      -0.6657535700436158 [Eh]
	 Opposite-Spin Energy      =      -2.2758337260235857 [Eh]
	 Correlation Energy        =      -2.9415872960672016 [Eh]
	 Total Energy              =    -612.0029869301954477 [Eh]

	 ================> DF-SCS-MP2 Energies <==================
	-----------------------------------------------------------
	 SCS Same-Spin Scale       =       0.3333333333333333 [-]
	 SCS Opposite-Spin Scale   =       1.2000000000000000 [-]
	 SCS Same-Spin Energy      =      -0.2219178566812053 [Eh]
	 SCS Opposite-Spin Energy  =      -2.7310004712283029 [Eh]
	 SCS Correlation Energy    =      -2.9529183279095084 [Eh]
	 SCS Total Energy          =    -612.0143179620378078 [Eh]
	-----------------------------------------------------------

*** Psi4 exiting successfully. Buy a developer a beer!
