                               Psi4 1.4a2.dev224

  ==> Input File <==

--------------------------------------------------------------------------
#Generated by lconvert.py for cbs job

memory 40 GB

molecule  {
0 1
  N        0.1957300    -0.8446890     0.8238460
  H        0.4503980    -1.7967530     1.0497680
  C       -1.1790490    -0.5736840     0.7594830
  O       -1.9936460    -1.4562650     0.9669010
  C       -1.4767150     0.8111560     0.4375600
  H       -2.5063560     1.1156510     0.3638950
  C       -0.4681130     1.6829620     0.2348910
  H       -0.6384350     2.7216430    -0.0061640
  N        0.8456290     1.3059910     0.3268310
  H        1.5896930     1.9688790     0.1859600
  C        1.2542610     0.0194620     0.6362440
  O        2.4223040    -0.3017160     0.7318790
--
0 1
  C        1.0382210    -0.8534290     3.7983740
  H        1.4920740    -0.9454850     2.8103910
  H        1.5827240    -1.5174090     4.4675710
  C        1.0925350     0.6125230     4.2313100
  H        2.0508250     1.0854220     4.0205850
  H        0.9044190     0.6941610     5.3045330
  C       -0.0748170     1.2253380     3.4605380
  H        0.1994870     1.3141190     2.4070670
  H       -0.3592310     2.2164790     3.8121720
  C       -1.1917610     0.1877660     3.6315670
  H       -1.9173010     0.2113790     2.8201950
  H       -1.7358470     0.3924630     4.5538150
  C       -0.4687250    -1.1787820     3.7352240
  H       -0.7113900    -1.8229380     2.8918640
  H       -0.7838310    -1.7061850     4.6343100
units angstrom
no_reorient
symmetry c1
}

set {
scf_type DF
mp2_type DF
e_convergence 7
reference rhf
}

energy('mp2/aug-cc-pv[tq]z', bsse_type='cp')
--------------------------------------------------------------------------

    Molecular point group: c1
  Charge       = 0
  Multiplicity = 1
  Basis Set: AUG-CC-PVTZ
    Blend: AUG-CC-PVTZ
  Basis Set: (AUG-CC-PVTZ AUX)
    Blend: AUG-CC-PVTZ-JKFIT
  @DF-RHF Final Energy:  -195.23011579481542
    Total Energy =                       -195.2301157948154184
  Basis Set: (AUG-CC-PVTZ AUX)
    Blend: AUG-CC-PVTZ-RI
	 Reference Energy          =    -195.2301157948154184 [Eh]
	 Singles Energy            =      -0.0000000000000000 [Eh]
	 Same-Spin Energy          =      -0.2104771110229397 [Eh]
	 Opposite-Spin Energy      =      -0.7664119077468635 [Eh]
	 Correlation Energy        =      -0.9768890187698032 [Eh]
	 Total Energy              =    -196.2070048135852289 [Eh]
	 SCS Total Energy          =    -196.2199691211193056 [Eh]
    Molecular point group: c1
  Basis Set: AUG-CC-PVQZ
    Blend: AUG-CC-PVQZ
  Basis Set: (AUG-CC-PVQZ AUX)
    Blend: AUG-CC-PVQZ-JKFIT
  @DF-RHF Final Energy:  -195.24160303401712
    Total Energy =                       -195.2416030340171176
  Basis Set: (AUG-CC-PVQZ AUX)
  @DF-RHF Final Energy:  -195.23022504228322
    Total Energy =                       -195.2302250422832230
  @DF-RHF Final Energy:  -195.24163258287598
    Total Energy =                       -195.2416325828759796
  @DF-RHF Final Energy:  -412.62522985515881
    Total Energy =                       -412.6252298551588069
  @DF-RHF Final Energy:  -412.65026213255720
    Total Energy =                       -412.6502621325572022
  @DF-RHF Final Energy:  -412.62457549782999
    Total Energy =                       -412.6245754978299942
  @DF-RHF Final Energy:  -412.65010962308281
    Total Energy =                       -412.6501096230828125
  Multiplicity = 1
  @DF-RHF Final Energy:  -607.82030324241896
    Total Energy =                       -607.8203032424189587
	 Singles Energy            =      -0.0000000000000000 [Eh]
	 Same-Spin Energy          =      -0.6405296978371187 [Eh]
	 Opposite-Spin Energy      =      -2.0185081279372454 [Eh]
	 Correlation Energy        =      -2.6590378257743641 [Eh]
	 Total Energy              =    -610.4793410681933210 [Eh]
	 SCS Total Energy          =    -610.4560228952226453 [Eh]
    Molecular point group: c1

    Geometry (in Angstrom), charge = 0, multiplicity = 1:

       Center              X                  Y                   Z               Mass
    ------------   -----------------  -----------------  -----------------  -----------------
         N            0.177263492694    -0.874906773459    -1.010314462526    14.003074004430
         H            0.431931492694    -1.826970773459    -0.784392462526     1.007825032230
         C           -1.197515507306    -0.603901773459    -1.074677462526    12.000000000000
         O           -2.012112507306    -1.486482773459    -0.867259462526    15.994914619570
         C           -1.495181507306     0.780938226541    -1.396600462526    12.000000000000
         H           -2.524822507306     1.085433226541    -1.470265462526     1.007825032230
         C           -0.486579507306     1.652744226541    -1.599269462526    12.000000000000
         H           -0.656901507306     2.691425226541    -1.840324462526     1.007825032230
         N            0.827162492694     1.275773226541    -1.507329462526    14.003074004430
         H            1.571226492694     1.938661226541    -1.648200462526     1.007825032230
         C            1.235794492694    -0.010755773459    -1.197916462526    12.000000000000
         O            2.403837492694    -0.331933773459    -1.102281462526    15.994914619570
         C            1.019754492694    -0.883646773459     1.964213537474    12.000000000000
         H            1.473607492694    -0.975702773459     0.976230537474     1.007825032230
         H            1.564257492694    -1.547626773459     2.633410537474     1.007825032230
         C            1.074068492694     0.582305226541     2.397149537474    12.000000000000
         H            2.032358492694     1.055204226541     2.186424537474     1.007825032230
         H            0.885952492694     0.663943226541     3.470372537474     1.007825032230
         C           -0.093283507306     1.195120226541     1.626377537474    12.000000000000
         H            0.181020492694     1.283901226541     0.572906537474     1.007825032230
         H           -0.377697507306     2.186261226541     1.978011537474     1.007825032230
         C           -1.210227507306     0.157548226541     1.797406537474    12.000000000000
         H           -1.935767507306     0.181161226541     0.986034537474     1.007825032230
         H           -1.754313507306     0.362245226541     2.719654537474     1.007825032230
         C           -0.487191507306    -1.208999773459     1.901063537474    12.000000000000
         H           -0.729856507306    -1.853155773459     1.057703537474     1.007825032230
         H           -0.802297507306    -1.736402773459     2.800149537474     1.007825032230

  Charge       = 0
  Multiplicity = 1
  Basis Set: AUG-CC-PVQZ
    Blend: AUG-CC-PVQZ
  Basis Set: (AUG-CC-PVQZ AUX)
    Blend: AUG-CC-PVQZ-JKFIT

    Orbital Energies [Eh]
    ---------------------

    Doubly Occupied:

       1A    -20.547101     2A    -20.539615     3A    -15.642242
       4A    -15.626123     5A    -11.419491     6A    -11.381402
       7A    -11.338484     8A    -11.254983     9A    -11.208560
      10A    -11.206943    11A    -11.205133    12A    -11.201648
      13A    -11.201027    14A     -1.439152    15A     -1.400907
      16A     -1.315599    17A     -1.248278    18A     -1.114985
      19A     -1.089928    20A     -0.956855    21A     -0.954482
      22A     -0.934459    23A     -0.903800    24A     -0.809400
      25A     -0.780978    26A     -0.772812    27A     -0.759545
      28A     -0.716366    29A     -0.692446    30A     -0.679931
      31A     -0.655455    32A     -0.643947    33A     -0.631925
      34A     -0.616860    35A     -0.603815    36A     -0.592408
      37A     -0.583184    38A     -0.546052    39A     -0.517300
      40A     -0.488262    41A     -0.474388    42A     -0.471178
      43A     -0.462642    44A     -0.460003    45A     -0.459709
      46A     -0.451584    47A     -0.442798    48A     -0.433341
      49A     -0.369558

  @DF-RHF Final Energy:  -607.85678485233962

   => Energetics <=

    Nuclear Repulsion Energy =            870.4312136618406157
    One-Electron Energy =               -2556.0818214569353586
    Two-Electron Energy =                1077.7938229427552415
    Total Energy =                       -607.8567848523396151

  Dipole Moment: [D]
     X:    -0.0519      Y:     4.6597      Z:    -1.2008     Total:     4.8122

  Basis Set: (AUG-CC-PVQZ AUX)
    Blend: AUG-CC-PVQZ-RI
	 Reference Energy          =    -607.8567848523396151 [Eh]
	 Singles Energy            =      -0.0000000000000000 [Eh]
	 Same-Spin Energy          =      -0.6768554360198098 [Eh]
	 Opposite-Spin Energy      =      -2.2574899558165509 [Eh]
	 Correlation Energy        =      -2.9343453918363607 [Eh]
	 Total Energy              =    -610.7911302441759744 [Eh]

	 ================> DF-SCS-MP2 Energies <==================
	-----------------------------------------------------------
	 SCS Same-Spin Scale       =       0.3333333333333333 [-]
	 SCS Opposite-Spin Scale   =       1.2000000000000000 [-]
	 SCS Same-Spin Energy      =      -0.2256184786732699 [Eh]
	 SCS Opposite-Spin Energy  =      -2.7089879469798608 [Eh]
	 SCS Correlation Energy    =      -2.9346064256531306 [Eh]
	 SCS Total Energy          =    -610.7913912779927159 [Eh]
	-----------------------------------------------------------

*** Psi4 exiting successfully. Buy a developer a beer!
