                               Psi4 1.4a2.dev224

  ==> Input File <==

--------------------------------------------------------------------------
#Generated by lconvert.py for cbs job

memory 40 GB

molecule  {
0 1
  N        0.1957300    -0.8446890     0.8238460
  H        0.4503980    -1.7967530     1.0497680
  C       -1.1790490    -0.5736840     0.7594830
  O       -1.9936460    -1.4562650     0.9669010
  C       -1.4767150     0.8111560     0.4375600
  H       -2.5063560     1.1156510     0.3638950
  C       -0.4681130     1.6829620     0.2348910
  H       -0.6384350     2.7216430    -0.0061640
  N        0.8456290     1.3059910     0.3268310
  H        1.5896930     1.9688790     0.1859600
  C        1.2542610     0.0194620     0.6362440
  O        2.4223040    -0.3017160     0.7318790
--
0 1
  C        1.0668750    -0.8690420     4.7281700
  H        1.5207280    -0.9610980     3.7401870
  H        1.6113780    -1.5330220     5.3973670
  C        1.1211890     0.5969100     5.1611060
  H        2.0794790     1.0698090     4.9503810
  H        0.9330730     0.6785480     6.2343290
  C       -0.0461630     1.2097240     4.3903350
  H        0.2281410     1.2985060     3.3368630
  H       -0.3305770     2.2008660     4.7419690
  C       -1.1631070     0.1721530     4.5613630
  H       -1.8886470     0.1957660     3.7499910
  H       -1.7071930     0.3768500     5.4836110
  C       -0.4400710    -1.1943950     4.6650200
  H       -0.6827360    -1.8385510     3.8216600
  H       -0.7551770    -1.7217980     5.5641060
units angstrom
no_reorient
symmetry c1
}

set {
scf_type DF
mp2_type DF
e_convergence 7
reference rhf
}

energy('mp2/aug-cc-pv[tq]z', bsse_type='cp')
--------------------------------------------------------------------------

    Molecular point group: c1
  Charge       = 0
  Multiplicity = 1
  Basis Set: AUG-CC-PVTZ
    Blend: AUG-CC-PVTZ
  Basis Set: (AUG-CC-PVTZ AUX)
    Blend: AUG-CC-PVTZ-JKFIT
  @DF-RHF Final Energy:  -195.23011578062992
    Total Energy =                       -195.2301157806299159
  Basis Set: (AUG-CC-PVTZ AUX)
    Blend: AUG-CC-PVTZ-RI
	 Reference Energy          =    -195.2301157806299159 [Eh]
	 Singles Energy            =      -0.0000000000000000 [Eh]
	 Same-Spin Energy          =      -0.2104771206894298 [Eh]
	 Opposite-Spin Energy      =      -0.7664119174448473 [Eh]
	 Correlation Energy        =      -0.9768890381342771 [Eh]
	 Total Energy              =    -196.2070048187642044 [Eh]
	 SCS Total Energy          =    -196.2199691217935538 [Eh]
    Molecular point group: c1
  Basis Set: AUG-CC-PVQZ
    Blend: AUG-CC-PVQZ
  Basis Set: (AUG-CC-PVQZ AUX)
    Blend: AUG-CC-PVQZ-JKFIT
  @DF-RHF Final Energy:  -195.24160301855744
    Total Energy =                       -195.2416030185574414
  Basis Set: (AUG-CC-PVQZ AUX)
  @DF-RHF Final Energy:  -195.23016096494061
    Total Energy =                       -195.2301609649406089
  @DF-RHF Final Energy:  -195.24161711466729
    Total Energy =                       -195.2416171146672923
  @DF-RHF Final Energy:  -412.62487288206586
    Total Energy =                       -412.6248728820658584
  @DF-RHF Final Energy:  -412.65018883372102
    Total Energy =                       -412.6501888337210175
  @DF-RHF Final Energy:  -412.62457549729157
    Total Energy =                       -412.6245754972915734
  @DF-RHF Final Energy:  -412.65010962221805
    Total Energy =                       -412.6501096222180536
  Multiplicity = 1
  @DF-RHF Final Energy:  -607.85343348294157
    Total Energy =                       -607.8534334829415684
	 Singles Energy            =      -0.0000000000000000 [Eh]
	 Same-Spin Energy          =      -0.6288288533567765 [Eh]
	 Opposite-Spin Energy      =      -2.0006802127571568 [Eh]
	 Correlation Energy        =      -2.6295090661139335 [Eh]
	 Total Energy              =    -610.4829425490554513 [Eh]
	 SCS Total Energy          =    -610.4638593560357549 [Eh]
    Molecular point group: c1

    Geometry (in Angstrom), charge = 0, multiplicity = 1:

       Center              X                  Y                   Z               Mass
    ------------   -----------------  -----------------  -----------------  -----------------
         N            0.166236797293    -0.868898478510    -1.368120678888    14.003074004430
         H            0.420904797293    -1.820962478510    -1.142198678888     1.007825032230
         C           -1.208542202707    -0.597893478510    -1.432483678888    12.000000000000
         O           -2.023139202707    -1.480474478510    -1.225065678888    15.994914619570
         C           -1.506208202707     0.786946521490    -1.754406678888    12.000000000000
         H           -2.535849202707     1.091441521490    -1.828071678888     1.007825032230
         C           -0.497606202707     1.658752521490    -1.957075678888    12.000000000000
         H           -0.667928202707     2.697433521490    -2.198130678888     1.007825032230
         N            0.816135797293     1.281781521490    -1.865135678888    14.003074004430
         H            1.560199797293     1.944669521490    -2.006006678888     1.007825032230
         C            1.224767797293    -0.004747478510    -1.555722678888    12.000000000000
         O            2.392810797293    -0.325925478510    -1.460087678888    15.994914619570
         C            1.037381797293    -0.893251478510     2.536203321112    12.000000000000
         H            1.491234797293    -0.985307478510     1.548220321112     1.007825032230
         H            1.581884797293    -1.557231478510     3.205400321112     1.007825032230
         C            1.091695797293     0.572700521490     2.969139321112    12.000000000000
         H            2.049985797293     1.045599521490     2.758414321112     1.007825032230
         H            0.903579797293     0.654338521490     4.042362321112     1.007825032230
         C           -0.075656202707     1.185514521490     2.198368321112    12.000000000000
         H            0.198647797293     1.274296521490     1.144896321112     1.007825032230
         H           -0.360070202707     2.176656521490     2.550002321112     1.007825032230
         C           -1.192600202707     0.147943521490     2.369396321112    12.000000000000
         H           -1.918140202707     0.171556521490     1.558024321112     1.007825032230
         H           -1.736686202707     0.352640521490     3.291644321112     1.007825032230
         C           -0.469564202707    -1.218604478510     2.473053321112    12.000000000000
         H           -0.712229202707    -1.862760478510     1.629693321112     1.007825032230
         H           -0.784670202707    -1.746007478510     3.372139321112     1.007825032230

  Charge       = 0
  Multiplicity = 1
  Basis Set: AUG-CC-PVQZ
    Blend: AUG-CC-PVQZ
  Basis Set: (AUG-CC-PVQZ AUX)
    Blend: AUG-CC-PVQZ-JKFIT

    Orbital Energies [Eh]
    ---------------------

    Doubly Occupied:

       1A    -20.546092     2A    -20.540523     3A    -15.643426
       4A    -15.626549     5A    -11.419087     6A    -11.381104
       7A    -11.340517     8A    -11.255124     9A    -11.211326
      10A    -11.208432    11A    -11.207269    12A    -11.206227
      13A    -11.205212    14A     -1.437114    15A     -1.399118
      16A     -1.314150    17A     -1.246558    18A     -1.115114
      19A     -1.089140    20A     -0.955692    21A     -0.954497
      22A     -0.934369    23A     -0.902679    24A     -0.808131
      25A     -0.777064    26A     -0.766767    27A     -0.764926
      28A     -0.715440    29A     -0.678991    30A     -0.672697
      31A     -0.654412    32A     -0.647573    33A     -0.643551
      34A     -0.616445    35A     -0.602909    36A     -0.576147
      37A     -0.568677    38A     -0.564558    39A     -0.526742
      40A     -0.485610    41A     -0.474750    42A     -0.473356
      43A     -0.461921    44A     -0.461017    45A     -0.458771
      46A     -0.451465    47A     -0.446476    48A     -0.438291
      49A     -0.370264

  @DF-RHF Final Energy:  -607.89020713249749

   => Energetics <=

    Nuclear Repulsion Energy =            812.1727264300785691
    One-Electron Energy =               -2439.6333004885045739
    Two-Electron Energy =                1019.5703669259286244
    Total Energy =                       -607.8902071324974941

  Dipole Moment: [D]
     X:     0.0108      Y:     4.7262      Z:    -1.1298     Total:     4.8594

  Basis Set: (AUG-CC-PVQZ AUX)
    Blend: AUG-CC-PVQZ-RI
	 Reference Energy          =    -607.8902071324974941 [Eh]
	 Singles Energy            =      -0.0000000000000000 [Eh]
	 Same-Spin Energy          =      -0.6653943145524516 [Eh]
	 Opposite-Spin Energy      =      -2.2431001037954772 [Eh]
	 Correlation Energy        =      -2.9084944183479289 [Eh]
	 Total Energy              =    -610.7987015508454078 [Eh]

	 ================> DF-SCS-MP2 Energies <==================
	-----------------------------------------------------------
	 SCS Same-Spin Scale       =       0.3333333333333333 [-]
	 SCS Opposite-Spin Scale   =       1.2000000000000000 [-]
	 SCS Same-Spin Energy      =      -0.2217981048508172 [Eh]
	 SCS Opposite-Spin Energy  =      -2.6917201245545725 [Eh]
	 SCS Correlation Energy    =      -2.9135182294053896 [Eh]
	 SCS Total Energy          =    -610.8037253619029343 [Eh]
	-----------------------------------------------------------

*** Psi4 exiting successfully. Buy a developer a beer!
