                               Psi4 1.4a2.dev224

  ==> Input File <==

--------------------------------------------------------------------------
#Generated by lconvert.py for cbs job

memory 20 GB

molecule  {
0 1
  N       0.195730   -0.844690    0.823850
  H       0.450400   -1.796750    1.049770
  C      -1.179050   -0.573680    0.759480
  O      -1.993650   -1.456260    0.966900
  C      -1.476710    0.811160    0.437560
  H      -2.506360    1.115650    0.363900
  C      -0.468110    1.682960    0.234890
  H      -0.638430    2.721640   -0.006160
  N       0.845630    1.305990    0.326830
  H       1.589690    1.968880    0.185960
  C       1.254260    0.019460    0.636240
  O       2.422300   -0.301720    0.731880
--
0 1
  C       1.111660   -0.893440    6.181300
  H       1.565510   -0.985500    5.193310
  H       1.656160   -1.557420    6.850490
  C       1.165970    0.572510    6.614230
  H       2.124260    1.045410    6.403510
  H       0.977850    0.654150    7.687450
  C      -0.001380    1.185320    5.843460
  H       0.272920    1.274110    4.789990
  H      -0.285800    2.176470    6.195090
  C      -1.118330    0.147750    6.014490
  H      -1.843870    0.171370    5.203120
  H      -1.662410    0.352450    6.936740
  C      -0.395290   -1.218800    6.118150
  H      -0.637960   -1.862950    5.274780
  H      -0.710400   -1.746200    7.017230
units angstrom
no_reorient
symmetry c1
}

set {
scf_type DF
mp2_type DF
e_convergence 7
reference rhf
}

energy('mp2/aug-cc-pv[tq]z', bsse_type='cp')
--------------------------------------------------------------------------

    Molecular point group: c1
  Charge       = 0
  Multiplicity = 1
  Basis Set: AUG-CC-PVTZ
    Blend: AUG-CC-PVTZ
  Basis Set: (AUG-CC-PVTZ AUX)
    Blend: AUG-CC-PVTZ-JKFIT
  @DF-RHF Final Energy:  -195.23011577819892
    Total Energy =                       -195.2301157781989218
  Basis Set: (AUG-CC-PVTZ AUX)
    Blend: AUG-CC-PVTZ-RI
	 Reference Energy          =    -195.2301157781989218 [Eh]
	 Singles Energy            =      -0.0000000000000000 [Eh]
	 Same-Spin Energy          =      -0.2104770810609163 [Eh]
	 Opposite-Spin Energy      =      -0.7664119079612748 [Eh]
	 Correlation Energy        =      -0.9768889890221910 [Eh]
	 Total Energy              =    -196.2070047672211217 [Eh]
	 SCS Total Energy          =    -196.2199690947727504 [Eh]
    Molecular point group: c1
  Basis Set: AUG-CC-PVQZ
    Blend: AUG-CC-PVQZ
  Basis Set: (AUG-CC-PVQZ AUX)
    Blend: AUG-CC-PVQZ-JKFIT
  @DF-RHF Final Energy:  -195.24160301604627
    Total Energy =                       -195.2416030160462697
  Basis Set: (AUG-CC-PVQZ AUX)
  @DF-RHF Final Energy:  -195.23012704688952
    Total Energy =                       -195.2301270468895211
  @DF-RHF Final Energy:  -195.24160826938916
    Total Energy =                       -195.2416082693891610
  @DF-RHF Final Energy:  -412.62465937561046
    Total Energy =                       -412.6246593756104630
  @DF-RHF Final Energy:  -412.65013721242838
    Total Energy =                       -412.6501372124283762
  @DF-RHF Final Energy:  -412.62457594101159
    Total Energy =                       -412.6245759410115852
  @DF-RHF Final Energy:  -412.65011008450495
    Total Energy =                       -412.6501100845049450
  Multiplicity = 1
  @DF-RHF Final Energy:  -607.85483611249492
    Total Energy =                       -607.8548361124949224
	 Singles Energy            =      -0.0000000000000000 [Eh]
	 Same-Spin Energy          =      -0.6253306000477497 [Eh]
	 Opposite-Spin Energy      =      -1.9944847544475997 [Eh]
	 Correlation Energy        =      -2.6198153544953495 [Eh]
	 Total Energy              =    -610.4746514669902808 [Eh]
	 SCS Total Energy          =    -610.4566613511813102 [Eh]
    Molecular point group: c1

    Geometry (in Angstrom), charge = 0, multiplicity = 1:

       Center              X                  Y                   Z               Mass
    ------------   -----------------  -----------------  -----------------  -----------------
         N            0.149004277982    -0.859509432908    -1.927311909533    14.003074004430
         H            0.403674277982    -1.811569432908    -1.701391909533     1.007825032230
         C           -1.225775722018    -0.588499432908    -1.991681909533    12.000000000000
         O           -2.040375722018    -1.471079432908    -1.784261909533    15.994914619570
         C           -1.523435722018     0.796340567092    -2.313601909533    12.000000000000
         H           -2.553085722018     1.100830567092    -2.387261909533     1.007825032230
         C           -0.514835722018     1.668140567092    -2.516271909533    12.000000000000
         H           -0.685155722018     2.706820567092    -2.757321909533     1.007825032230
         N            0.798904277982     1.291170567092    -2.424331909533    14.003074004430
         H            1.542964277982     1.954060567092    -2.565201909533     1.007825032230
         C            1.207534277982     0.004640567092    -2.114921909533    12.000000000000
         O            2.375574277982    -0.316539432908    -2.019281909533    15.994914619570
         C            1.064934277982    -0.908259432908     3.430138090467    12.000000000000
         H            1.518784277982    -1.000319432908     2.442148090467     1.007825032230
         H            1.609434277982    -1.572239432908     4.099328090467     1.007825032230
         C            1.119244277982     0.557690567092     3.863068090467    12.000000000000
         H            2.077534277982     1.030590567092     3.652348090467     1.007825032230
         H            0.931124277982     0.639330567092     4.936288090467     1.007825032230
         C           -0.048105722018     1.170500567092     3.092298090467    12.000000000000
         H            0.226194277982     1.259290567092     2.038828090467     1.007825032230
         H           -0.332525722018     2.161650567092     3.443928090467     1.007825032230
         C           -1.165055722018     0.132930567092     3.263328090467    12.000000000000
         H           -1.890595722018     0.156550567092     2.451958090467     1.007825032230
         H           -1.709135722018     0.337630567092     4.185578090467     1.007825032230
         C           -0.442015722018    -1.233619432908     3.366988090467    12.000000000000
         H           -0.684685722018    -1.877769432908     2.523618090467     1.007825032230
         H           -0.757125722018    -1.761019432908     4.266068090467     1.007825032230

  Charge       = 0
  Multiplicity = 1
  Basis Set: AUG-CC-PVQZ
    Blend: AUG-CC-PVQZ
  Basis Set: (AUG-CC-PVQZ AUX)
    Blend: AUG-CC-PVQZ-JKFIT

    Orbital Energies [Eh]
    ---------------------

    Doubly Occupied:

       1A    -20.545883     2A    -20.540377     3A    -15.643484
       4A    -15.626487     5A    -11.418994     6A    -11.381005
       7A    -11.340809     8A    -11.255406     9A    -11.209472
      10A    -11.208117    11A    -11.207458    12A    -11.206988
      13A    -11.206261    14A     -1.436876    15A     -1.398791
      16A     -1.314074    17A     -1.246385    18A     -1.114728
      19A     -1.089246    20A     -0.955208    21A     -0.954502
      22A     -0.934386    23A     -0.902558    24A     -0.808113
      25A     -0.776030    26A     -0.766251    27A     -0.765631
      28A     -0.715445    29A     -0.678796    30A     -0.670249
      31A     -0.654302    32A     -0.648761    33A     -0.643598
      34A     -0.616360    35A     -0.602902    36A     -0.572231
      37A     -0.568298    38A     -0.566792    39A     -0.527300
      40A     -0.485284    41A     -0.474362    42A     -0.473426
      43A     -0.462141    44A     -0.459681    45A     -0.458543
      46A     -0.450846    47A     -0.447033    48A     -0.438494
      49A     -0.370366

  @DF-RHF Final Energy:  -607.89179553802433

   => Energetics <=

    Nuclear Repulsion Energy =            751.9461307058294324
    One-Electron Energy =               -2319.1983662769480361
    Two-Electron Energy =                 959.3604400330941644
    Total Energy =                       -607.8917955380243257

  Dipole Moment: [D]
     X:     0.0428      Y:     4.7874      Z:    -1.1621     Total:     4.9267

  Basis Set: (AUG-CC-PVQZ AUX)
    Blend: AUG-CC-PVQZ-RI
	 Reference Energy          =    -607.8917955380243257 [Eh]
	 Singles Energy            =      -0.0000000000000000 [Eh]
	 Same-Spin Energy          =      -0.6620731549429226 [Eh]
	 Opposite-Spin Energy      =      -2.2387640872865688 [Eh]
	 Correlation Energy        =      -2.9008372422294917 [Eh]
	 Total Energy              =    -610.7926327802538253 [Eh]

	 ================> DF-SCS-MP2 Energies <==================
	-----------------------------------------------------------
	 SCS Same-Spin Scale       =       0.3333333333333333 [-]
	 SCS Opposite-Spin Scale   =       1.2000000000000000 [-]
	 SCS Same-Spin Energy      =      -0.2206910516476409 [Eh]
	 SCS Opposite-Spin Energy  =      -2.6865169047438826 [Eh]
	 SCS Correlation Energy    =      -2.9072079563915234 [Eh]
	 SCS Total Energy          =    -610.7990034944158424 [Eh]
	-----------------------------------------------------------

*** Psi4 exiting successfully. Buy a developer a beer!
