                               Psi4 1.4a2.dev224

  ==> Input File <==

--------------------------------------------------------------------------
#Generated by lconvert.py for cbs job

memory 20 GB

molecule  {
0 1
  N       0.195730   -0.844690    0.823850
  H       0.450400   -1.796750    1.049770
  C      -1.179050   -0.573680    0.759480
  O      -1.993650   -1.456260    0.966900
  C      -1.476710    0.811160    0.437560
  H      -2.506360    1.115650    0.363900
  C      -0.468110    1.682960    0.234890
  H      -0.638430    2.721640   -0.006160
  N       0.845630    1.305990    0.326830
  H       1.589690    1.968880    0.185960
  C       1.254260    0.019460    0.636240
  O       2.422300   -0.301720    0.731880
--
0 1
  C       1.084790   -0.878800    5.309420
  H       1.538640   -0.970860    4.321440
  H       1.629290   -1.542780    5.978620
  C       1.139100    0.587150    5.742360
  H       2.097390    1.060050    5.531630
  H       0.950980    0.668790    6.815580
  C      -0.028250    1.199960    4.971590
  H       0.246050    1.288750    3.918110
  H      -0.312670    2.191110    5.323220
  C      -1.145190    0.162390    5.142610
  H      -1.870740    0.186010    4.331240
  H      -1.689280    0.367090    6.064860
  C      -0.422160   -1.204160    5.246270
  H      -0.664820   -1.848310    4.402910
  H      -0.737260   -1.731560    6.145360
units angstrom
no_reorient
symmetry c1
}

set {
scf_type DF
mp2_type DF
e_convergence 7
reference rhf
}

energy('mp2/aug-cc-pv[tq]z', bsse_type='cp')
--------------------------------------------------------------------------

    Molecular point group: c1
  Charge       = 0
  Multiplicity = 1
  Basis Set: AUG-CC-PVTZ
    Blend: AUG-CC-PVTZ
  Basis Set: (AUG-CC-PVTZ AUX)
    Blend: AUG-CC-PVTZ-JKFIT
  @DF-RHF Final Energy:  -195.23011565657686
    Total Energy =                       -195.2301156565768565
  Basis Set: (AUG-CC-PVTZ AUX)
    Blend: AUG-CC-PVTZ-RI
	 Reference Energy          =    -195.2301156565768565 [Eh]
	 Singles Energy            =      -0.0000000000000000 [Eh]
	 Same-Spin Energy          =      -0.2104771453539149 [Eh]
	 Opposite-Spin Energy      =      -0.7664120090816895 [Eh]
	 Correlation Energy        =      -0.9768891544356044 [Eh]
	 Total Energy              =    -196.2070048110124674 [Eh]
	 SCS Total Energy          =    -196.2199691159261761 [Eh]
    Molecular point group: c1
  Basis Set: AUG-CC-PVQZ
    Blend: AUG-CC-PVQZ
  Basis Set: (AUG-CC-PVQZ AUX)
    Blend: AUG-CC-PVQZ-JKFIT
  @DF-RHF Final Energy:  -195.24160288921817
    Total Energy =                       -195.2416028892181714
  Basis Set: (AUG-CC-PVQZ AUX)
  @DF-RHF Final Energy:  -195.23014161423620
    Total Energy =                       -195.2301416142362029
  @DF-RHF Final Energy:  -195.24161188600914
    Total Energy =                       -195.2416118860091387
  @DF-RHF Final Energy:  -412.62475931749253
    Total Energy =                       -412.6247593174925328
  @DF-RHF Final Energy:  -412.65016130640976
    Total Energy =                       -412.6501613064097569
  @DF-RHF Final Energy:  -412.62457594216482
    Total Energy =                       -412.6245759421648245
  @DF-RHF Final Energy:  -412.65011008154647
    Total Energy =                       -412.6501100815464724
  Multiplicity = 1
  @DF-RHF Final Energy:  -607.85476813857360
    Total Energy =                       -607.8547681385736041
	 Singles Energy            =      -0.0000000000000000 [Eh]
	 Same-Spin Energy          =      -0.6265945626910868 [Eh]
	 Opposite-Spin Energy      =      -1.9968902092411387 [Eh]
	 Correlation Energy        =      -2.6234847719322256 [Eh]
	 Total Energy              =    -610.4782529105058302 [Eh]
	 SCS Total Energy          =    -610.4599012438933414 [Eh]
    Molecular point group: c1

    Geometry (in Angstrom), charge = 0, multiplicity = 1:

       Center              X                  Y                   Z               Mass
    ------------   -----------------  -----------------  -----------------  -----------------
         N            0.159343680928    -0.865143229958    -1.591794777278    14.003074004430
         H            0.414013680928    -1.817203229958    -1.365874777278     1.007825032230
         C           -1.215436319072    -0.594133229958    -1.656164777278    12.000000000000
         O           -2.030036319072    -1.476713229958    -1.448744777278    15.994914619570
         C           -1.513096319072     0.790706770042    -1.978084777278    12.000000000000
         H           -2.542746319072     1.095196770042    -2.051744777278     1.007825032230
         C           -0.504496319072     1.662506770042    -2.180754777278    12.000000000000
         H           -0.674816319072     2.701186770042    -2.421804777278     1.007825032230
         N            0.809243680928     1.285536770042    -2.088814777278    14.003074004430
         H            1.553303680928     1.948426770042    -2.229684777278     1.007825032230
         C            1.217873680928    -0.000993229958    -1.779404777278    12.000000000000
         O            2.385913680928    -0.322173229958    -1.683764777278    15.994914619570
         C            1.048403680928    -0.899253229958     2.893775222722    12.000000000000
         H            1.502253680928    -0.991313229958     1.905795222722     1.007825032230
         H            1.592903680928    -1.563233229958     3.562975222722     1.007825032230
         C            1.102713680928     0.566696770042     3.326715222722    12.000000000000
         H            2.061003680928     1.039596770042     3.115985222722     1.007825032230
         H            0.914593680928     0.648336770042     4.399935222722     1.007825032230
         C           -0.064636319072     1.179506770042     2.555945222722    12.000000000000
         H            0.209663680928     1.268296770042     1.502465222722     1.007825032230
         H           -0.349056319072     2.170656770042     2.907575222722     1.007825032230
         C           -1.181576319072     0.141936770042     2.726965222722    12.000000000000
         H           -1.907126319072     0.165556770042     1.915595222722     1.007825032230
         H           -1.725666319072     0.346636770042     3.649215222722     1.007825032230
         C           -0.458546319072    -1.224613229958     2.830625222722    12.000000000000
         H           -0.701206319072    -1.868763229958     1.987265222722     1.007825032230
         H           -0.773646319072    -1.752013229958     3.729715222722     1.007825032230

  Charge       = 0
  Multiplicity = 1
  Basis Set: AUG-CC-PVQZ
    Blend: AUG-CC-PVQZ
  Basis Set: (AUG-CC-PVQZ AUX)
    Blend: AUG-CC-PVQZ-JKFIT

    Orbital Energies [Eh]
    ---------------------

    Doubly Occupied:

       1A    -20.545994     2A    -20.540509     3A    -15.643508
       4A    -15.626597     5A    -11.419078     6A    -11.381111
       7A    -11.340761     8A    -11.255333     9A    -11.210505
      10A    -11.208338    11A    -11.207388    12A    -11.206712
      13A    -11.205808    14A     -1.436992    15A     -1.398956
      16A     -1.314128    17A     -1.246494    18A     -1.114925
      19A     -1.089232    20A     -0.955425    21A     -0.954517
      22A     -0.934414    23A     -0.902646    24A     -0.808146
      25A     -0.776480    26A     -0.766353    27A     -0.765459
      28A     -0.715474    29A     -0.678908    30A     -0.670686
      31A     -0.654368    32A     -0.648701    33A     -0.643693
      34A     -0.616431    35A     -0.602931    36A     -0.573132
      37A     -0.567837    38A     -0.567020    39A     -0.527271
      40A     -0.485411    41A     -0.474580    42A     -0.473459
      43A     -0.462039    44A     -0.460288    45A     -0.458675
      46A     -0.451049    47A     -0.446862    48A     -0.438583
      49A     -0.370361

  @DF-RHF Final Energy:  -607.89164065979264

   => Energetics <=

    Nuclear Repulsion Energy =            784.5933505630731588
    One-Electron Energy =               -2384.4828238402533316
    Two-Electron Energy =                 991.9978326173874166
    Total Energy =                       -607.8916406597926425

  Dipole Moment: [D]
     X:     0.0279      Y:     4.7535      Z:    -1.1436     Total:     4.8892

  Basis Set: (AUG-CC-PVQZ AUX)
    Blend: AUG-CC-PVQZ-RI
	 Reference Energy          =    -607.8916406597926425 [Eh]
	 Singles Energy            =      -0.0000000000000000 [Eh]
	 Same-Spin Energy          =      -0.6632537428174312 [Eh]
	 Opposite-Spin Energy      =      -2.2403368781023207 [Eh]
	 Correlation Energy        =      -2.9035906209197520 [Eh]
	 Total Energy              =    -610.7952312807124144 [Eh]

	 ================> DF-SCS-MP2 Energies <==================
	-----------------------------------------------------------
	 SCS Same-Spin Scale       =       0.3333333333333333 [-]
	 SCS Opposite-Spin Scale   =       1.2000000000000000 [-]
	 SCS Same-Spin Energy      =      -0.2210845809391437 [Eh]
	 SCS Opposite-Spin Energy  =      -2.6884042537227848 [Eh]
	 SCS Correlation Energy    =      -2.9094888346619285 [Eh]
	 SCS Total Energy          =    -610.8011294944545853 [Eh]
	-----------------------------------------------------------

*** Psi4 exiting successfully. Buy a developer a beer!
