                               Psi4 1.4a2.dev224

  ==> Input File <==

--------------------------------------------------------------------------
#Generated by lconvert.py for cbs job

memory 40 GB

molecule  {
0 1
  N        0.1957300    -0.8446890     0.8238460
  H        0.4503980    -1.7967530     1.0497680
  C       -1.1790490    -0.5736840     0.7594830
  O       -1.9936460    -1.4562650     0.9669010
  C       -1.4767150     0.8111560     0.4375600
  H       -2.5063560     1.1156510     0.3638950
  C       -0.4681130     1.6829620     0.2348910
  H       -0.6384350     2.7216430    -0.0061640
  N        0.8456290     1.3059910     0.3268310
  H        1.5896930     1.9688790     0.1859600
  C        1.2542610     0.0194620     0.6362440
  O        2.4223040    -0.3017160     0.7318790
--
0 1
  C        1.0576010    -0.8639890     4.4272290
  H        1.5114540    -0.9560450     3.4392470
  H        1.6021030    -1.5279690     5.0964270
  C        1.1119140     0.6019630     4.8601650
  H        2.0702040     1.0748620     4.6494410
  H        0.9237990     0.6836010     5.9333880
  C       -0.0554370     1.2147780     4.0893940
  H        0.2188670     1.3035590     3.0359220
  H       -0.3398520     2.2059190     4.4410280
  C       -1.1723820     0.1772060     4.2604220
  H       -1.8979210     0.2008200     3.4490500
  H       -1.7164670     0.3819030     5.1826710
  C       -0.4493450    -1.1893420     4.3640790
  H       -0.6920100    -1.8334980     3.5207200
  H       -0.7644510    -1.7167440     5.2631660
units angstrom
no_reorient
symmetry c1
}

set {
scf_type DF
mp2_type DF
e_convergence 7
reference rhf
}

energy('mp2/aug-cc-pv[tq]z', bsse_type='cp')
--------------------------------------------------------------------------

    Molecular point group: c1
  Charge       = 0
  Multiplicity = 1
  Basis Set: AUG-CC-PVTZ
    Blend: AUG-CC-PVTZ
  Basis Set: (AUG-CC-PVTZ AUX)
    Blend: AUG-CC-PVTZ-JKFIT
  @DF-RHF Final Energy:  -195.23011579914581
    Total Energy =                       -195.2301157991458069
  Basis Set: (AUG-CC-PVTZ AUX)
    Blend: AUG-CC-PVTZ-RI
	 Reference Energy          =    -195.2301157991458069 [Eh]
	 Singles Energy            =      -0.0000000000000000 [Eh]
	 Same-Spin Energy          =      -0.2104771131409551 [Eh]
	 Opposite-Spin Energy      =      -0.7664119062863615 [Eh]
	 Correlation Energy        =      -0.9768890194273165 [Eh]
	 Total Energy              =    -196.2070048185731252 [Eh]
	 SCS Total Energy          =    -196.2199691244030930 [Eh]
    Molecular point group: c1
  Basis Set: AUG-CC-PVQZ
    Blend: AUG-CC-PVQZ
  Basis Set: (AUG-CC-PVQZ AUX)
    Blend: AUG-CC-PVQZ-JKFIT
  @DF-RHF Final Energy:  -195.24160303705534
    Total Energy =                       -195.2416030370553415
  Basis Set: (AUG-CC-PVQZ AUX)
  @DF-RHF Final Energy:  -195.23017607253487
    Total Energy =                       -195.2301760725348743
  @DF-RHF Final Energy:  -195.24162118910246
    Total Energy =                       -195.2416211891024602
  @DF-RHF Final Energy:  -412.62494671180650
    Total Energy =                       -412.6249467118065013
  @DF-RHF Final Energy:  -412.65020838199996
    Total Energy =                       -412.6502083819999598
  @DF-RHF Final Energy:  -412.62457549502852
    Total Energy =                       -412.6245754950285232
  @DF-RHF Final Energy:  -412.65010962205145
    Total Energy =                       -412.6501096220514455
  Multiplicity = 1
  @DF-RHF Final Energy:  -607.85053316370488
    Total Energy =                       -607.8505331637049949
	 Singles Energy            =      -0.0000000000000000 [Eh]
	 Same-Spin Energy          =      -0.6310131971454425 [Eh]
	 Opposite-Spin Energy      =      -2.0041208240336936 [Eh]
	 Correlation Energy        =      -2.6351340211791361 [Eh]
	 Total Energy              =    -610.4856671848840506 [Eh]
	 SCS Total Energy          =    -610.4658158849271103 [Eh]
    Molecular point group: c1

    Geometry (in Angstrom), charge = 0, multiplicity = 1:

       Center              X                  Y                   Z               Mass
    ------------   -----------------  -----------------  -----------------  -----------------
         N            0.169805786797    -0.870843062066    -1.252311933542    14.003074004430
         H            0.424473786797    -1.822907062066    -1.026389933542     1.007825032230
         C           -1.204973213203    -0.599838062066    -1.316674933542    12.000000000000
         O           -2.019570213203    -1.482419062066    -1.109256933542    15.994914619570
         C           -1.502639213203     0.785001937934    -1.638597933542    12.000000000000
         H           -2.532280213203     1.089496937934    -1.712262933542     1.007825032230
         C           -0.494037213203     1.656807937934    -1.841266933542    12.000000000000
         H           -0.664359213203     2.695488937934    -2.082321933542     1.007825032230
         N            0.819704786797     1.279836937934    -1.749326933542    14.003074004430
         H            1.563768786797     1.942724937934    -1.890197933542     1.007825032230
         C            1.228336786797    -0.006692062066    -1.439913933542    12.000000000000
         O            2.396379786797    -0.327870062066    -1.344278933542    15.994914619570
         C            1.031676786797    -0.890143062066     2.351071066458    12.000000000000
         H            1.485529786797    -0.982199062066     1.363089066458     1.007825032230
         H            1.576178786797    -1.554123062066     3.020269066458     1.007825032230
         C            1.085989786797     0.575808937934     2.784007066458    12.000000000000
         H            2.044279786797     1.048707937934     2.573283066458     1.007825032230
         H            0.897874786797     0.657446937934     3.857230066458     1.007825032230
         C           -0.081361213203     1.188623937934     2.013236066458    12.000000000000
         H            0.192942786797     1.277404937934     0.959764066458     1.007825032230
         H           -0.365776213203     2.179764937934     2.364870066458     1.007825032230
         C           -1.198306213203     0.151051937934     2.184264066458    12.000000000000
         H           -1.923845213203     0.174665937934     1.372892066458     1.007825032230
         H           -1.742391213203     0.355748937934     3.106513066458     1.007825032230
         C           -0.475269213203    -1.215496062066     2.287921066458    12.000000000000
         H           -0.717934213203    -1.859652062066     1.444562066458     1.007825032230
         H           -0.790375213203    -1.742898062066     3.187008066458     1.007825032230

  Charge       = 0
  Multiplicity = 1
  Basis Set: AUG-CC-PVQZ
    Blend: AUG-CC-PVQZ
  Basis Set: (AUG-CC-PVQZ AUX)
    Blend: AUG-CC-PVQZ-JKFIT

    Orbital Energies [Eh]
    ---------------------

    Doubly Occupied:

       1A    -20.546211     2A    -20.540441     3A    -15.643289
       4A    -15.626443     5A    -11.419094     6A    -11.381067
       7A    -11.340211     8A    -11.254960     9A    -11.211473
      10A    -11.208319    11A    -11.207032    12A    -11.205600
      13A    -11.204581    14A     -1.437302    15A     -1.399301
      16A     -1.314234    17A     -1.246670    18A     -1.115162
      19A     -1.089111    20A     -0.955849    21A     -0.954433
      22A     -0.934345    23A     -0.902743    24A     -0.808176
      25A     -0.777587    26A     -0.767489    27A     -0.764127
      28A     -0.715459    29A     -0.679085    30A     -0.675869
      31A     -0.654497    32A     -0.645934    33A     -0.642711
      34A     -0.616466    35A     -0.602933    36A     -0.579514
      37A     -0.570478    38A     -0.561202    39A     -0.525680
      40A     -0.485920    41A     -0.474726    42A     -0.473070
      43A     -0.461921    44A     -0.461311    45A     -0.458796
      46A     -0.451939    47A     -0.445915    48A     -0.437713
      49A     -0.370171

  @DF-RHF Final Energy:  -607.88724579238078

   => Energetics <=

    Nuclear Repulsion Energy =            828.8412504050460257
    One-Electron Energy =               -2472.9638449986041451
    Two-Electron Energy =                1036.2353488011772242
    Total Energy =                       -607.8872457923807815

  Dipole Moment: [D]
     X:    -0.0024      Y:     4.7100      Z:    -1.1308     Total:     4.8438

  Basis Set: (AUG-CC-PVQZ AUX)
    Blend: AUG-CC-PVQZ-RI
	 Reference Energy          =    -607.8872457923807815 [Eh]
	 Singles Energy            =      -0.0000000000000000 [Eh]
	 Same-Spin Energy          =      -0.6675056084872928 [Eh]
	 Opposite-Spin Energy      =      -2.2457987286688561 [Eh]
	 Correlation Energy        =      -2.9133043371561489 [Eh]
	 Total Energy              =    -610.8005501295369868 [Eh]

	 ================> DF-SCS-MP2 Energies <==================
	-----------------------------------------------------------
	 SCS Same-Spin Scale       =       0.3333333333333333 [-]
	 SCS Opposite-Spin Scale   =       1.2000000000000000 [-]
	 SCS Same-Spin Energy      =      -0.2225018694957643 [Eh]
	 SCS Opposite-Spin Energy  =      -2.6949584744026271 [Eh]
	 SCS Correlation Energy    =      -2.9174603438983913 [Eh]
	 SCS Total Energy          =    -610.8047061362791510 [Eh]
	-----------------------------------------------------------

*** Psi4 exiting successfully. Buy a developer a beer!
