                               Psi4 1.4a2.dev224

  ==> Input File <==

--------------------------------------------------------------------------
#Generated by lconvert.py for cbs job

memory 40 GB

molecule  {
0 1
  N        0.1957300    -0.8446890     0.8238460
  H        0.4503980    -1.7967530     1.0497680
  C       -1.1790490    -0.5736840     0.7594830
  O       -1.9936460    -1.4562650     0.9669010
  C       -1.4767150     0.8111560     0.4375600
  H       -2.5063560     1.1156510     0.3638950
  C       -0.4681130     1.6829620     0.2348910
  H       -0.6384350     2.7216430    -0.0061640
  N        0.8456290     1.3059910     0.3268310
  H        1.5896930     1.9688790     0.1859600
  C        1.2542610     0.0194620     0.6362440
  O        2.4223040    -0.3017160     0.7318790
--
0 1
  C        1.0292650    -0.8485490     3.5077490
  H        1.4831170    -0.9406050     2.5197670
  H        1.5737670    -1.5125290     4.1769470
  C        1.0835780     0.6174030     3.9406850
  H        2.0418680     1.0903020     3.7299610
  H        0.8954630     0.6990410     5.0139080
  C       -0.0837730     1.2302180     3.1699140
  H        0.1905310     1.3189990     2.1164430
  H       -0.3681880     2.2213590     3.5215480
  C       -1.2007180     0.1926460     3.3409420
  H       -1.9262570     0.2162600     2.5295710
  H       -1.7448030     0.3973430     4.2631910
  C       -0.4776810    -1.1739020     3.4445990
  H       -0.7203460    -1.8180580     2.6012400
  H       -0.7927880    -1.7013040     4.3436860
units angstrom
no_reorient
symmetry c1
}

set {
scf_type DF
mp2_type DF
e_convergence 7
reference rhf
}

energy('mp2/aug-cc-pv[tq]z', bsse_type='cp')
--------------------------------------------------------------------------

    Molecular point group: c1
  Charge       = 0
  Multiplicity = 1
  Basis Set: AUG-CC-PVTZ
    Blend: AUG-CC-PVTZ
  Basis Set: (AUG-CC-PVTZ AUX)
    Blend: AUG-CC-PVTZ-JKFIT
  @DF-RHF Final Energy:  -195.23011581337303
    Total Energy =                       -195.2301158133730326
  Basis Set: (AUG-CC-PVTZ AUX)
    Blend: AUG-CC-PVTZ-RI
	 Reference Energy          =    -195.2301158133730326 [Eh]
	 Singles Energy            =      -0.0000000000000000 [Eh]
	 Same-Spin Energy          =      -0.2104771134060096 [Eh]
	 Opposite-Spin Energy      =      -0.7664118945545133 [Eh]
	 Correlation Energy        =      -0.9768890079605229 [Eh]
	 Total Energy              =    -196.2070048213335554 [Eh]
	 SCS Total Energy          =    -196.2199691246404427 [Eh]
    Molecular point group: c1
  Basis Set: AUG-CC-PVQZ
    Blend: AUG-CC-PVQZ
  Basis Set: (AUG-CC-PVQZ AUX)
    Blend: AUG-CC-PVQZ-JKFIT
  @DF-RHF Final Energy:  -195.24160305200303
    Total Energy =                       -195.2416030520030290
  Basis Set: (AUG-CC-PVQZ AUX)
  @DF-RHF Final Energy:  -195.23025687217549
    Total Energy =                       -195.2302568721754881
  @DF-RHF Final Energy:  -195.24163970087429
    Total Energy =                       -195.2416397008742877
  @DF-RHF Final Energy:  -412.62537689390962
    Total Energy =                       -412.6253768939096176
  @DF-RHF Final Energy:  -412.65029252070019
    Total Energy =                       -412.6502925207001908
  @DF-RHF Final Energy:  -412.62457549822068
    Total Energy =                       -412.6245754982206790
  @DF-RHF Final Energy:  -412.65010962244128
    Total Energy =                       -412.6501096224412777
  Multiplicity = 1
  @DF-RHF Final Energy:  -607.77078679232329
    Total Energy =                       -607.7707867923234062
	 Singles Energy            =      -0.0000000000000000 [Eh]
	 Same-Spin Energy          =      -0.6491279015616847 [Eh]
	 Opposite-Spin Energy      =      -2.0306166856922978 [Eh]
	 Correlation Energy        =      -2.6797445872539827 [Eh]
	 Total Energy              =    -610.4505313795772281 [Eh]
	 SCS Total Energy          =    -610.4239027823413153 [Eh]
    Molecular point group: c1

    Geometry (in Angstrom), charge = 0, multiplicity = 1:

       Center              X                  Y                   Z               Mass
    ------------   -----------------  -----------------  -----------------  -----------------
         N            0.180710119806    -0.876784716878    -0.898475625525    14.003074004430
         H            0.435378119806    -1.828848716878    -0.672553625525     1.007825032230
         C           -1.194068880194    -0.605779716878    -0.962838625525    12.000000000000
         O           -2.008665880194    -1.488360716878    -0.755420625525    15.994914619570
         C           -1.491734880194     0.779060283122    -1.284761625525    12.000000000000
         H           -2.521375880194     1.083555283122    -1.358426625525     1.007825032230
         C           -0.483132880194     1.650866283122    -1.487430625525    12.000000000000
         H           -0.653454880194     2.689547283122    -1.728485625525     1.007825032230
         N            0.830609119806     1.273895283122    -1.395490625525    14.003074004430
         H            1.574673119806     1.936783283122    -1.536361625525     1.007825032230
         C            1.239241119806    -0.012633716878    -1.086077625525    12.000000000000
         O            2.407284119806    -0.333811716878    -0.990442625525    15.994914619570
         C            1.014245119806    -0.880644716878     1.785427374475    12.000000000000
         H            1.468097119806    -0.972700716878     0.797445374475     1.007825032230
         H            1.558747119806    -1.544624716878     2.454625374475     1.007825032230
         C            1.068558119806     0.585307283122     2.218363374475    12.000000000000
         H            2.026848119806     1.058206283122     2.007639374475     1.007825032230
         H            0.880443119806     0.666945283122     3.291586374475     1.007825032230
         C           -0.098792880194     1.198122283122     1.447592374475    12.000000000000
         H            0.175511119806     1.286903283122     0.394121374475     1.007825032230
         H           -0.383207880194     2.189263283122     1.799226374475     1.007825032230
         C           -1.215737880194     0.160550283122     1.618620374475    12.000000000000
         H           -1.941276880194     0.184164283122     0.807249374475     1.007825032230
         H           -1.759822880194     0.365247283122     2.540869374475     1.007825032230
         C           -0.492700880194    -1.205997716878     1.722277374475    12.000000000000
         H           -0.735365880194    -1.850153716878     0.878918374475     1.007825032230
         H           -0.807807880194    -1.733399716878     2.621364374475     1.007825032230

  Charge       = 0
  Multiplicity = 1
  Basis Set: AUG-CC-PVQZ
    Blend: AUG-CC-PVQZ
  Basis Set: (AUG-CC-PVQZ AUX)
    Blend: AUG-CC-PVQZ-JKFIT

    Orbital Energies [Eh]
    ---------------------

    Doubly Occupied:

       1A    -20.548113     2A    -20.538398     3A    -15.640835
       4A    -15.626138     5A    -11.420310     6A    -11.382627
       7A    -11.336583     8A    -11.255914     9A    -11.205585
      10A    -11.203511    11A    -11.202909    12A    -11.197787
      13A    -11.196758    14A     -1.442064    15A     -1.403456
      16A     -1.318219    17A     -1.251275    18A     -1.115161
      19A     -1.091804    20A     -0.959378    21A     -0.955774
      22A     -0.934463    23A     -0.905564    24A     -0.812037
      25A     -0.786156    26A     -0.779755    27A     -0.754954
      28A     -0.718263    29A     -0.704747    30A     -0.681149
      31A     -0.656905    32A     -0.643775    33A     -0.627830
      34A     -0.617316    35A     -0.605582    36A     -0.597677
      37A     -0.594863    38A     -0.533514    39A     -0.509730
      40A     -0.490718    41A     -0.475153    42A     -0.470960
      43A     -0.463109    44A     -0.460934    45A     -0.455886
      46A     -0.447756    47A     -0.439739    48A     -0.427355
      49A     -0.368276

  @DF-RHF Final Energy:  -607.80716112159143

   => Energetics <=

    Nuclear Repulsion Energy =            893.4572215072710151
    One-Electron Energy =               -2602.0152327306445841
    Two-Electron Energy =                1100.7508501017821345
    Total Energy =                       -607.8071611215914345

  Dipole Moment: [D]
     X:    -0.0960      Y:     4.6173      Z:    -1.2835     Total:     4.7933

  Basis Set: (AUG-CC-PVQZ AUX)
    Blend: AUG-CC-PVQZ-RI
	 Reference Energy          =    -607.8071611215914345 [Eh]
	 Singles Energy            =      -0.0000000000000000 [Eh]
	 Same-Spin Energy          =      -0.6854388699328258 [Eh]
	 Opposite-Spin Energy      =      -2.2681331247532088 [Eh]
	 Correlation Energy        =      -2.9535719946860346 [Eh]
	 Total Energy              =    -610.7607331162774926 [Eh]

	 ================> DF-SCS-MP2 Energies <==================
	-----------------------------------------------------------
	 SCS Same-Spin Scale       =       0.3333333333333333 [-]
	 SCS Opposite-Spin Scale   =       1.2000000000000000 [-]
	 SCS Same-Spin Energy      =      -0.2284796233109419 [Eh]
	 SCS Opposite-Spin Energy  =      -2.7217597497038506 [Eh]
	 SCS Correlation Energy    =      -2.9502393730147927 [Eh]
	 SCS Total Energy          =    -610.7574004946062587 [Eh]
	-----------------------------------------------------------

*** Psi4 exiting successfully. Buy a developer a beer!
