                               Psi4 1.4a2.dev224

  ==> Input File <==

--------------------------------------------------------------------------
#Generated by lconvert.py for cbs job

memory 40 GB

molecule  {
0 1
  N        0.1957300    -0.8446890     0.8238460
  H        0.4503980    -1.7967530     1.0497680
  C       -1.1790490    -0.5736840     0.7594830
  O       -1.9936460    -1.4562650     0.9669010
  C       -1.4767150     0.8111560     0.4375600
  H       -2.5063560     1.1156510     0.3638950
  C       -0.4681130     1.6829620     0.2348910
  H       -0.6384350     2.7216430    -0.0061640
  N        0.8456290     1.3059910     0.3268310
  H        1.5896930     1.9688790     0.1859600
  C        1.2542610     0.0194620     0.6362440
  O        2.4223040    -0.3017160     0.7318790
--
0 1
  C        1.0528850    -0.8614190     4.2742010
  H        1.5067380    -0.9534750     3.2862180
  H        1.5973880    -1.5253990     4.9433990
  C        1.1071990     0.6045330     4.7071370
  H        2.0654890     1.0774320     4.4964130
  H        0.9190830     0.6861710     5.7803600
  C       -0.0601530     1.2173470     3.9363660
  H        0.2141510     1.3061290     2.8828940
  H       -0.3445670     2.2084890     4.2880000
  C       -1.1770980     0.1797760     4.1073940
  H       -1.9026370     0.2033890     3.2960220
  H       -1.7211830     0.3844730     5.0296430
  C       -0.4540610    -1.1867720     4.2110510
  H       -0.6967260    -1.8309280     3.3676910
  H       -0.7691670    -1.7141750     5.1101370
units angstrom
no_reorient
symmetry c1
}

set {
scf_type DF
mp2_type DF
e_convergence 7
reference rhf
}

energy('mp2/aug-cc-pv[tq]z', bsse_type='cp')
--------------------------------------------------------------------------

    Molecular point group: c1
  Charge       = 0
  Multiplicity = 1
  Basis Set: AUG-CC-PVTZ
    Blend: AUG-CC-PVTZ
  Basis Set: (AUG-CC-PVTZ AUX)
    Blend: AUG-CC-PVTZ-JKFIT
  @DF-RHF Final Energy:  -195.23011577557128
    Total Energy =                       -195.2301157755712779
  Basis Set: (AUG-CC-PVTZ AUX)
    Blend: AUG-CC-PVTZ-RI
	 Reference Energy          =    -195.2301157755712779 [Eh]
	 Singles Energy            =      -0.0000000000000000 [Eh]
	 Same-Spin Energy          =      -0.2104771138267826 [Eh]
	 Opposite-Spin Energy      =      -0.7664119208294471 [Eh]
	 Correlation Energy        =      -0.9768890346562297 [Eh]
	 Total Energy              =    -196.2070048102275166 [Eh]
	 SCS Total Energy          =    -196.2199691185088852 [Eh]
    Molecular point group: c1
  Basis Set: AUG-CC-PVQZ
    Blend: AUG-CC-PVQZ
  Basis Set: (AUG-CC-PVQZ AUX)
    Blend: AUG-CC-PVQZ-JKFIT
  @DF-RHF Final Energy:  -195.24160301378188
    Total Energy =                       -195.2416030137818836
  Basis Set: (AUG-CC-PVQZ AUX)
  @DF-RHF Final Energy:  -195.23018581404258
    Total Energy =                       -195.2301858140425850
  @DF-RHF Final Energy:  -195.24162349840043
    Total Energy =                       -195.2416234984004291
  @DF-RHF Final Energy:  -412.62500054608836
    Total Energy =                       -412.6250005460883585
  @DF-RHF Final Energy:  -412.65021972093695
    Total Energy =                       -412.6502197209369456
  @DF-RHF Final Energy:  -412.62457549848028
    Total Energy =                       -412.6245754984802829
  @DF-RHF Final Energy:  -412.65010962064605
    Total Energy =                       -412.6501096206460488
  Multiplicity = 1
  @DF-RHF Final Energy:  -607.84752155801323
    Total Energy =                       -607.8475215580133408
	 Singles Energy            =      -0.0000000000000000 [Eh]
	 Same-Spin Energy          =      -0.6325733413140988 [Eh]
	 Opposite-Spin Energy      =      -2.0065548317712167 [Eh]
	 Correlation Energy        =      -2.6391281730853153 [Eh]
	 Total Energy              =    -610.4866497310985096 [Eh]
	 SCS Total Energy          =    -610.4662451365767311 [Eh]
    Molecular point group: c1

    Geometry (in Angstrom), charge = 0, multiplicity = 1:

       Center              X                  Y                   Z               Mass
    ------------   -----------------  -----------------  -----------------  -----------------
         N            0.171620525807    -0.871831978163    -1.193423344880    14.003074004430
         H            0.426288525807    -1.823895978163    -0.967501344880     1.007825032230
         C           -1.203158474193    -0.600826978163    -1.257786344880    12.000000000000
         O           -2.017755474193    -1.483407978163    -1.050368344880    15.994914619570
         C           -1.500824474193     0.784013021837    -1.579709344880    12.000000000000
         H           -2.530465474193     1.088508021837    -1.653374344880     1.007825032230
         C           -0.492222474193     1.655819021837    -1.782378344880    12.000000000000
         H           -0.662544474193     2.694500021837    -2.023433344880     1.007825032230
         N            0.821519525807     1.278848021837    -1.690438344880    14.003074004430
         H            1.565583525807     1.941736021837    -1.831309344880     1.007825032230
         C            1.230151525807    -0.007680978163    -1.381025344880    12.000000000000
         O            2.398194525807    -0.328858978163    -1.285390344880    15.994914619570
         C            1.028775525807    -0.888561978163     2.256931655120    12.000000000000
         H            1.482628525807    -0.980617978163     1.268948655120     1.007825032230
         H            1.573278525807    -1.552541978163     2.926129655120     1.007825032230
         C            1.083089525807     0.577390021837     2.689867655120    12.000000000000
         H            2.041379525807     1.050289021837     2.479143655120     1.007825032230
         H            0.894973525807     0.659028021837     3.763090655120     1.007825032230
         C           -0.084262474193     1.190204021837     1.919096655120    12.000000000000
         H            0.190041525807     1.278986021837     0.865624655120     1.007825032230
         H           -0.368676474193     2.181346021837     2.270730655120     1.007825032230
         C           -1.201207474193     0.152633021837     2.090124655120    12.000000000000
         H           -1.926746474193     0.176246021837     1.278752655120     1.007825032230
         H           -1.745292474193     0.357330021837     3.012373655120     1.007825032230
         C           -0.478170474193    -1.213914978163     2.193781655120    12.000000000000
         H           -0.720835474193    -1.858070978163     1.350421655120     1.007825032230
         H           -0.793276474193    -1.741317978163     3.092867655120     1.007825032230

  Charge       = 0
  Multiplicity = 1
  Basis Set: AUG-CC-PVQZ
    Blend: AUG-CC-PVQZ
  Basis Set: (AUG-CC-PVQZ AUX)
    Blend: AUG-CC-PVQZ-JKFIT

    Orbital Energies [Eh]
    ---------------------

    Doubly Occupied:

       1A    -20.546319     2A    -20.540349     3A    -15.643167
       4A    -15.626365     5A    -11.419116     6A    -11.381055
       7A    -11.339967     8A    -11.254882     9A    -11.211322
      10A    -11.208167    11A    -11.206799    12A    -11.205068
      13A    -11.204085    14A     -1.437491    15A     -1.399470
      16A     -1.314344    17A     -1.246804    18A     -1.115153
      19A     -1.089140    20A     -0.955946    21A     -0.954386
      22A     -0.934347    23A     -0.902829    24A     -0.808259
      25A     -0.777993    26A     -0.768140    27A     -0.763467
      28A     -0.715516    29A     -0.679182    30A     -0.678492
      31A     -0.654591    32A     -0.645143    33A     -0.641376
      34A     -0.616500    35A     -0.602991    36A     -0.581910
      37A     -0.572119    38A     -0.558712    39A     -0.524633
      40A     -0.486212    41A     -0.474650    42A     -0.472791
      43A     -0.462085    44A     -0.461222    45A     -0.458839
      46A     -0.452219    47A     -0.445454    48A     -0.437180
      49A     -0.370104

  @DF-RHF Final Energy:  -607.88418894185077

   => Energetics <=

    Nuclear Repulsion Energy =            838.0554575225680765
    One-Electron Energy =               -2491.3865647522152358
    Two-Electron Energy =                1045.4469182877965068
    Total Energy =                       -607.8841889418506526

  Dipole Moment: [D]
     X:    -0.0110      Y:     4.7005      Z:    -1.1369     Total:     4.8361

  Basis Set: (AUG-CC-PVQZ AUX)
    Blend: AUG-CC-PVQZ-RI
	 Reference Energy          =    -607.8841889418507662 [Eh]
	 Singles Energy            =      -0.0000000000000000 [Eh]
	 Same-Spin Energy          =      -0.6690192959521268 [Eh]
	 Opposite-Spin Energy      =      -2.2477157574478119 [Eh]
	 Correlation Energy        =      -2.9167350533999388 [Eh]
	 Total Energy              =    -610.8009239952507414 [Eh]

	 ================> DF-SCS-MP2 Energies <==================
	-----------------------------------------------------------
	 SCS Same-Spin Scale       =       0.3333333333333333 [-]
	 SCS Opposite-Spin Scale   =       1.2000000000000000 [-]
	 SCS Same-Spin Energy      =      -0.2230064319840423 [Eh]
	 SCS Opposite-Spin Energy  =      -2.6972589089373744 [Eh]
	 SCS Correlation Energy    =      -2.9202653409214165 [Eh]
	 SCS Total Energy          =    -610.8044542827722125 [Eh]
	-----------------------------------------------------------

*** Psi4 exiting successfully. Buy a developer a beer!
