                               Psi4 1.4a2.dev224

  ==> Input File <==

--------------------------------------------------------------------------
#Generated by lconvert.py for cbs job

memory 20 GB

molecule  {
0 1
  N       0.195730   -0.844690    0.823850
  H       0.450400   -1.796750    1.049770
  C      -1.179050   -0.573680    0.759480
  O      -1.993650   -1.456260    0.966900
  C      -1.476710    0.811160    0.437560
  H      -2.506360    1.115650    0.363900
  C      -0.468110    1.682960    0.234890
  H      -0.638430    2.721640   -0.006160
  N       0.845630    1.305990    0.326830
  H       1.589690    1.968880    0.185960
  C       1.254260    0.019460    0.636240
  O       2.422300   -0.301720    0.731880
--
0 1
  C       1.138520   -0.908080    7.053170
  H       1.592380   -1.000140    6.065190
  H       1.683030   -1.572060    7.722370
  C       1.192840    0.557870    7.486110
  H       2.151130    1.030770    7.275380
  H       1.004720    0.639510    8.559330
  C       0.025490    1.170680    6.715330
  H       0.299790    1.259470    5.661860
  H      -0.258930    2.161830    7.066970
  C      -1.091460    0.133110    6.886360
  H      -1.817000    0.156730    6.074990
  H      -1.635550    0.337810    7.808610
  C      -0.368420   -1.233440    6.990020
  H      -0.611090   -1.877590    6.146660
  H      -0.683530   -1.760840    7.889110
units angstrom
no_reorient
symmetry c1
}

set {
scf_type DF
mp2_type DF
e_convergence 7
reference rhf
}

energy('mp2/aug-cc-pv[tq]z', bsse_type='cp')
--------------------------------------------------------------------------

    Molecular point group: c1
  Charge       = 0
  Multiplicity = 1
  Basis Set: AUG-CC-PVTZ
    Blend: AUG-CC-PVTZ
  Basis Set: (AUG-CC-PVTZ AUX)
    Blend: AUG-CC-PVTZ-JKFIT
  @DF-RHF Final Energy:  -195.23011562068663
    Total Energy =                       -195.2301156206866324
  Basis Set: (AUG-CC-PVTZ AUX)
    Blend: AUG-CC-PVTZ-RI
	 Reference Energy          =    -195.2301156206866324 [Eh]
	 Singles Energy            =      -0.0000000000000000 [Eh]
	 Same-Spin Energy          =      -0.2104770928348695 [Eh]
	 Opposite-Spin Energy      =      -0.7664120119592022 [Eh]
	 Correlation Energy        =      -0.9768891047940718 [Eh]
	 Total Energy              =    -196.2070047254807150 [Eh]
	 SCS Total Energy          =    -196.2199690659826388 [Eh]
    Molecular point group: c1
  Basis Set: AUG-CC-PVQZ
    Blend: AUG-CC-PVQZ
  Basis Set: (AUG-CC-PVQZ AUX)
    Blend: AUG-CC-PVQZ-JKFIT
  @DF-RHF Final Energy:  -195.24160284843808
    Total Energy =                       -195.2416028484380774
  Basis Set: (AUG-CC-PVQZ AUX)
  @DF-RHF Final Energy:  -195.23012097790223
    Total Energy =                       -195.2301209779022315
  @DF-RHF Final Energy:  -195.24160597298669
    Total Energy =                       -195.2416059729866902
  @DF-RHF Final Energy:  -412.62460990211309
    Total Energy =                       -412.6246099021130931
  @DF-RHF Final Energy:  -412.65012307213198
    Total Energy =                       -412.6501230721319757
  @DF-RHF Final Energy:  -412.62457594187975
    Total Energy =                       -412.6245759418797547
  @DF-RHF Final Energy:  -412.65011008302491
    Total Energy =                       -412.6501100830249129
  Multiplicity = 1
  @DF-RHF Final Energy:  -607.85476780436852
    Total Energy =                       -607.8547678043685210
	 Singles Energy            =      -0.0000000000000000 [Eh]
	 Same-Spin Energy          =      -0.6248953729305959 [Eh]
	 Opposite-Spin Energy      =      -1.9935460390325428 [Eh]
	 Correlation Energy        =      -2.6184414119631390 [Eh]
	 Total Energy              =    -610.4732092163316111 [Eh]
	 SCS Total Energy          =    -610.4553215088510569 [Eh]
    Molecular point group: c1

    Geometry (in Angstrom), charge = 0, multiplicity = 1:

       Center              X                  Y                   Z               Mass
    ------------   -----------------  -----------------  -----------------  -----------------
         N            0.138664819692    -0.853875635858    -2.262827834557    14.003074004430
         H            0.393334819692    -1.805935635858    -2.036907834557     1.007825032230
         C           -1.236115180308    -0.582865635858    -2.327197834557    12.000000000000
         O           -2.050715180308    -1.465445635858    -2.119777834557    15.994914619570
         C           -1.533775180308     0.801974364142    -2.649117834557    12.000000000000
         H           -2.563425180308     1.106464364142    -2.722777834557     1.007825032230
         C           -0.525175180308     1.673774364142    -2.851787834557    12.000000000000
         H           -0.695495180308     2.712454364142    -3.092837834557     1.007825032230
         N            0.788564819692     1.296804364142    -2.759847834557    14.003074004430
         H            1.532624819692     1.959694364142    -2.900717834557     1.007825032230
         C            1.197194819692     0.010274364142    -2.450437834557    12.000000000000
         O            2.365234819692    -0.310905635858    -2.354797834557    15.994914619570
         C            1.081454819692    -0.917265635858     3.966492165443    12.000000000000
         H            1.535314819692    -1.009325635858     2.978512165443     1.007825032230
         H            1.625964819692    -1.581245635858     4.635692165443     1.007825032230
         C            1.135774819692     0.548684364142     4.399432165443    12.000000000000
         H            2.094064819692     1.021584364142     4.188702165443     1.007825032230
         H            0.947654819692     0.630324364142     5.472652165443     1.007825032230
         C           -0.031575180308     1.161494364142     3.628652165443    12.000000000000
         H            0.242724819692     1.250284364142     2.575182165443     1.007825032230
         H           -0.315995180308     2.152644364142     3.980292165443     1.007825032230
         C           -1.148525180308     0.123924364142     3.799682165443    12.000000000000
         H           -1.874065180308     0.147544364142     2.988312165443     1.007825032230
         H           -1.692615180308     0.328624364142     4.721932165443     1.007825032230
         C           -0.425485180308    -1.242625635858     3.903342165443    12.000000000000
         H           -0.668155180308    -1.886775635858     3.059982165443     1.007825032230
         H           -0.740595180308    -1.770025635858     4.802432165443     1.007825032230

  Charge       = 0
  Multiplicity = 1
  Basis Set: AUG-CC-PVQZ
    Blend: AUG-CC-PVQZ
  Basis Set: (AUG-CC-PVQZ AUX)
    Blend: AUG-CC-PVQZ-JKFIT

    Orbital Energies [Eh]
    ---------------------

    Doubly Occupied:

       1A    -20.545772     2A    -20.540251     3A    -15.643414
       4A    -15.626348     5A    -11.418887     6A    -11.380888
       7A    -11.340764     8A    -11.255374     9A    -11.208938
      10A    -11.208019    11A    -11.207581    12A    -11.207179
      13A    -11.206589    14A     -1.436762    15A     -1.398659
      16A     -1.313990    17A     -1.246263    18A     -1.114691
      19A     -1.089191    20A     -0.955181    21A     -0.954542
      22A     -0.934311    23A     -0.902449    24A     -0.808038
      25A     -0.775847    26A     -0.766165    27A     -0.765779
      28A     -0.715369    29A     -0.678687    30A     -0.670119
      31A     -0.654217    32A     -0.648765    33A     -0.643588
      34A     -0.616269    35A     -0.602832    36A     -0.572060
      37A     -0.568392    38A     -0.566687    39A     -0.527225
      40A     -0.485175    41A     -0.474306    42A     -0.473452
      43A     -0.462272    44A     -0.459434    45A     -0.458518
      46A     -0.450720    47A     -0.447193    48A     -0.438350
      49A     -0.370306

  @DF-RHF Final Energy:  -607.89176623376034

   => Energetics <=

    Nuclear Repulsion Energy =            726.7776434797834781
    One-Electron Energy =               -2268.8671713115309103
    Two-Electron Energy =                 934.1977615979872098
    Total Energy =                       -607.8917662337603360

  Dipole Moment: [D]
     X:     0.0511      Y:     4.8134      Z:    -1.1701     Total:     4.9539

  Basis Set: (AUG-CC-PVQZ AUX)
    Blend: AUG-CC-PVQZ-RI
	 Reference Energy          =    -607.8917662337603360 [Eh]
	 Singles Energy            =      -0.0000000000000000 [Eh]
	 Same-Spin Energy          =      -0.6616842660826476 [Eh]
	 Opposite-Spin Energy      =      -2.2382097910315348 [Eh]
	 Correlation Energy        =      -2.8998940571141825 [Eh]
	 Total Energy              =    -610.7916602908745745 [Eh]

	 ================> DF-SCS-MP2 Energies <==================
	-----------------------------------------------------------
	 SCS Same-Spin Scale       =       0.3333333333333333 [-]
	 SCS Opposite-Spin Scale   =       1.2000000000000000 [-]
	 SCS Same-Spin Energy      =      -0.2205614220275492 [Eh]
	 SCS Opposite-Spin Energy  =      -2.6858517492378415 [Eh]
	 SCS Correlation Energy    =      -2.9064131712653909 [Eh]
	 SCS Total Energy          =    -610.7981794050257349 [Eh]
	-----------------------------------------------------------

*** Psi4 exiting successfully. Buy a developer a beer!
