                               Psi4 1.4a2.dev224

  ==> Input File <==

--------------------------------------------------------------------------
#Generated by lconvert.py for cbs job

memory 40 GB

molecule  {
0 1
  N        0.1957300    -0.8446890     0.8238460
  H        0.4503980    -1.7967530     1.0497680
  C       -1.1790490    -0.5736840     0.7594830
  O       -1.9936460    -1.4562650     0.9669010
  C       -1.4767150     0.8111560     0.4375600
  H       -2.5063560     1.1156510     0.3638950
  C       -0.4681130     1.6829620     0.2348910
  H       -0.6384350     2.7216430    -0.0061640
  N        0.8456290     1.3059910     0.3268310
  H        1.5896930     1.9688790     0.1859600
  C        1.2542610     0.0194620     0.6362440
  O        2.4223040    -0.3017160     0.7318790
--
0 1
  C        1.0480940    -0.8588090     4.1187490
  H        1.5019470    -0.9508650     3.1307660
  H        1.5925970    -1.5227890     4.7879460
  C        1.1024080     0.6071430     4.5516850
  H        2.0606980     1.0800420     4.3409600
  H        0.9142930     0.6887810     5.6249080
  C       -0.0649440     1.2199580     3.7809130
  H        0.2093610     1.3087390     2.7274420
  H       -0.3493580     2.2110990     4.1325470
  C       -1.1818880     0.1823860     3.9519420
  H       -1.9074280     0.2060000     3.1405700
  H       -1.7259740     0.3870830     4.8741900
  C       -0.4588520    -1.1841620     4.0555990
  H       -0.7015160    -1.8283180     3.2122390
  H       -0.7739580    -1.7115640     4.9546850
units angstrom
no_reorient
symmetry c1
}

set {
scf_type DF
mp2_type DF
e_convergence 7
reference rhf
}

energy('mp2/aug-cc-pv[tq]z', bsse_type='cp')
--------------------------------------------------------------------------

    Molecular point group: c1
  Charge       = 0
  Multiplicity = 1
  Basis Set: AUG-CC-PVTZ
    Blend: AUG-CC-PVTZ
  Basis Set: (AUG-CC-PVTZ AUX)
    Blend: AUG-CC-PVTZ-JKFIT
  @DF-RHF Final Energy:  -195.23011580256622
    Total Energy =                       -195.2301158025662176
  Basis Set: (AUG-CC-PVTZ AUX)
    Blend: AUG-CC-PVTZ-RI
	 Reference Energy          =    -195.2301158025662176 [Eh]
	 Singles Energy            =      -0.0000000000000000 [Eh]
	 Same-Spin Energy          =      -0.2104771109100032 [Eh]
	 Opposite-Spin Energy      =      -0.7664119033044169 [Eh]
	 Correlation Energy        =      -0.9768890142144200 [Eh]
	 Total Energy              =    -196.2070048167806249 [Eh]
	 SCS Total Energy          =    -196.2199691235015280 [Eh]
    Molecular point group: c1
  Basis Set: AUG-CC-PVQZ
    Blend: AUG-CC-PVQZ
  Basis Set: (AUG-CC-PVQZ AUX)
    Blend: AUG-CC-PVQZ-JKFIT
  @DF-RHF Final Energy:  -195.24160304287537
    Total Energy =                       -195.2416030428753686
  Basis Set: (AUG-CC-PVQZ AUX)
  @DF-RHF Final Energy:  -195.23019722617838
    Total Energy =                       -195.2301972261783760
  @DF-RHF Final Energy:  -195.24162616311628
    Total Energy =                       -195.2416261631162797
  @DF-RHF Final Energy:  -412.62506863215475
    Total Energy =                       -412.6250686321547505
  @DF-RHF Final Energy:  -412.65023245817923
    Total Energy =                       -412.6502324581792323
  @DF-RHF Final Energy:  -412.62457549535156
    Total Energy =                       -412.6245754953515643
  @DF-RHF Final Energy:  -412.65010962230679
    Total Energy =                       -412.6501096223067862
  Multiplicity = 1
  @DF-RHF Final Energy:  -607.84251712136665
    Total Energy =                       -607.8425171213666545
	 Singles Energy            =      -0.0000000000000000 [Eh]
	 Same-Spin Energy          =      -0.6345754207577312 [Eh]
	 Opposite-Spin Energy      =      -2.0096482387938295 [Eh]
	 Correlation Energy        =      -2.6442236595515607 [Eh]
	 Total Energy              =    -610.4867407809182396 [Eh]
	 SCS Total Energy          =    -610.4656201481718654 [Eh]
    Molecular point group: c1

    Geometry (in Angstrom), charge = 0, multiplicity = 1:

       Center              X                  Y                   Z               Mass
    ------------   -----------------  -----------------  -----------------  -----------------
         N            0.173464126482    -0.872836441077    -1.133601875768    14.003074004430
         H            0.428132126482    -1.824900441077    -0.907679875768     1.007825032230
         C           -1.201314873518    -0.601831441077    -1.197964875768    12.000000000000
         O           -2.015911873518    -1.484412441077    -0.990546875768    15.994914619570
         C           -1.498980873518     0.783008558923    -1.519887875768    12.000000000000
         H           -2.528621873518     1.087503558923    -1.593552875768     1.007825032230
         C           -0.490378873518     1.654814558923    -1.722556875768    12.000000000000
         H           -0.660700873518     2.693495558923    -1.963611875768     1.007825032230
         N            0.823363126482     1.277843558923    -1.630616875768    14.003074004430
         H            1.567427126482     1.940731558923    -1.771487875768     1.007825032230
         C            1.231995126482    -0.008685441077    -1.321203875768    12.000000000000
         O            2.400038126482    -0.329863441077    -1.225568875768    15.994914619570
         C            1.025828126482    -0.886956441077     2.161301124232    12.000000000000
         H            1.479681126482    -0.979012441077     1.173318124232     1.007825032230
         H            1.570331126482    -1.550936441077     2.830498124232     1.007825032230
         C            1.080142126482     0.578995558923     2.594237124232    12.000000000000
         H            2.038432126482     1.051894558923     2.383512124232     1.007825032230
         H            0.892027126482     0.660633558923     3.667460124232     1.007825032230
         C           -0.087209873518     1.191810558923     1.823465124232    12.000000000000
         H            0.187095126482     1.280591558923     0.769994124232     1.007825032230
         H           -0.371623873518     2.182951558923     2.175099124232     1.007825032230
         C           -1.204153873518     0.154238558923     1.994494124232    12.000000000000
         H           -1.929693873518     0.177852558923     1.183122124232     1.007825032230
         H           -1.748239873518     0.358935558923     2.916742124232     1.007825032230
         C           -0.481117873518    -1.212309441077     2.098151124232    12.000000000000
         H           -0.723781873518    -1.856465441077     1.254791124232     1.007825032230
         H           -0.796223873518    -1.739711441077     2.997237124232     1.007825032230

  Charge       = 0
  Multiplicity = 1
  Basis Set: AUG-CC-PVQZ
    Blend: AUG-CC-PVQZ
  Basis Set: (AUG-CC-PVQZ AUX)
    Blend: AUG-CC-PVQZ-JKFIT

    Orbital Energies [Eh]
    ---------------------

    Doubly Occupied:

       1A    -20.546484     2A    -20.540202     3A    -15.642979
       4A    -15.626277     5A    -11.419169     6A    -11.381073
       7A    -11.339627     8A    -11.254829     9A    -11.210897
      10A    -11.207913    11A    -11.206440    12A    -11.204301
      13A    -11.203392    14A     -1.437801    15A     -1.399740
      16A     -1.314550    17A     -1.247049    18A     -1.115115
      19A     -1.089239    20A     -0.956087    21A     -0.954343
      22A     -0.934367    23A     -0.902993    24A     -0.808432
      25A     -0.778585    26A     -0.769115    27A     -0.762549
      28A     -0.715644    29A     -0.682056    30A     -0.679316
      31A     -0.654751    32A     -0.644620    33A     -0.639025
      34A     -0.616568    35A     -0.603116    36A     -0.584884
      37A     -0.574571    38A     -0.555490    39A     -0.523017
      40A     -0.486658    41A     -0.474531    42A     -0.472379
      43A     -0.462310    44A     -0.460957    45A     -0.458982
      46A     -0.452413    47A     -0.444821    48A     -0.436380
      49A     -0.370007

  @DF-RHF Final Energy:  -607.87912770700541

   => Energetics <=

    Nuclear Repulsion Energy =            847.9797778335287148
    One-Electron Energy =               -2511.2256861739724627
    Two-Electron Energy =                1055.3667806334383386
    Total Energy =                       -607.8791277070054093

  Dipole Moment: [D]
     X:    -0.0215      Y:     4.6896      Z:    -1.1491     Total:     4.8284

  Basis Set: (AUG-CC-PVQZ AUX)
    Blend: AUG-CC-PVQZ-RI
	 Reference Energy          =    -607.8791277070054093 [Eh]
	 Singles Energy            =      -0.0000000000000000 [Eh]
	 Same-Spin Energy          =      -0.6709727599174067 [Eh]
	 Opposite-Spin Energy      =      -2.2501667298479706 [Eh]
	 Correlation Energy        =      -2.9211394897653773 [Eh]
	 Total Energy              =    -610.8002671967707329 [Eh]

	 ================> DF-SCS-MP2 Energies <==================
	-----------------------------------------------------------
	 SCS Same-Spin Scale       =       0.3333333333333333 [-]
	 SCS Opposite-Spin Scale   =       1.2000000000000000 [-]
	 SCS Same-Spin Energy      =      -0.2236575866391355 [Eh]
	 SCS Opposite-Spin Energy  =      -2.7002000758175648 [Eh]
	 SCS Correlation Energy    =      -2.9238576624567005 [Eh]
	 SCS Total Energy          =    -610.8029853694621352 [Eh]
	-----------------------------------------------------------

*** Psi4 exiting successfully. Buy a developer a beer!
