                               Psi4 1.4a2.dev224

  ==> Input File <==

--------------------------------------------------------------------------
#Generated by lconvert.py for cbs job

memory 40 GB

molecule  {
0 1
  N        0.1957300    -0.8446890     0.8238460
  H        0.4503980    -1.7967530     1.0497680
  C       -1.1790490    -0.5736840     0.7594830
  O       -1.9936460    -1.4562650     0.9669010
  C       -1.4767150     0.8111560     0.4375600
  H       -2.5063560     1.1156510     0.3638950
  C       -0.4681130     1.6829620     0.2348910
  H       -0.6384350     2.7216430    -0.0061640
  N        0.8456290     1.3059910     0.3268310
  H        1.5896930     1.9688790     0.1859600
  C        1.2542610     0.0194620     0.6362440
  O        2.4223040    -0.3017160     0.7318790
--
0 1
  C        1.0622650    -0.8665300     4.5785670
  H        1.5161170    -0.9585860     3.5905840
  H        1.6067670    -1.5305100     5.2477640
  C        1.1165780     0.5994220     5.0115030
  H        2.0748680     1.0723210     4.8007780
  H        0.9284630     0.6810600     6.0847260
  C       -0.0507730     1.2122370     4.2407320
  H        0.2235310     1.3010180     3.1872600
  H       -0.3351880     2.2033780     4.5923660
  C       -1.1677180     0.1746650     4.4117600
  H       -1.8932570     0.1982790     3.6003880
  H       -1.7118030     0.3793620     5.3340080
  C       -0.4446810    -1.1918830     4.5154170
  H       -0.6873460    -1.8360390     3.6720570
  H       -0.7597880    -1.7192860     5.4145030
units angstrom
no_reorient
symmetry c1
}

set {
scf_type DF
mp2_type DF
e_convergence 7
reference rhf
}

energy('mp2/aug-cc-pv[tq]z', bsse_type='cp')
--------------------------------------------------------------------------

    Molecular point group: c1
  Charge       = 0
  Multiplicity = 1
  Basis Set: AUG-CC-PVTZ
    Blend: AUG-CC-PVTZ
  Basis Set: (AUG-CC-PVTZ AUX)
    Blend: AUG-CC-PVTZ-JKFIT
  @DF-RHF Final Energy:  -195.23011580255363
    Total Energy =                       -195.2301158025536267
  Basis Set: (AUG-CC-PVTZ AUX)
    Blend: AUG-CC-PVTZ-RI
	 Reference Energy          =    -195.2301158025536267 [Eh]
	 Singles Energy            =      -0.0000000000000000 [Eh]
	 Same-Spin Energy          =      -0.2104771129090979 [Eh]
	 Opposite-Spin Energy      =      -0.7664119053377827 [Eh]
	 Correlation Energy        =      -0.9768890182468806 [Eh]
	 Total Energy              =    -196.2070048208005062 [Eh]
	 SCS Total Energy          =    -196.2199691265953447 [Eh]
    Molecular point group: c1
  Basis Set: AUG-CC-PVQZ
    Blend: AUG-CC-PVQZ
  Basis Set: (AUG-CC-PVQZ AUX)
    Blend: AUG-CC-PVQZ-JKFIT
  @DF-RHF Final Energy:  -195.24160304188354
    Total Energy =                       -195.2416030418835362
  Basis Set: (AUG-CC-PVQZ AUX)
  @DF-RHF Final Energy:  -195.23016784663940
    Total Energy =                       -195.2301678466394037
  @DF-RHF Final Energy:  -195.24161906900321
    Total Energy =                       -195.2416190690032067
  @DF-RHF Final Energy:  -412.62490583751736
    Total Energy =                       -412.6249058375173604
  @DF-RHF Final Energy:  -412.65019821738053
    Total Energy =                       -412.6501982173805345
  @DF-RHF Final Energy:  -412.62457549611054
    Total Energy =                       -412.6245754961105376
  @DF-RHF Final Energy:  -412.65010962533614
    Total Energy =                       -412.6501096253361425
  Multiplicity = 1
  @DF-RHF Final Energy:  -607.85234796212603
    Total Energy =                       -607.8523479621260321
	 Singles Energy            =      -0.0000000000000000 [Eh]
	 Same-Spin Energy          =      -0.6297899204368947 [Eh]
	 Opposite-Spin Energy      =      -2.0022029687473148 [Eh]
	 Correlation Energy        =      -2.6319928891842097 [Eh]
	 Total Energy              =    -610.4843408513102077 [Eh]
	 SCS Total Energy          =    -610.4649214981018304 [Eh]
    Molecular point group: c1

    Geometry (in Angstrom), charge = 0, multiplicity = 1:

       Center              X                  Y                   Z               Mass
    ------------   -----------------  -----------------  -----------------  -----------------
         N            0.168010987111    -0.869865223314    -1.310550122873    14.003074004430
         H            0.422678987111    -1.821929223314    -1.084628122873     1.007825032230
         C           -1.206768012889    -0.598860223314    -1.374913122873    12.000000000000
         O           -2.021365012889    -1.481441223314    -1.167495122873    15.994914619570
         C           -1.504434012889     0.785979776686    -1.696836122873    12.000000000000
         H           -2.534075012889     1.090474776686    -1.770501122873     1.007825032230
         C           -0.495832012889     1.657785776686    -1.899505122873    12.000000000000
         H           -0.666154012889     2.696466776686    -2.140560122873     1.007825032230
         N            0.817909987111     1.280814776686    -1.807565122873    14.003074004430
         H            1.561973987111     1.943702776686    -1.948436122873     1.007825032230
         C            1.226541987111    -0.005714223314    -1.498152122873    12.000000000000
         O            2.394584987111    -0.326892223314    -1.402517122873    15.994914619570
         C            1.034545987111    -0.891706223314     2.444170877127    12.000000000000
         H            1.488397987111    -0.983762223314     1.456187877127     1.007825032230
         H            1.579047987111    -1.555686223314     3.113367877127     1.007825032230
         C            1.088858987111     0.574245776686     2.877106877127    12.000000000000
         H            2.047148987111     1.047144776686     2.666381877127     1.007825032230
         H            0.900743987111     0.655883776686     3.950329877127     1.007825032230
         C           -0.078492012889     1.187060776686     2.106335877127    12.000000000000
         H            0.195811987111     1.275841776686     1.052863877127     1.007825032230
         H           -0.362907012889     2.178201776686     2.457969877127     1.007825032230
         C           -1.195437012889     0.149488776686     2.277363877127    12.000000000000
         H           -1.920976012889     0.173102776686     1.465991877127     1.007825032230
         H           -1.739522012889     0.354185776686     3.199611877127     1.007825032230
         C           -0.472400012889    -1.217059223314     2.381020877127    12.000000000000
         H           -0.715065012889    -1.861215223314     1.537660877127     1.007825032230
         H           -0.787507012889    -1.744462223314     3.280106877127     1.007825032230

  Charge       = 0
  Multiplicity = 1
  Basis Set: AUG-CC-PVQZ
    Blend: AUG-CC-PVQZ
  Basis Set: (AUG-CC-PVQZ AUX)
    Blend: AUG-CC-PVQZ-JKFIT

    Orbital Energies [Eh]
    ---------------------

    Doubly Occupied:

       1A    -20.546139     2A    -20.540495     3A    -15.643371
       4A    -15.626505     5A    -11.419087     6A    -11.381086
       7A    -11.340388     8A    -11.255045     9A    -11.211451
      10A    -11.208401    11A    -11.207179    12A    -11.205969
      13A    -11.204944    14A     -1.437186    15A     -1.399192
      16A     -1.314178    17A     -1.246597    18A     -1.115147
      19A     -1.089117    20A     -0.955768    21A     -0.954471
      22A     -0.934355    23A     -0.902700    24A     -0.808141
      25A     -0.777292    26A     -0.767054    27A     -0.764598
      28A     -0.715440    29A     -0.679028    30A     -0.673990
      31A     -0.654443    32A     -0.646833    33A     -0.643303
      34A     -0.616451    35A     -0.602912    36A     -0.577619
      37A     -0.569391    38A     -0.563113    39A     -0.526338
      40A     -0.485731    41A     -0.474756    42A     -0.473248
      43A     -0.461888    44A     -0.461210    45A     -0.458783
      46A     -0.451676    47A     -0.446246    48A     -0.438064
      49A     -0.370223

  @DF-RHF Final Energy:  -607.88909463113191

   => Energetics <=

    Nuclear Repulsion Energy =            820.2303320738474213
    One-Electron Energy =               -2455.7457471140996859
    Two-Electron Energy =                1027.6263204091203534
    Total Energy =                       -607.8890946311319112

  Dipole Moment: [D]
     X:     0.0047      Y:     4.7184      Z:    -1.1289     Total:     4.8516

  Basis Set: (AUG-CC-PVQZ AUX)
    Blend: AUG-CC-PVQZ-RI
	 Reference Energy          =    -607.8890946311319112 [Eh]
	 Singles Energy            =      -0.0000000000000000 [Eh]
	 Same-Spin Energy          =      -0.6663223823946578 [Eh]
	 Opposite-Spin Energy      =      -2.2442890352344578 [Eh]
	 Correlation Energy        =      -2.9106114176291156 [Eh]
	 Total Energy              =    -610.7997060487609815 [Eh]

	 ================> DF-SCS-MP2 Energies <==================
	-----------------------------------------------------------
	 SCS Same-Spin Scale       =       0.3333333333333333 [-]
	 SCS Opposite-Spin Scale   =       1.2000000000000000 [-]
	 SCS Same-Spin Energy      =      -0.2221074607982192 [Eh]
	 SCS Opposite-Spin Energy  =      -2.6931468422813492 [Eh]
	 SCS Correlation Energy    =      -2.9152543030795686 [Eh]
	 SCS Total Energy          =    -610.8043489342114754 [Eh]
	-----------------------------------------------------------

*** Psi4 exiting successfully. Buy a developer a beer!
