                               Psi4 1.4a2.dev224

  ==> Input File <==

--------------------------------------------------------------------------
#Generated by lconvert.py for cbs job

memory 20 GB

molecule  {
0 1
  N       0.626080   -0.850910    0.805920
  H       0.409190   -1.811500    1.034400
  C      -0.432460   -0.087340    0.294660
  O      -1.530770   -0.588400    0.123590
  C      -0.066880    1.291270    0.019640
  H      -0.809740    1.951810   -0.392840
  C       1.183540    1.717930    0.290530
  H       1.501850    2.733870    0.109830
  N       2.134130    0.886600    0.819080
  H       3.055340    1.223900    1.043430
  C       1.902780   -0.443180    1.128310
  O       2.743810   -1.163920    1.628590
--
0 1
  C      -1.514600   -0.082500    7.226700
  C      -2.831340    0.658790    7.441570
  H      -3.538410    0.040590    7.996430
  H      -2.671840    1.578980    8.005760
  H      -3.289050    0.920290    6.486420
  C      -0.899160   -0.435930    8.577970
  H       0.044000   -0.968310    8.447190
  H      -0.702140    0.463810    9.162780
  H      -1.570450   -1.073670    9.154710
  C      -0.549470    0.810980    6.450910
  H       0.399100    0.298390    6.280550
  H      -0.344180    1.729120    7.004330
  H      -0.971870    1.089470    5.483440
  C      -1.775910   -1.362530    6.436330
  H      -2.239650   -1.140700    5.473710
  H      -0.843340   -1.900930    6.256690
  H      -2.446420   -2.024340    6.986520
units angstrom
no_reorient
symmetry c1
}

set {
scf_type DF
mp2_type DF
e_convergence 7
reference rhf
}

energy('mp2/aug-cc-pv[tq]z', bsse_type='cp')
--------------------------------------------------------------------------

    Molecular point group: c1
  Charge       = 0
  Multiplicity = 1
  Basis Set: AUG-CC-PVTZ
    Blend: AUG-CC-PVTZ
  Basis Set: (AUG-CC-PVTZ AUX)
    Blend: AUG-CC-PVTZ-JKFIT
  @DF-RHF Final Energy:  -196.40446926228628
    Total Energy =                       -196.4044692622862840
  Basis Set: (AUG-CC-PVTZ AUX)
    Blend: AUG-CC-PVTZ-RI
	 Reference Energy          =    -196.4044692622862840 [Eh]
	 Singles Energy            =      -0.0000000000000000 [Eh]
	 Same-Spin Energy          =      -0.2117549141691356 [Eh]
	 Opposite-Spin Energy      =      -0.7978786828693983 [Eh]
	 Correlation Energy        =      -1.0096335970385339 [Eh]
	 Total Energy              =    -197.4141028593248279 [Eh]
	 SCS Total Energy          =    -197.4325086531192710 [Eh]
    Molecular point group: c1
  Basis Set: AUG-CC-PVQZ
    Blend: AUG-CC-PVQZ
  Basis Set: (AUG-CC-PVQZ AUX)
    Blend: AUG-CC-PVQZ-JKFIT
  @DF-RHF Final Energy:  -196.41631314964798
    Total Energy =                       -196.4163131496479764
  Basis Set: (AUG-CC-PVQZ AUX)
  @DF-RHF Final Energy:  -196.40447276563324
    Total Energy =                       -196.4044727656332725
  @DF-RHF Final Energy:  -196.41631515076409
    Total Energy =                       -196.4163151507640919
  @DF-RHF Final Energy:  -412.62456638202633
    Total Energy =                       -412.6245663820263303
  @DF-RHF Final Energy:  -412.65008400326946
    Total Energy =                       -412.6500840032694555
  @DF-RHF Final Energy:  -412.62453757063861
    Total Energy =                       -412.6245375706386085
  @DF-RHF Final Energy:  -412.65007199140052
    Total Energy =                       -412.6500719914005231
  Multiplicity = 1
  @DF-RHF Final Energy:  -609.02914934299451
    Total Energy =                       -609.0291493429945149
	 Singles Energy            =      -0.0000000000000000 [Eh]
	 Same-Spin Energy          =      -0.6261273934931646 [Eh]
	 Opposite-Spin Energy      =      -2.0248475940225958 [Eh]
	 Correlation Energy        =      -2.6509749875157604 [Eh]
	 Total Energy              =    -611.6801243305102389 [Eh]
	 SCS Total Energy          =    -611.6676755869859790 [Eh]
    Molecular point group: c1

    Geometry (in Angstrom), charge = 0, multiplicity = 1:

       Center              X                  Y                   Z               Mass
    ------------   -----------------  -----------------  -----------------  -----------------
         N            0.712302575344    -0.853172438704    -2.422424171442    14.003074004430
         H            0.495412575344    -1.813762438704    -2.193944171442     1.007825032230
         C           -0.346237424656    -0.089602438704    -2.933684171442    12.000000000000
         O           -1.444547424656    -0.590662438704    -3.104754171442    15.994914619570
         C            0.019342575344     1.289007561296    -3.208704171442    12.000000000000
         H           -0.723517424656     1.949547561296    -3.621184171442     1.007825032230
         C            1.269762575344     1.715667561296    -2.937814171442    12.000000000000
         H            1.588072575344     2.731607561296    -3.118514171442     1.007825032230
         N            2.220352575344     0.884337561296    -2.409264171442    14.003074004430
         H            3.141562575344     1.221637561296    -2.184914171442     1.007825032230
         C            1.989002575344    -0.445442438704    -2.100034171442    12.000000000000
         O            2.830032575344    -1.166182438704    -1.599754171442    15.994914619570
         C           -1.428377424656    -0.084762438704     3.998355828558    12.000000000000
         C           -2.745117424656     0.656527561296     4.213225828558    12.000000000000
         H           -3.452187424656     0.038327561296     4.768085828558     1.007825032230
         H           -2.585617424656     1.576717561296     4.777415828558     1.007825032230
         H           -3.202827424656     0.918027561296     3.258075828558     1.007825032230
         C           -0.812937424656    -0.438192438704     5.349625828558    12.000000000000
         H            0.130222575344    -0.970572438704     5.218845828558     1.007825032230
         H           -0.615917424656     0.461547561296     5.934435828558     1.007825032230
         H           -1.484227424656    -1.075932438704     5.926365828558     1.007825032230
         C           -0.463247424656     0.808717561296     3.222565828558    12.000000000000
         H            0.485322575344     0.296127561296     3.052205828558     1.007825032230
         H           -0.257957424656     1.726857561296     3.775985828558     1.007825032230
         H           -0.885647424656     1.087207561296     2.255095828558     1.007825032230
         C           -1.689687424656    -1.364792438704     3.207985828558    12.000000000000
         H           -2.153427424656    -1.142962438704     2.245365828558     1.007825032230
         H           -0.757117424656    -1.903192438704     3.028345828558     1.007825032230
         H           -2.360197424656    -2.026602438704     3.758175828558     1.007825032230

  Charge       = 0
  Multiplicity = 1
  Basis Set: AUG-CC-PVQZ
    Blend: AUG-CC-PVQZ
  Basis Set: (AUG-CC-PVQZ AUX)
    Blend: AUG-CC-PVQZ-JKFIT

    Orbital Energies [Eh]
    ---------------------

    Doubly Occupied:

       1A    -20.545324     2A    -20.539746     3A    -15.643036
       4A    -15.626062     5A    -11.418446     6A    -11.380425
       7A    -11.340388     8A    -11.254967     9A    -11.224390
      10A    -11.204630    11A    -11.203390    12A    -11.203312
      13A    -11.202459    14A     -1.436486    15A     -1.398035
      16A     -1.313839    17A     -1.246396    18A     -1.105044
      19A     -1.088763    20A     -0.934133    21A     -0.927850
      22A     -0.927578    23A     -0.926501    24A     -0.902357
      25A     -0.807871    26A     -0.765943    27A     -0.728342
      28A     -0.715208    29A     -0.678344    30A     -0.669985
      31A     -0.653688    32A     -0.615773    33A     -0.611162
      34A     -0.610690    35A     -0.610317    36A     -0.602517
      37A     -0.571583    38A     -0.552476    39A     -0.551332
      40A     -0.526976    41A     -0.508825    42A     -0.508237
      43A     -0.507757    44A     -0.484736    45A     -0.451705
      46A     -0.451128    47A     -0.450772    48A     -0.450352
      49A     -0.437993    50A     -0.369824

  @DF-RHF Final Energy:  -609.06650926486009

   => Energetics <=

    Nuclear Repulsion Energy =            735.0292190722190071
    One-Electron Energy =               -2286.4172529745269458
    Two-Electron Energy =                 942.3215246374479648
    Total Energy =                       -609.0665092648600876

  Dipole Moment: [D]
     X:     2.2249      Y:     4.3821      Z:    -0.5976     Total:     4.9508

  Basis Set: (AUG-CC-PVQZ AUX)
    Blend: AUG-CC-PVQZ-RI
	 Reference Energy          =    -609.0665092648600876 [Eh]
	 Singles Energy            =      -0.0000000000000000 [Eh]
	 Same-Spin Energy          =      -0.6629524385236880 [Eh]
	 Opposite-Spin Energy      =      -2.2714667539153579 [Eh]
	 Correlation Energy        =      -2.9344191924390461 [Eh]
	 Total Energy              =    -612.0009284572990964 [Eh]

	 ================> DF-SCS-MP2 Energies <==================
	-----------------------------------------------------------
	 SCS Same-Spin Scale       =       0.3333333333333333 [-]
	 SCS Opposite-Spin Scale   =       1.2000000000000000 [-]
	 SCS Same-Spin Energy      =      -0.2209841461745627 [Eh]
	 SCS Opposite-Spin Energy  =      -2.7257601046984292 [Eh]
	 SCS Correlation Energy    =      -2.9467442508729920 [Eh]
	 SCS Total Energy          =    -612.0132535157330267 [Eh]
	-----------------------------------------------------------

*** Psi4 exiting successfully. Buy a developer a beer!
