                               Psi4 1.4a2.dev224

  ==> Input File <==

--------------------------------------------------------------------------
#Generated by lconvert.py for cbs job

memory 20 GB

molecule  {
0 1
  N       0.626080   -0.850910    0.805920
  H       0.409190   -1.811500    1.034400
  C      -0.432460   -0.087340    0.294660
  O      -1.530770   -0.588400    0.123590
  C      -0.066880    1.291270    0.019640
  H      -0.809740    1.951810   -0.392840
  C       1.183540    1.717930    0.290530
  H       1.501850    2.733870    0.109830
  N       2.134130    0.886600    0.819080
  H       3.055340    1.223900    1.043430
  C       1.902780   -0.443180    1.128310
  O       2.743810   -1.163920    1.628590
--
0 1
  C      -0.934970   -0.048160    5.603530
  C      -2.251710    0.693130    5.818410
  H      -2.958780    0.074930    6.373270
  H      -2.092210    1.613320    6.382590
  H      -2.709420    0.954630    4.863250
  C      -0.319530   -0.401600    6.954810
  H       0.623630   -0.933970    6.824030
  H      -0.122510    0.498150    7.539610
  H      -0.990820   -1.039330    7.531550
  C       0.030160    0.845320    4.827750
  H       0.978730    0.332720    4.657390
  H       0.235450    1.763460    5.381170
  H      -0.392240    1.123810    3.860280
  C      -1.196280   -1.328190    4.813170
  H      -1.660020   -1.106360    3.850540
  H      -0.263710   -1.866590    4.633530
  H      -1.866790   -1.990010    5.363360
units angstrom
no_reorient
symmetry c1
}

set {
scf_type DF
mp2_type DF
e_convergence 7
reference rhf
}

energy('mp2/aug-cc-pv[tq]z', bsse_type='cp')
--------------------------------------------------------------------------

    Molecular point group: c1
  Charge       = 0
  Multiplicity = 1
  Basis Set: AUG-CC-PVTZ
    Blend: AUG-CC-PVTZ
  Basis Set: (AUG-CC-PVTZ AUX)
    Blend: AUG-CC-PVTZ-JKFIT
  @DF-RHF Final Energy:  -196.40446912943210
    Total Energy =                       -196.4044691294320728
  Basis Set: (AUG-CC-PVTZ AUX)
    Blend: AUG-CC-PVTZ-RI
	 Reference Energy          =    -196.4044691294321012 [Eh]
	 Singles Energy            =      -0.0000000000000000 [Eh]
	 Same-Spin Energy          =      -0.2117549071725165 [Eh]
	 Opposite-Spin Energy      =      -0.7978787971024878 [Eh]
	 Correlation Energy        =      -1.0096337042750043 [Eh]
	 Total Energy              =    -197.4141028337071191 [Eh]
	 SCS Total Energy          =    -197.4325086550125832 [Eh]
    Molecular point group: c1
  Basis Set: AUG-CC-PVQZ
    Blend: AUG-CC-PVQZ
  Basis Set: (AUG-CC-PVQZ AUX)
    Blend: AUG-CC-PVQZ-JKFIT
  @DF-RHF Final Energy:  -196.41631300558109
    Total Energy =                       -196.4163130055810598
  Basis Set: (AUG-CC-PVQZ AUX)
  @DF-RHF Final Energy:  -196.40448646173243
    Total Energy =                       -196.4044864617324606
  @DF-RHF Final Energy:  -196.41631967553644
    Total Energy =                       -196.4163196755364424
  @DF-RHF Final Energy:  -412.62469438652585
    Total Energy =                       -412.6246943865258459
  @DF-RHF Final Energy:  -412.65011740649823
    Total Energy =                       -412.6501174064982251
  @DF-RHF Final Energy:  -412.62453757032625
    Total Energy =                       -412.6245375703262539
  @DF-RHF Final Energy:  -412.65007199435559
    Total Energy =                       -412.6500719943555850
  Multiplicity = 1
  @DF-RHF Final Energy:  -609.02946966449065
    Total Energy =                       -609.0294696644906480
	 Singles Energy            =      -0.0000000000000000 [Eh]
	 Same-Spin Energy          =      -0.6274652680641998 [Eh]
	 Opposite-Spin Energy      =      -2.0274698558623889 [Eh]
	 Correlation Energy        =      -2.6549351239265886 [Eh]
	 Total Energy              =    -611.6844047884172824 [Eh]
	 SCS Total Energy          =    -611.6715885808802113 [Eh]
    Molecular point group: c1

    Geometry (in Angstrom), charge = 0, multiplicity = 1:

       Center              X                  Y                   Z               Mass
    ------------   -----------------  -----------------  -----------------  -----------------
         N            0.485344503553    -0.866617738223    -1.786863954600    14.003074004430
         H            0.268454503553    -1.827207738223    -1.558383954600     1.007825032230
         C           -0.573195496447    -0.103047738223    -2.298123954600    12.000000000000
         O           -1.671505496447    -0.604107738223    -2.469193954600    15.994914619570
         C           -0.207615496447     1.275562261777    -2.573143954600    12.000000000000
         H           -0.950475496447     1.936102261777    -2.985623954600     1.007825032230
         C            1.042804503553     1.702222261777    -2.302253954600    12.000000000000
         H            1.361114503553     2.718162261777    -2.482953954600     1.007825032230
         N            1.993394503553     0.870892261777    -1.773703954600    14.003074004430
         H            2.914604503553     1.208192261777    -1.549353954600     1.007825032230
         C            1.762044503553    -0.458887738223    -1.464473954600    12.000000000000
         O            2.603074503553    -1.179627738223    -0.964193954600    15.994914619570
         C           -1.075705496447    -0.063867738223     3.010746045400    12.000000000000
         C           -2.392445496447     0.677422261777     3.225626045400    12.000000000000
         H           -3.099515496447     0.059222261777     3.780486045400     1.007825032230
         H           -2.232945496447     1.597612261777     3.789806045400     1.007825032230
         H           -2.850155496447     0.938922261777     2.270466045400     1.007825032230
         C           -0.460265496447    -0.417307738223     4.362026045400    12.000000000000
         H            0.482894503553    -0.949677738223     4.231246045400     1.007825032230
         H           -0.263245496447     0.482442261777     4.946826045400     1.007825032230
         H           -1.131555496447    -1.055037738223     4.938766045400     1.007825032230
         C           -0.110575496447     0.829612261777     2.234966045400    12.000000000000
         H            0.837994503553     0.317012261777     2.064606045400     1.007825032230
         H            0.094714503553     1.747752261777     2.788386045400     1.007825032230
         H           -0.532975496447     1.108102261777     1.267496045400     1.007825032230
         C           -1.337015496447    -1.343897738223     2.220386045400    12.000000000000
         H           -1.800755496447    -1.122067738223     1.257756045400     1.007825032230
         H           -0.404445496447    -1.882297738223     2.040746045400     1.007825032230
         H           -2.007525496447    -2.005717738223     2.770576045400     1.007825032230

  Charge       = 0
  Multiplicity = 1
  Basis Set: AUG-CC-PVQZ
    Blend: AUG-CC-PVQZ
  Basis Set: (AUG-CC-PVQZ AUX)
    Blend: AUG-CC-PVQZ-JKFIT

    Orbital Energies [Eh]
    ---------------------

    Doubly Occupied:

       1A    -20.545127     2A    -20.539701     3A    -15.642723
       4A    -15.625697     5A    -11.418202     6A    -11.380317
       7A    -11.340208     8A    -11.254691     9A    -11.224872
      10A    -11.206460    11A    -11.203403    12A    -11.203251
      13A    -11.202054    14A     -1.436261    15A     -1.398005
      16A     -1.313561    17A     -1.246088    18A     -1.105463
      19A     -1.088537    20A     -0.933871    21A     -0.929286
      22A     -0.927598    23A     -0.926434    24A     -0.902093
      25A     -0.807584    26A     -0.765718    27A     -0.728882
      28A     -0.714920    29A     -0.678222    30A     -0.669727
      31A     -0.653536    32A     -0.615659    33A     -0.611611
      34A     -0.611251    35A     -0.610648    36A     -0.602333
      37A     -0.571531    38A     -0.552904    39A     -0.551800
      40A     -0.526727    41A     -0.509497    42A     -0.508489
      43A     -0.508012    44A     -0.484584    45A     -0.451996
      46A     -0.451831    47A     -0.451211    48A     -0.450129
      49A     -0.437822    50A     -0.369634

  @DF-RHF Final Energy:  -609.06672550892029

   => Energetics <=

    Nuclear Repulsion Energy =            787.9016009920053421
    One-Electron Energy =               -2392.1563009372507622
    Two-Electron Energy =                 995.1879744363251348
    Total Energy =                       -609.0667255089202854

  Dipole Moment: [D]
     X:     2.1940      Y:     4.3401      Z:    -0.5598     Total:     4.8952

  Basis Set: (AUG-CC-PVQZ AUX)
    Blend: AUG-CC-PVQZ-RI
	 Reference Energy          =    -609.0667255089202854 [Eh]
	 Singles Energy            =      -0.0000000000000000 [Eh]
	 Same-Spin Energy          =      -0.6641830625023115 [Eh]
	 Opposite-Spin Energy      =      -2.2730869103773985 [Eh]
	 Correlation Energy        =      -2.9372699728797098 [Eh]
	 Total Energy              =    -612.0039954817999615 [Eh]

	 ================> DF-SCS-MP2 Energies <==================
	-----------------------------------------------------------
	 SCS Same-Spin Scale       =       0.3333333333333333 [-]
	 SCS Opposite-Spin Scale   =       1.2000000000000000 [-]
	 SCS Same-Spin Energy      =      -0.2213943541674372 [Eh]
	 SCS Opposite-Spin Energy  =      -2.7277042924528780 [Eh]
	 SCS Correlation Energy    =      -2.9490986466203153 [Eh]
	 SCS Total Energy          =    -612.0158241555405993 [Eh]
	-----------------------------------------------------------

*** Psi4 exiting successfully. Buy a developer a beer!
