                               Psi4 1.4a2.dev224

  ==> Input File <==

--------------------------------------------------------------------------
#Generated by lconvert.py for cbs job

memory 40 GB

molecule  {
0 1
  N        0.6260810    -0.8509130     0.8059160
  H        0.4091900    -1.8115010     1.0344010
  C       -0.4324560    -0.0873360     0.2946640
  O       -1.5307720    -0.5884030     0.1235930
  C       -0.0668750     1.2912750     0.0196370
  H       -0.8097440     1.9518100    -0.3928400
  C        1.1835420     1.7179350     0.2905330
  H        1.5018500     2.7338710     0.1098330
  N        2.1341300     0.8866020     0.8190820
  H        3.0553360     1.2239010     1.0434280
  C        1.9027830    -0.4431780     1.1283120
  O        2.7438060    -1.1639240     1.6285870
--
0 1
  C       -0.7417570    -0.0367120     5.0624810
  C       -2.0585030     0.7045770     5.2773540
  H       -2.7655740     0.0863710     5.8322160
  H       -1.8990030     1.6247620     5.8415390
  H       -2.5162120     0.9660740     4.3222000
  C       -0.1263200    -0.3901500     6.4137580
  H        0.8168420    -0.9225230     6.2829760
  H        0.0707010     0.5095920     6.9985600
  H       -0.7976140    -1.0278870     6.9904950
  C        0.2233680     0.8567660     4.2866920
  H        1.1719380     0.3441710     4.1163380
  H        0.4286580     1.7749020     4.8401180
  H       -0.1990280     1.1352530     3.3192270
  C       -1.0030740    -1.3167460     4.2721160
  H       -1.4668120    -1.0949130     3.3094910
  H       -0.0704970    -1.8551450     4.0924790
  H       -1.6735820    -1.9785600     4.8223010
units angstrom
no_reorient
symmetry c1
}

set {
scf_type DF
mp2_type DF
e_convergence 7
reference rhf
}

energy('mp2/aug-cc-pv[tq]z', bsse_type='cp')
--------------------------------------------------------------------------

    Molecular point group: c1
  Charge       = 0
  Multiplicity = 1
  Basis Set: AUG-CC-PVTZ
    Blend: AUG-CC-PVTZ
  Basis Set: (AUG-CC-PVTZ AUX)
    Blend: AUG-CC-PVTZ-JKFIT
  @DF-RHF Final Energy:  -196.40446928537494
    Total Energy =                       -196.4044692853749439
  Basis Set: (AUG-CC-PVTZ AUX)
    Blend: AUG-CC-PVTZ-RI
	 Reference Energy          =    -196.4044692853749439 [Eh]
	 Singles Energy            =      -0.0000000000000000 [Eh]
	 Same-Spin Energy          =      -0.2117548532167218 [Eh]
	 Opposite-Spin Energy      =      -0.7978786792710804 [Eh]
	 Correlation Energy        =      -1.0096335324878023 [Eh]
	 Total Energy              =    -197.4141028178627550 [Eh]
	 SCS Total Energy          =    -197.4325086515724763 [Eh]
    Molecular point group: c1
  Basis Set: AUG-CC-PVQZ
    Blend: AUG-CC-PVQZ
  Basis Set: (AUG-CC-PVQZ AUX)
    Blend: AUG-CC-PVQZ-JKFIT
  @DF-RHF Final Energy:  -196.41631316874032
    Total Energy =                       -196.4163131687403165
  Basis Set: (AUG-CC-PVQZ AUX)
  @DF-RHF Final Energy:  -196.40449888649007
    Total Energy =                       -196.4044988864900461
  @DF-RHF Final Energy:  -196.41632337821324
    Total Energy =                       -196.4163233782132352
  @DF-RHF Final Energy:  -412.62479132336495
    Total Energy =                       -412.6247913233649456
  @DF-RHF Final Energy:  -412.65014160429155
    Total Energy =                       -412.6501416042915480
  @DF-RHF Final Energy:  -412.62453730028312
    Total Energy =                       -412.6245373002831229
  @DF-RHF Final Energy:  -412.65007170096908
    Total Energy =                       -412.6500717009690788
  Multiplicity = 1
  @DF-RHF Final Energy:  -609.02872160043523
    Total Energy =                       -609.0287216004352331
	 Singles Energy            =      -0.0000000000000000 [Eh]
	 Same-Spin Energy          =      -0.6291544407877683 [Eh]
	 Opposite-Spin Energy      =      -2.0304228640084849 [Eh]
	 Correlation Energy        =      -2.6595773047962532 [Eh]
	 Total Energy              =    -611.6882989052314770 [Eh]
	 SCS Total Energy          =    -611.6749471841746981 [Eh]
    Molecular point group: c1

    Geometry (in Angstrom), charge = 0, multiplicity = 1:

       Center              X                  Y                   Z               Mass
    ------------   -----------------  -----------------  -----------------  -----------------
         N            0.409692851684    -0.871103105308    -1.575014991767    14.003074004430
         H            0.192801851684    -1.831691105308    -1.346529991767     1.007825032230
         C           -0.648844148316    -0.107526105308    -2.086266991767    12.000000000000
         O           -1.747160148316    -0.608593105308    -2.257337991767    15.994914619570
         C           -0.283263148316     1.271084894692    -2.361293991767    12.000000000000
         H           -1.026132148316     1.931619894692    -2.773770991767     1.007825032230
         C            0.967153851684     1.697744894692    -2.090397991767    12.000000000000
         H            1.285461851684     2.713680894692    -2.271097991767     1.007825032230
         N            1.917741851684     0.866411894692    -1.561848991767    14.003074004430
         H            2.838947851684     1.203710894692    -1.337502991767     1.007825032230
         C            1.686394851684    -0.463368105308    -1.252618991767    12.000000000000
         O            2.527417851684    -1.184114105308    -0.752343991767    15.994914619570
         C           -0.958145148316    -0.056902105308     2.681550008233    12.000000000000
         C           -2.274891148316     0.684386894692     2.896423008233    12.000000000000
         H           -2.981962148316     0.066180894692     3.451285008233     1.007825032230
         H           -2.115391148316     1.604571894692     3.460608008233     1.007825032230
         H           -2.732600148316     0.945883894692     1.941269008233     1.007825032230
         C           -0.342708148316    -0.410340105308     4.032827008233    12.000000000000
         H            0.600453851684    -0.942713105308     3.902045008233     1.007825032230
         H           -0.145687148316     0.489401894692     4.617629008233     1.007825032230
         H           -1.014002148316    -1.048077105308     4.609564008233     1.007825032230
         C            0.006979851684     0.836575894692     1.905761008233    12.000000000000
         H            0.955549851684     0.323980894692     1.735407008233     1.007825032230
         H            0.212269851684     1.754711894692     2.459187008233     1.007825032230
         H           -0.415416148316     1.115062894692     0.938296008233     1.007825032230
         C           -1.219462148316    -1.336936105308     1.891185008233    12.000000000000
         H           -1.683200148316    -1.115103105308     0.928560008233     1.007825032230
         H           -0.286885148316    -1.875335105308     1.711548008233     1.007825032230
         H           -1.889970148316    -1.998750105308     2.441370008233     1.007825032230

  Charge       = 0
  Multiplicity = 1
  Basis Set: AUG-CC-PVQZ
    Blend: AUG-CC-PVQZ
  Basis Set: (AUG-CC-PVQZ AUX)
    Blend: AUG-CC-PVQZ-JKFIT

    Orbital Energies [Eh]
    ---------------------

    Doubly Occupied:

       1A    -20.545010     2A    -20.539718     3A    -15.642442
       4A    -15.625162     5A    -11.417958     6A    -11.380185
       7A    -11.340018     8A    -11.254411     9A    -11.225244
      10A    -11.207513    11A    -11.203403    12A    -11.203269
      13A    -11.201902    14A     -1.436121    15A     -1.398057
      16A     -1.313341    17A     -1.245783    18A     -1.105843
      19A     -1.088365    20A     -0.933754    21A     -0.930383
      22A     -0.927643    23A     -0.926617    24A     -0.901838
      25A     -0.807330    26A     -0.765529    27A     -0.729632
      28A     -0.714645    29A     -0.678158    30A     -0.669738
      31A     -0.653448    32A     -0.615623    33A     -0.612298
      34A     -0.611642    35A     -0.611130    36A     -0.602186
      37A     -0.571546    38A     -0.553457    39A     -0.552099
      40A     -0.526793    41A     -0.509827    42A     -0.509064
      43A     -0.507973    44A     -0.484505    45A     -0.452494
      46A     -0.452370    47A     -0.451580    48A     -0.449694
      49A     -0.437588    50A     -0.369484

  @DF-RHF Final Energy:  -609.06589690825933

   => Energetics <=

    Nuclear Repulsion Energy =            812.6762126221000244
    One-Electron Energy =               -2441.6965728652921825
    Two-Electron Energy =                1019.9544633349327114
    Total Energy =                       -609.0658969082593330

  Dipole Moment: [D]
     X:     2.1748      Y:     4.3274      Z:    -0.5384     Total:     4.8730

  Basis Set: (AUG-CC-PVQZ AUX)
    Blend: AUG-CC-PVQZ-RI
	 Reference Energy          =    -609.0658969082593330 [Eh]
	 Singles Energy            =      -0.0000000000000000 [Eh]
	 Same-Spin Energy          =      -0.6658021923524629 [Eh]
	 Opposite-Spin Energy      =      -2.2751631246539668 [Eh]
	 Correlation Energy        =      -2.9409653170064294 [Eh]
	 Total Energy              =    -612.0068622252657633 [Eh]

	 ================> DF-SCS-MP2 Energies <==================
	-----------------------------------------------------------
	 SCS Same-Spin Scale       =       0.3333333333333333 [-]
	 SCS Opposite-Spin Scale   =       1.2000000000000000 [-]
	 SCS Same-Spin Energy      =      -0.2219340641174876 [Eh]
	 SCS Opposite-Spin Energy  =      -2.7301957495847602 [Eh]
	 SCS Correlation Energy    =      -2.9521298137022480 [Eh]
	 SCS Total Energy          =    -612.0180267219616326 [Eh]
	-----------------------------------------------------------

*** Psi4 exiting successfully. Buy a developer a beer!
