                               Psi4 1.4a2.dev224

  ==> Input File <==

--------------------------------------------------------------------------
#Generated by lconvert.py for cbs job

memory 20 GB

molecule  {
0 1
  N       0.626080   -0.850910    0.805920
  H       0.409190   -1.811500    1.034400
  C      -0.432460   -0.087340    0.294660
  O      -1.530770   -0.588400    0.123590
  C      -0.066880    1.291270    0.019640
  H      -0.809740    1.951810   -0.392840
  C       1.183540    1.717930    0.290530
  H       1.501850    2.733870    0.109830
  N       2.134130    0.886600    0.819080
  H       3.055340    1.223900    1.043430
  C       1.902780   -0.443180    1.128310
  O       2.743810   -1.163920    1.628590
--
0 1
  C      -1.224780   -0.065330    6.415120
  C      -2.541530    0.675960    6.629990
  H      -3.248600    0.057760    7.184850
  H      -2.382030    1.596150    7.194170
  H      -2.999240    0.937460    5.674830
  C      -0.609350   -0.418760    7.766390
  H       0.333820   -0.951140    7.635610
  H      -0.412320    0.480980    8.351200
  H      -1.280640   -1.056500    8.343130
  C      -0.259660    0.828150    5.639330
  H       0.688910    0.315560    5.468970
  H      -0.054370    1.746290    6.192750
  H      -0.682050    1.106640    4.671860
  C      -1.486100   -1.345360    5.624750
  H      -1.949840   -1.123530    4.662130
  H      -0.553520   -1.883760    5.445110
  H      -2.156610   -2.007180    6.174940
units angstrom
no_reorient
symmetry c1
}

set {
scf_type DF
mp2_type DF
e_convergence 7
reference rhf
}

energy('mp2/aug-cc-pv[tq]z', bsse_type='cp')
--------------------------------------------------------------------------

    Molecular point group: c1
  Charge       = 0
  Multiplicity = 1
  Basis Set: AUG-CC-PVTZ
    Blend: AUG-CC-PVTZ
  Basis Set: (AUG-CC-PVTZ AUX)
    Blend: AUG-CC-PVTZ-JKFIT
  @DF-RHF Final Energy:  -196.40446908989523
    Total Energy =                       -196.4044690898952013
  Basis Set: (AUG-CC-PVTZ AUX)
    Blend: AUG-CC-PVTZ-RI
	 Reference Energy          =    -196.4044690898952297 [Eh]
	 Singles Energy            =      -0.0000000000000000 [Eh]
	 Same-Spin Energy          =      -0.2117549058011056 [Eh]
	 Opposite-Spin Energy      =      -0.7978788229372686 [Eh]
	 Correlation Energy        =      -1.0096337287383741 [Eh]
	 Total Energy              =    -197.4141028186336086 [Eh]
	 SCS Total Energy          =    -197.4325086460203238 [Eh]
    Molecular point group: c1
  Basis Set: AUG-CC-PVQZ
    Blend: AUG-CC-PVQZ
  Basis Set: (AUG-CC-PVQZ AUX)
    Blend: AUG-CC-PVQZ-JKFIT
  @DF-RHF Final Energy:  -196.41631296115929
    Total Energy =                       -196.4163129611592922
  Basis Set: (AUG-CC-PVQZ AUX)
  @DF-RHF Final Energy:  -196.40447704190893
    Total Energy =                       -196.4044770419089332
  @DF-RHF Final Energy:  -196.41631666761785
    Total Energy =                       -196.4163166676178207
  @DF-RHF Final Energy:  -412.62461087501100
    Total Energy =                       -412.6246108750110011
  @DF-RHF Final Energy:  -412.65009590004320
    Total Energy =                       -412.6500959000431976
  @DF-RHF Final Energy:  -412.62453757004482
    Total Energy =                       -412.6245375700448221
  @DF-RHF Final Energy:  -412.65007199462161
    Total Energy =                       -412.6500719946216122
  Multiplicity = 1
  @DF-RHF Final Energy:  -609.02930266116903
    Total Energy =                       -609.0293026611690266
	 Singles Energy            =      -0.0000000000000000 [Eh]
	 Same-Spin Energy          =      -0.6264742831626259 [Eh]
	 Opposite-Spin Energy      =      -2.0255727553791560 [Eh]
	 Correlation Energy        =      -2.6520470385417818 [Eh]
	 Total Energy              =    -611.6813496997108359 [Eh]
	 SCS Total Energy          =    -611.6688147286781714 [Eh]
    Molecular point group: c1

    Geometry (in Angstrom), charge = 0, multiplicity = 1:

       Center              X                  Y                   Z               Mass
    ------------   -----------------  -----------------  -----------------  -----------------
         N            0.598824626539    -0.859895414336    -2.104644388894    14.003074004430
         H            0.381934626539    -1.820485414336    -1.876164388894     1.007825032230
         C           -0.459715373461    -0.096325414336    -2.615904388894    12.000000000000
         O           -1.558025373461    -0.597385414336    -2.786974388894    15.994914619570
         C           -0.094135373461     1.282284585664    -2.890924388894    12.000000000000
         H           -0.836995373461     1.942824585664    -3.303404388894     1.007825032230
         C            1.156284626539     1.708944585664    -2.620034388894    12.000000000000
         H            1.474594626539     2.724884585664    -2.800734388894     1.007825032230
         N            2.106874626539     0.877614585664    -2.091484388894    14.003074004430
         H            3.028084626539     1.214914585664    -1.867134388894     1.007825032230
         C            1.875524626539    -0.452165414336    -1.782254388894    12.000000000000
         O            2.716554626539    -1.172905414336    -1.281974388894    15.994914619570
         C           -1.252035373461    -0.074315414336     3.504555611106    12.000000000000
         C           -2.568785373461     0.666974585664     3.719425611106    12.000000000000
         H           -3.275855373461     0.048774585664     4.274285611106     1.007825032230
         H           -2.409285373461     1.587164585664     4.283605611106     1.007825032230
         H           -3.026495373461     0.928474585664     2.764265611106     1.007825032230
         C           -0.636605373461    -0.427745414336     4.855825611106    12.000000000000
         H            0.306564626539    -0.960125414336     4.725045611106     1.007825032230
         H           -0.439575373461     0.471994585664     5.440635611106     1.007825032230
         H           -1.307895373461    -1.065485414336     5.432565611106     1.007825032230
         C           -0.286915373461     0.819164585664     2.728765611106    12.000000000000
         H            0.661654626539     0.306574585664     2.558405611106     1.007825032230
         H           -0.081625373461     1.737304585664     3.282185611106     1.007825032230
         H           -0.709305373461     1.097654585664     1.761295611106     1.007825032230
         C           -1.513355373461    -1.354345414336     2.714185611106    12.000000000000
         H           -1.977095373461    -1.132515414336     1.751565611106     1.007825032230
         H           -0.580775373461    -1.892745414336     2.534545611106     1.007825032230
         H           -2.183865373461    -2.016165414336     3.264375611106     1.007825032230

  Charge       = 0
  Multiplicity = 1
  Basis Set: AUG-CC-PVQZ
    Blend: AUG-CC-PVQZ
  Basis Set: (AUG-CC-PVQZ AUX)
    Blend: AUG-CC-PVQZ-JKFIT

    Orbital Energies [Eh]
    ---------------------

    Doubly Occupied:

       1A    -20.545262     2A    -20.539737     3A    -15.642945
       4A    -15.625979     5A    -11.418379     6A    -11.380406
       7A    -11.340340     8A    -11.254893     9A    -11.224502
      10A    -11.205257    11A    -11.203357    12A    -11.203245
      13A    -11.202208    14A     -1.436419    15A     -1.398029
      16A     -1.313759    17A     -1.246317    18A     -1.105130
      19A     -1.088700    20A     -0.934059    21A     -0.928298
      22A     -0.927545    23A     -0.926376    24A     -0.902288
      25A     -0.807792    26A     -0.765882    27A     -0.728452
      28A     -0.715130    29A     -0.678311    30A     -0.669898
      31A     -0.653643    32A     -0.615742    33A     -0.611243
      34A     -0.610829    35A     -0.610360    36A     -0.602468
      37A     -0.571567    38A     -0.552557    39A     -0.551435
      40A     -0.526892    41A     -0.509027    42A     -0.508117
      43A     -0.507910    44A     -0.484689    45A     -0.451732
      46A     -0.451310    47A     -0.450853    48A     -0.450320
      49A     -0.437956    50A     -0.369770

  @DF-RHF Final Energy:  -609.06662717398842

   => Energetics <=

    Nuclear Repulsion Energy =            758.2126928671708583
    One-Electron Energy =               -2332.7839918868407949
    Two-Electron Energy =                 965.5046718456814006
    Total Energy =                       -609.0666271739884223

  Dipole Moment: [D]
     X:     2.2135      Y:     4.3628      Z:    -0.5860     Total:     4.9272

  Basis Set: (AUG-CC-PVQZ AUX)
    Blend: AUG-CC-PVQZ-RI
	 Reference Energy          =    -609.0666271739884223 [Eh]
	 Singles Energy            =      -0.0000000000000000 [Eh]
	 Same-Spin Energy          =      -0.6632631891235160 [Eh]
	 Opposite-Spin Energy      =      -2.2718923127725672 [Eh]
	 Correlation Energy        =      -2.9351555018960833 [Eh]
	 Total Energy              =    -612.0017826758845558 [Eh]

	 ================> DF-SCS-MP2 Energies <==================
	-----------------------------------------------------------
	 SCS Same-Spin Scale       =       0.3333333333333333 [-]
	 SCS Opposite-Spin Scale   =       1.2000000000000000 [-]
	 SCS Same-Spin Energy      =      -0.2210877297078387 [Eh]
	 SCS Opposite-Spin Energy  =      -2.7262707753270807 [Eh]
	 SCS Correlation Energy    =      -2.9473585050349196 [Eh]
	 SCS Total Energy          =    -612.0139856790233353 [Eh]
	-----------------------------------------------------------

*** Psi4 exiting successfully. Buy a developer a beer!
