                               Psi4 1.4a2.dev224

  ==> Input File <==

--------------------------------------------------------------------------
#Generated by lconvert.py for cbs job

memory 40 GB

molecule  {
0 1
  N        0.6260810    -0.8509130     0.8059160
  H        0.4091900    -1.8115010     1.0344010
  C       -0.4324560    -0.0873360     0.2946640
  O       -1.5307720    -0.5884030     0.1235930
  C       -0.0668750     1.2912750     0.0196370
  H       -0.8097440     1.9518100    -0.3928400
  C        1.1835420     1.7179350     0.2905330
  H        1.5018500     2.7338710     0.1098330
  N        2.1341300     0.8866020     0.8190820
  H        3.0553360     1.2239010     1.0434280
  C        1.9027830    -0.4431780     1.1283120
  O        2.7438060    -1.1639240     1.6285870
--
0 1
  C       -0.5860740    -0.0274890     4.6265160
  C       -1.9028200     0.7138000     4.8413890
  H       -2.6098910     0.0955940     5.3962520
  H       -1.7433200     1.6339850     5.4055740
  H       -2.3605290     0.9752970     3.8862360
  C        0.0293630    -0.3809270     5.9777940
  H        0.9725250    -0.9133000     5.8470120
  H        0.2263840     0.5188150     6.5625960
  H       -0.6419310    -1.0186640     6.5545300
  C        0.3790510     0.8659890     3.8507270
  H        1.3276210     0.3533940     3.6803730
  H        0.5843410     1.7841260     4.4041540
  H       -0.0433450     1.1444760     2.8832630
  C       -0.8473910    -1.3075230     3.8361510
  H       -1.3111290    -1.0856890     2.8735270
  H        0.0851860    -1.8459220     3.6565150
  H       -1.5178990    -1.9693370     4.3863360
units angstrom
no_reorient
symmetry c1
}

set {
scf_type DF
mp2_type DF
e_convergence 7
reference rhf
}

energy('mp2/aug-cc-pv[tq]z', bsse_type='cp')
--------------------------------------------------------------------------

    Molecular point group: c1
  Charge       = 0
  Multiplicity = 1
  Basis Set: AUG-CC-PVTZ
    Blend: AUG-CC-PVTZ
  Basis Set: (AUG-CC-PVTZ AUX)
    Blend: AUG-CC-PVTZ-JKFIT
  @DF-RHF Final Energy:  -196.40446929527891
    Total Energy =                       -196.4044692952788864
  Basis Set: (AUG-CC-PVTZ AUX)
    Blend: AUG-CC-PVTZ-RI
	 Reference Energy          =    -196.4044692952789148 [Eh]
	 Singles Energy            =      -0.0000000000000000 [Eh]
	 Same-Spin Energy          =      -0.2117548464920629 [Eh]
	 Opposite-Spin Energy      =      -0.7978786706681931 [Eh]
	 Correlation Energy        =      -1.0096335171602560 [Eh]
	 Total Energy              =    -197.4141028124391823 [Eh]
	 SCS Total Energy          =    -197.4325086489114369 [Eh]
    Molecular point group: c1
  Basis Set: AUG-CC-PVQZ
    Blend: AUG-CC-PVQZ
  Basis Set: (AUG-CC-PVQZ AUX)
    Blend: AUG-CC-PVQZ-JKFIT
  @DF-RHF Final Energy:  -196.41631318093826
    Total Energy =                       -196.4163131809382321
  Basis Set: (AUG-CC-PVQZ AUX)
  @DF-RHF Final Energy:  -196.40451628126411
    Total Energy =                       -196.4045162812640797
  @DF-RHF Final Energy:  -196.41632798843065
    Total Energy =                       -196.4163279884306803
  @DF-RHF Final Energy:  -412.62490871532742
    Total Energy =                       -412.6249087153274218
  @DF-RHF Final Energy:  -412.65016618202156
    Total Energy =                       -412.6501661820215645
  @DF-RHF Final Energy:  -412.62453730559707
    Total Energy =                       -412.6245373055970731
  @DF-RHF Final Energy:  -412.65007169971528
    Total Energy =                       -412.6500716997152836
  Multiplicity = 1
  @DF-RHF Final Energy:  -609.02431375633387
    Total Energy =                       -609.0243137563338678
	 Singles Energy            =      -0.0000000000000000 [Eh]
	 Same-Spin Energy          =      -0.6320205343287497 [Eh]
	 Opposite-Spin Energy      =      -2.0349864081205586 [Eh]
	 Correlation Energy        =      -2.6670069424493086 [Eh]
	 Total Energy              =    -611.6913206987832154 [Eh]
	 SCS Total Energy          =    -611.6769709575214620 [Eh]
    Molecular point group: c1

    Geometry (in Angstrom), charge = 0, multiplicity = 1:

       Center              X                  Y                   Z               Mass
    ------------   -----------------  -----------------  -----------------  -----------------
         N            0.348734113367    -0.874714444682    -1.404310037556    14.003074004430
         H            0.131843113367    -1.835302444682    -1.175825037556     1.007825032230
         C           -0.709802886633    -0.111137444682    -1.915562037556    12.000000000000
         O           -1.808118886633    -0.612204444682    -2.086633037556    15.994914619570
         C           -0.344221886633     1.267473555318    -2.190589037556    12.000000000000
         H           -1.087090886633     1.928008555318    -2.603066037556     1.007825032230
         C            0.906195113367     1.694133555318    -1.919693037556    12.000000000000
         H            1.224503113367     2.710069555318    -2.100393037556     1.007825032230
         N            1.856783113367     0.862800555318    -1.391144037556    14.003074004430
         H            2.777989113367     1.200099555318    -1.166798037556     1.007825032230
         C            1.625436113367    -0.466979444682    -1.081914037556    12.000000000000
         O            2.466459113367    -1.187725444682    -0.581639037556    15.994914619570
         C           -0.863420886633    -0.051290444682     2.416289962444    12.000000000000
         C           -2.180166886633     0.689998555318     2.631162962444    12.000000000000
         H           -2.887237886633     0.071792555318     3.186025962444     1.007825032230
         H           -2.020666886633     1.610183555318     3.195347962444     1.007825032230
         H           -2.637875886633     0.951495555318     1.676009962444     1.007825032230
         C           -0.247983886633    -0.404728444682     3.767567962444    12.000000000000
         H            0.695178113367    -0.937101444682     3.636785962444     1.007825032230
         H           -0.050962886633     0.495013555318     4.352369962444     1.007825032230
         H           -0.919277886633    -1.042465444682     4.344303962444     1.007825032230
         C            0.101704113367     0.842187555318     1.640500962444    12.000000000000
         H            1.050274113367     0.329592555318     1.470146962444     1.007825032230
         H            0.306994113367     1.760324555318     2.193927962444     1.007825032230
         H           -0.320691886633     1.120674555318     0.673036962444     1.007825032230
         C           -1.124737886633    -1.331324444682     1.625924962444    12.000000000000
         H           -1.588475886633    -1.109490444682     0.663300962444     1.007825032230
         H           -0.192160886633    -1.869723444682     1.446288962444     1.007825032230
         H           -1.795245886633    -1.993138444682     2.176109962444     1.007825032230

  Charge       = 0
  Multiplicity = 1
  Basis Set: AUG-CC-PVQZ
    Blend: AUG-CC-PVQZ
  Basis Set: (AUG-CC-PVQZ AUX)
    Blend: AUG-CC-PVQZ-JKFIT

    Orbital Energies [Eh]
    ---------------------

    Doubly Occupied:

       1A    -20.545031     2A    -20.539984     3A    -15.642062
       4A    -15.624222     5A    -11.417711     6A    -11.380103
       7A    -11.339774     8A    -11.254101     9A    -11.225361
      10A    -11.207843    11A    -11.203162    12A    -11.203134
      13A    -11.201279    14A     -1.436201    15A     -1.398458
      16A     -1.313241    17A     -1.245559    18A     -1.106097
      19A     -1.088359    20A     -0.934602    21A     -0.931158
      22A     -0.927508    23A     -0.926630    24A     -0.901640
      25A     -0.807150    26A     -0.765464    27A     -0.731162
      28A     -0.714378    29A     -0.678291    30A     -0.670338
      31A     -0.653518    32A     -0.615949    33A     -0.613908
      34A     -0.612153    35A     -0.611241    36A     -0.602169
      37A     -0.571528    38A     -0.554480    39A     -0.551748
      40A     -0.527758    41A     -0.509996    42A     -0.508704
      43A     -0.507595    44A     -0.484576    45A     -0.453277
      46A     -0.452579    47A     -0.451566    48A     -0.448826
      49A     -0.437181    50A     -0.369354

  @DF-RHF Final Energy:  -609.06138968475580

   => Energetics <=

    Nuclear Repulsion Energy =            836.4828086578565944
    One-Electron Energy =               -2489.2921648560577523
    Two-Electron Energy =                1043.7479665134453626
    Total Energy =                       -609.0613896847557953

  Dipole Moment: [D]
     X:     2.1568      Y:     4.3244      Z:    -0.5400     Total:     4.8625

  Basis Set: (AUG-CC-PVQZ AUX)
    Blend: AUG-CC-PVQZ-RI
	 Reference Energy          =    -609.0613896847557953 [Eh]
	 Singles Energy            =      -0.0000000000000000 [Eh]
	 Same-Spin Energy          =      -0.6685897092547060 [Eh]
	 Opposite-Spin Energy      =      -2.2787310882759848 [Eh]
	 Correlation Energy        =      -2.9473207975306908 [Eh]
	 Total Energy              =    -612.0087104822864603 [Eh]

	 ================> DF-SCS-MP2 Energies <==================
	-----------------------------------------------------------
	 SCS Same-Spin Scale       =       0.3333333333333333 [-]
	 SCS Opposite-Spin Scale   =       1.2000000000000000 [-]
	 SCS Same-Spin Energy      =      -0.2228632364182353 [Eh]
	 SCS Opposite-Spin Energy  =      -2.7344773059311818 [Eh]
	 SCS Correlation Energy    =      -2.9573405423494172 [Eh]
	 SCS Total Energy          =    -612.0187302271052658 [Eh]
	-----------------------------------------------------------

*** Psi4 exiting successfully. Buy a developer a beer!
