                               Psi4 1.4a2.dev224

  ==> Input File <==

--------------------------------------------------------------------------
#Generated by lconvert.py for cbs job

memory 40 GB

molecule  {
0 1
  N        0.6260810    -0.8509130     0.8059160
  H        0.4091900    -1.8115010     1.0344010
  C       -0.4324560    -0.0873360     0.2946640
  O       -1.5307720    -0.5884030     0.1235930
  C       -0.0668750     1.2912750     0.0196370
  H       -0.8097440     1.9518100    -0.3928400
  C        1.1835420     1.7179350     0.2905330
  H        1.5018500     2.7338710     0.1098330
  N        2.1341300     0.8866020     0.8190820
  H        3.0553360     1.2239010     1.0434280
  C        1.9027830    -0.4431780     1.1283120
  O        2.7438060    -1.1639240     1.6285870
--
0 1
  C       -0.6904810    -0.0336740     4.9188920
  C       -2.0072270     0.7076150     5.1337650
  H       -2.7142990     0.0894080     5.6886280
  H       -1.8477280     1.6277990     5.6979500
  H       -2.4649370     0.9691120     4.1786120
  C       -0.0750440    -0.3871120     6.2701700
  H        0.8681180    -0.9194850     6.1393880
  H        0.1219760     0.5126300     6.8549720
  H       -0.7463390    -1.0248490     6.8469070
  C        0.2746430     0.8598040     4.1431030
  H        1.2232140     0.3472090     3.9727490
  H        0.4799330     1.7779400     4.6965300
  H       -0.1477520     1.1382900     3.1756390
  C       -0.9517980    -1.3137090     4.1285280
  H       -1.4155370    -1.0918750     3.1659030
  H       -0.0192220    -1.8521070     3.9488910
  H       -1.6223060    -1.9755220     4.6787130
units angstrom
no_reorient
symmetry c1
}

set {
scf_type DF
mp2_type DF
e_convergence 7
reference rhf
}

energy('mp2/aug-cc-pv[tq]z', bsse_type='cp')
--------------------------------------------------------------------------

    Molecular point group: c1
  Charge       = 0
  Multiplicity = 1
  Basis Set: AUG-CC-PVTZ
    Blend: AUG-CC-PVTZ
  Basis Set: (AUG-CC-PVTZ AUX)
    Blend: AUG-CC-PVTZ-JKFIT
  @DF-RHF Final Energy:  -196.40446929683569
    Total Energy =                       -196.4044692968357140
  Basis Set: (AUG-CC-PVTZ AUX)
    Blend: AUG-CC-PVTZ-RI
	 Reference Energy          =    -196.4044692968356856 [Eh]
	 Singles Energy            =      -0.0000000000000000 [Eh]
	 Same-Spin Energy          =      -0.2117548482633177 [Eh]
	 Opposite-Spin Energy      =      -0.7978786731574610 [Eh]
	 Correlation Energy        =      -1.0096335214207786 [Eh]
	 Total Energy              =    -197.4141028182564526 [Eh]
	 SCS Total Energy          =    -197.4325086540457335 [Eh]
    Molecular point group: c1
  Basis Set: AUG-CC-PVQZ
    Blend: AUG-CC-PVQZ
  Basis Set: (AUG-CC-PVQZ AUX)
    Blend: AUG-CC-PVQZ-JKFIT
  @DF-RHF Final Energy:  -196.41631318079627
    Total Energy =                       -196.4163131807962941
  Basis Set: (AUG-CC-PVQZ AUX)
  @DF-RHF Final Energy:  -196.40450371984269
    Total Energy =                       -196.4045037198426940
  @DF-RHF Final Energy:  -196.41632464859495
    Total Energy =                       -196.4163246485949799
  @DF-RHF Final Energy:  -412.62482363754572
    Total Energy =                       -412.6248236375457168
  @DF-RHF Final Energy:  -412.65014920130392
    Total Energy =                       -412.6501492013039183
  @DF-RHF Final Energy:  -412.62453730160291
    Total Energy =                       -412.6245373016029134
  @DF-RHF Final Energy:  -412.65007170267097
    Total Energy =                       -412.6500717026709708
  Multiplicity = 1
  @DF-RHF Final Energy:  -609.02796287856359
    Total Energy =                       -609.0279628785635850
	 Singles Energy            =      -0.0000000000000000 [Eh]
	 Same-Spin Energy          =      -0.6298897493207982 [Eh]
	 Opposite-Spin Energy      =      -2.0316213192811534 [Eh]
	 Correlation Energy        =      -2.6615110686019516 [Eh]
	 Total Energy              =    -611.6894739471655384 [Eh]
	 SCS Total Energy          =    -611.6758717114745423 [Eh]
    Molecular point group: c1

    Geometry (in Angstrom), charge = 0, multiplicity = 1:

       Center              X                  Y                   Z               Mass
    ------------   -----------------  -----------------  -----------------  -----------------
         N            0.389615493835    -0.872292573290    -1.518791926555    14.003074004430
         H            0.172724493835    -1.832880573290    -1.290306926555     1.007825032230
         C           -0.668921506165    -0.108715573290    -2.030043926555    12.000000000000
         O           -1.767237506165    -0.609782573290    -2.201114926555    15.994914619570
         C           -0.303340506165     1.269895426710    -2.305070926555    12.000000000000
         H           -1.046209506165     1.930430426710    -2.717547926555     1.007825032230
         C            0.947076493835     1.696555426710    -2.034174926555    12.000000000000
         H            1.265384493835     2.712491426710    -2.214874926555     1.007825032230
         N            1.897664493835     0.865222426710    -1.505625926555    14.003074004430
         H            2.818870493835     1.202521426710    -1.281279926555     1.007825032230
         C            1.666317493835    -0.464557573290    -1.196395926555    12.000000000000
         O            2.507340493835    -1.185303573290    -0.696120926555    15.994914619570
         C           -0.926946506165    -0.055053573290     2.594184073445    12.000000000000
         C           -2.243692506165     0.686235426710     2.809057073445    12.000000000000
         H           -2.950764506165     0.068028426710     3.363920073445     1.007825032230
         H           -2.084193506165     1.606419426710     3.373242073445     1.007825032230
         H           -2.701402506165     0.947732426710     1.853904073445     1.007825032230
         C           -0.311509506165    -0.408491573290     3.945462073445    12.000000000000
         H            0.631652493835    -0.940864573290     3.814680073445     1.007825032230
         H           -0.114489506165     0.491250426710     4.530264073445     1.007825032230
         H           -0.982804506165    -1.046228573290     4.522199073445     1.007825032230
         C            0.038177493835     0.838424426710     1.818395073445    12.000000000000
         H            0.986748493835     0.325829426710     1.648041073445     1.007825032230
         H            0.243467493835     1.756560426710     2.371822073445     1.007825032230
         H           -0.384217506165     1.116910426710     0.850931073445     1.007825032230
         C           -1.188263506165    -1.335088573290     1.803820073445    12.000000000000
         H           -1.652002506165    -1.113254573290     0.841195073445     1.007825032230
         H           -0.255687506165    -1.873486573290     1.624183073445     1.007825032230
         H           -1.858771506165    -1.996901573290     2.354005073445     1.007825032230

  Charge       = 0
  Multiplicity = 1
  Basis Set: AUG-CC-PVQZ
    Blend: AUG-CC-PVQZ
  Basis Set: (AUG-CC-PVQZ AUX)
    Blend: AUG-CC-PVQZ-JKFIT

    Orbital Energies [Eh]
    ---------------------

    Doubly Occupied:

       1A    -20.544993     2A    -20.539760     3A    -15.642340
       4A    -15.624922     5A    -11.417875     6A    -11.380145
       7A    -11.339947     8A    -11.254314     9A    -11.225324
      10A    -11.207734    11A    -11.203361    12A    -11.203256
      13A    -11.201788    14A     -1.436107    15A     -1.398125
      16A     -1.313285    17A     -1.245691    18A     -1.105944
      19A     -1.088331    20A     -0.933830    21A     -0.930696
      22A     -0.927629    23A     -0.926662    24A     -0.901761
      25A     -0.807256    26A     -0.765483    27A     -0.729985
      28A     -0.714555    29A     -0.678165    30A     -0.669839
      31A     -0.653443    32A     -0.615656    33A     -0.612646
      34A     -0.611733    35A     -0.611292    36A     -0.602156
      37A     -0.571559    38A     -0.553699    39A     -0.552100
      40A     -0.526956    41A     -0.509857    42A     -0.509158
      43A     -0.507918    44A     -0.484503    45A     -0.452703
      46A     -0.452498    47A     -0.451637    48A     -0.449485
      49A     -0.437487    50A     -0.369441

  @DF-RHF Final Energy:  -609.06511097037662

   => Energetics <=

    Nuclear Repulsion Energy =            820.0945097648458386
    One-Electron Energy =               -2456.5291583877215089
    Two-Electron Energy =                1027.3695376524990479
    Total Energy =                       -609.0651109703765087

  Dipole Moment: [D]
     X:     2.1690      Y:     4.3253      Z:    -0.5353     Total:     4.8682

  Basis Set: (AUG-CC-PVQZ AUX)
    Blend: AUG-CC-PVQZ-RI
	 Reference Energy          =    -609.0651109703766224 [Eh]
	 Singles Energy            =      -0.0000000000000000 [Eh]
	 Same-Spin Energy          =      -0.6665162255374550 [Eh]
	 Opposite-Spin Energy      =      -2.2760794420108841 [Eh]
	 Correlation Energy        =      -2.9425956675483391 [Eh]
	 Total Energy              =    -612.0077066379249118 [Eh]

	 ================> DF-SCS-MP2 Energies <==================
	-----------------------------------------------------------
	 SCS Same-Spin Scale       =       0.3333333333333333 [-]
	 SCS Opposite-Spin Scale   =       1.2000000000000000 [-]
	 SCS Same-Spin Energy      =      -0.2221720751791517 [Eh]
	 SCS Opposite-Spin Energy  =      -2.7312953304130607 [Eh]
	 SCS Correlation Energy    =      -2.9534674055922125 [Eh]
	 SCS Total Energy          =    -612.0185783759687865 [Eh]
	-----------------------------------------------------------

*** Psi4 exiting successfully. Buy a developer a beer!
