                               Psi4 1.4a2.dev224

  ==> Input File <==

--------------------------------------------------------------------------
#Generated by lconvert.py for cbs job

memory 40 GB

molecule  {
0 1
  N        0.6260810    -0.8509130     0.8059160
  H        0.4091900    -1.8115010     1.0344010
  C       -0.4324560    -0.0873360     0.2946640
  O       -1.5307720    -0.5884030     0.1235930
  C       -0.0668750     1.2912750     0.0196370
  H       -0.8097440     1.9518100    -0.3928400
  C        1.1835420     1.7179350     0.2905330
  H        1.5018500     2.7338710     0.1098330
  N        2.1341300     0.8866020     0.8190820
  H        3.0553360     1.2239010     1.0434280
  C        1.9027830    -0.4431780     1.1283120
  O        2.7438060    -1.1639240     1.6285870
--
0 1
  C       -0.4353270    -0.0185580     4.2043760
  C       -1.7520730     0.7227310     4.4192490
  H       -2.4591450     0.1045250     4.9741110
  H       -1.5925740     1.6429150     4.9834340
  H       -2.2097830     0.9842280     3.4640950
  C        0.1801090    -0.3719960     5.5556530
  H        1.1232720    -0.9043690     5.4248720
  H        0.3771300     0.5277460     6.1404560
  H       -0.4911850    -1.0097330     6.1323900
  C        0.5297970     0.8749200     3.4285870
  H        1.4783680     0.3623250     3.2582330
  H        0.7350870     1.7930560     3.9820130
  H        0.1074020     1.1534060     2.4611220
  C       -0.6966440    -1.2985920     3.4140110
  H       -1.1603830    -1.0767590     2.4513860
  H        0.2359320    -1.8369910     3.2343740
  H       -1.3671520    -1.9604060     3.9641960
units angstrom
no_reorient
symmetry c1
}

set {
scf_type DF
mp2_type DF
e_convergence 7
reference rhf
}

energy('mp2/aug-cc-pv[tq]z', bsse_type='cp')
--------------------------------------------------------------------------

    Molecular point group: c1
  Charge       = 0
  Multiplicity = 1
  Basis Set: AUG-CC-PVTZ
    Blend: AUG-CC-PVTZ
  Basis Set: (AUG-CC-PVTZ AUX)
    Blend: AUG-CC-PVTZ-JKFIT
  @DF-RHF Final Energy:  -196.40446928053100
    Total Energy =                       -196.4044692805309751
  Basis Set: (AUG-CC-PVTZ AUX)
    Blend: AUG-CC-PVTZ-RI
	 Reference Energy          =    -196.4044692805310035 [Eh]
	 Singles Energy            =      -0.0000000000000000 [Eh]
	 Same-Spin Energy          =      -0.2117548589665176 [Eh]
	 Opposite-Spin Energy      =      -0.7978786833500564 [Eh]
	 Correlation Energy        =      -1.0096335423165739 [Eh]
	 Total Energy              =    -197.4141028228475818 [Eh]
	 SCS Total Energy          =    -197.4325086535399123 [Eh]
    Molecular point group: c1
  Basis Set: AUG-CC-PVQZ
    Blend: AUG-CC-PVQZ
  Basis Set: (AUG-CC-PVQZ AUX)
    Blend: AUG-CC-PVQZ-JKFIT
  @DF-RHF Final Energy:  -196.41631316133601
    Total Energy =                       -196.4163131613360065
  Basis Set: (AUG-CC-PVQZ AUX)
  @DF-RHF Final Energy:  -196.40454166343770
    Total Energy =                       -196.4045416634376693
  @DF-RHF Final Energy:  -196.41633371142188
    Total Energy =                       -196.4163337114218848
  @DF-RHF Final Energy:  -412.62508053485135
    Total Energy =                       -412.6250805348513495
  @DF-RHF Final Energy:  -412.65020036197535
    Total Energy =                       -412.6502003619753509
  @DF-RHF Final Energy:  -412.62453730073872
    Total Energy =                       -412.6245373007387229
  @DF-RHF Final Energy:  -412.65007170274697
    Total Energy =                       -412.6500717027469705
  Multiplicity = 1
  @DF-RHF Final Energy:  -609.00535353086104
    Total Energy =                       -609.0053535308611572
	 Singles Energy            =      -0.0000000000000000 [Eh]
	 Same-Spin Energy          =      -0.6375265565769863 [Eh]
	 Opposite-Spin Energy      =      -2.0434109928124258 [Eh]
	 Correlation Energy        =      -2.6809375493894123 [Eh]
	 Total Energy              =    -611.6862910802504985 [Eh]
	 SCS Total Energy          =    -611.6699555744282861 [Eh]
    Molecular point group: c1

    Geometry (in Angstrom), charge = 0, multiplicity = 1:

       Center              X                  Y                   Z               Mass
    ------------   -----------------  -----------------  -----------------  -----------------
         N            0.289708273586    -0.878211416627    -1.239018149214    14.003074004430
         H            0.072817273586    -1.838799416627    -1.010533149214     1.007825032230
         C           -0.768828726414    -0.114634416627    -1.750270149214    12.000000000000
         O           -1.867144726414    -0.615701416627    -1.921341149214    15.994914619570
         C           -0.403247726414     1.263976583373    -2.025297149214    12.000000000000
         H           -1.146116726414     1.924511583373    -2.437774149214     1.007825032230
         C            0.847169273586     1.690636583373    -1.754401149214    12.000000000000
         H            1.165477273586     2.706572583373    -1.935101149214     1.007825032230
         N            1.797757273586     0.859303583373    -1.225852149214    14.003074004430
         H            2.718963273586     1.196602583373    -1.001506149214     1.007825032230
         C            1.566410273586    -0.470476416627    -0.916622149214    12.000000000000
         O            2.407433273586    -1.191222416627    -0.416347149214    15.994914619570
         C           -0.771699726414    -0.045856416627     2.159441850786    12.000000000000
         C           -2.088445726414     0.695432583373     2.374314850786    12.000000000000
         H           -2.795517726414     0.077226583373     2.929176850786     1.007825032230
         H           -1.928946726414     1.615616583373     2.938499850786     1.007825032230
         H           -2.546155726414     0.956929583373     1.419160850786     1.007825032230
         C           -0.156263726414    -0.399294416627     3.510718850786    12.000000000000
         H            0.786899273586    -0.931667416627     3.379937850786     1.007825032230
         H            0.040757273586     0.500447583373     4.095521850786     1.007825032230
         H           -0.827557726414    -1.037031416627     4.087455850786     1.007825032230
         C            0.193424273586     0.847621583373     1.383652850786    12.000000000000
         H            1.141995273586     0.335026583373     1.213298850786     1.007825032230
         H            0.398714273586     1.765757583373     1.937078850786     1.007825032230
         H           -0.228970726414     1.126107583373     0.416187850786     1.007825032230
         C           -1.033016726414    -1.325890416627     1.369076850786    12.000000000000
         H           -1.496755726414    -1.104057416627     0.406451850786     1.007825032230
         H           -0.100440726414    -1.864289416627     1.189439850786     1.007825032230
         H           -1.703524726414    -1.987704416627     1.919261850786     1.007825032230

  Charge       = 0
  Multiplicity = 1
  Basis Set: AUG-CC-PVQZ
    Blend: AUG-CC-PVQZ
  Basis Set: (AUG-CC-PVQZ AUX)
    Blend: AUG-CC-PVQZ-JKFIT

    Orbital Energies [Eh]
    ---------------------

    Doubly Occupied:

       1A    -20.545517     2A    -20.541077     3A    -15.641235
       4A    -15.622446     5A    -11.417765     6A    -11.380401
       7A    -11.339518     8A    -11.253850     9A    -11.224712
      10A    -11.205938    11A    -11.202679    12A    -11.202176
      13A    -11.199028    14A     -1.437198    15A     -1.400056
      16A     -1.313771    17A     -1.246037    18A     -1.105986
      19A     -1.089162    20A     -0.938904    21A     -0.931836
      22A     -0.926882    23A     -0.925400    24A     -0.901822
      25A     -0.807454    26A     -0.766100    27A     -0.735382
      28A     -0.714377    29A     -0.679164    30A     -0.672000
      31A     -0.654186    32A     -0.620467    33A     -0.616469
      34A     -0.613742    35A     -0.609162    36A     -0.602777
      37A     -0.570531    38A     -0.557259    39A     -0.549293
      40A     -0.530343    41A     -0.510417    42A     -0.506050
      43A     -0.504892    44A     -0.485098    45A     -0.454705
      46A     -0.451442    47A     -0.450501    48A     -0.446862
      49A     -0.435881    50A     -0.369046

  @DF-RHF Final Energy:  -609.04229770192933

   => Energetics <=

    Nuclear Repulsion Energy =            863.6635665449559838
    One-Electron Energy =               -2543.5977202898307041
    Two-Electron Energy =                1070.8918560429453919
    Total Energy =                       -609.0422977019293285

  Dipole Moment: [D]
     X:     2.1395      Y:     4.3354      Z:    -0.6003     Total:     4.8717

  Basis Set: (AUG-CC-PVQZ AUX)
    Blend: AUG-CC-PVQZ-RI
	 Reference Energy          =    -609.0422977019293285 [Eh]
	 Singles Energy            =      -0.0000000000000000 [Eh]
	 Same-Spin Energy          =      -0.6739764797072347 [Eh]
	 Opposite-Spin Energy      =      -2.2855576538512619 [Eh]
	 Correlation Energy        =      -2.9595341335584964 [Eh]
	 Total Energy              =    -612.0018318354877920 [Eh]

	 ================> DF-SCS-MP2 Energies <==================
	-----------------------------------------------------------
	 SCS Same-Spin Scale       =       0.3333333333333333 [-]
	 SCS Opposite-Spin Scale   =       1.2000000000000000 [-]
	 SCS Same-Spin Energy      =      -0.2246588265690782 [Eh]
	 SCS Opposite-Spin Energy  =      -2.7426691846215143 [Eh]
	 SCS Correlation Energy    =      -2.9673280111905926 [Eh]
	 SCS Total Energy          =    -612.0096257131199309 [Eh]
	-----------------------------------------------------------

*** Psi4 exiting successfully. Buy a developer a beer!
