                               Psi4 1.4a2.dev224

  ==> Input File <==

--------------------------------------------------------------------------
#Generated by lconvert.py for cbs job

memory 40 GB

molecule  {
0 1
  N        0.6260810    -0.8509130     0.8059160
  H        0.4091900    -1.8115010     1.0344010
  C       -0.4324560    -0.0873360     0.2946640
  O       -1.5307720    -0.5884030     0.1235930
  C       -0.0668750     1.2912750     0.0196370
  H       -0.8097440     1.9518100    -0.3928400
  C        1.1835420     1.7179350     0.2905330
  H        1.5018500     2.7338710     0.1098330
  N        2.1341300     0.8866020     0.8190820
  H        3.0553360     1.2239010     1.0434280
  C        1.9027830    -0.4431780     1.1283120
  O        2.7438060    -1.1639240     1.6285870
--
0 1
  C       -0.6385920    -0.0306000     4.7735860
  C       -1.9553380     0.7106890     4.9884590
  H       -2.6624100     0.0924830     5.5433210
  H       -1.7958390     1.6308730     5.5526440
  H       -2.4130480     0.9721860     4.0333050
  C       -0.0231550    -0.3840380     6.1248630
  H        0.9200070    -0.9164110     5.9940820
  H        0.1738650     0.5157040     6.7096650
  H       -0.6944500    -1.0217750     6.7016000
  C        0.3265320     0.8628780     3.9977970
  H        1.2751030     0.3502830     3.8274430
  H        0.5318220     1.7810140     4.5512230
  H       -0.0958630     1.1413640     3.0303320
  C       -0.8999090    -1.3106340     3.9832210
  H       -1.3636480    -1.0888010     3.0205960
  H        0.0326670    -1.8490330     3.8035840
  H       -1.5704170    -1.9724480     4.5334060
units angstrom
no_reorient
symmetry c1
}

set {
scf_type DF
mp2_type DF
e_convergence 7
reference rhf
}

energy('mp2/aug-cc-pv[tq]z', bsse_type='cp')
--------------------------------------------------------------------------

    Molecular point group: c1
  Charge       = 0
  Multiplicity = 1
  Basis Set: AUG-CC-PVTZ
    Blend: AUG-CC-PVTZ
  Basis Set: (AUG-CC-PVTZ AUX)
    Blend: AUG-CC-PVTZ-JKFIT
  @DF-RHF Final Energy:  -196.40446928823204
    Total Energy =                       -196.4044692882320078
  Basis Set: (AUG-CC-PVTZ AUX)
    Blend: AUG-CC-PVTZ-RI
	 Reference Energy          =    -196.4044692882320362 [Eh]
	 Singles Energy            =      -0.0000000000000000 [Eh]
	 Same-Spin Energy          =      -0.2117548565509828 [Eh]
	 Opposite-Spin Energy      =      -0.7978786782900212 [Eh]
	 Correlation Energy        =      -1.0096335348410039 [Eh]
	 Total Energy              =    -197.4141028230730512 [Eh]
	 SCS Total Energy          =    -197.4325086543637156 [Eh]
    Molecular point group: c1
  Basis Set: AUG-CC-PVQZ
    Blend: AUG-CC-PVQZ
  Basis Set: (AUG-CC-PVQZ AUX)
    Blend: AUG-CC-PVQZ-JKFIT
  @DF-RHF Final Energy:  -196.41631316882584
    Total Energy =                       -196.4163131688258090
  Basis Set: (AUG-CC-PVQZ AUX)
  @DF-RHF Final Energy:  -196.40450947425830
    Total Energy =                       -196.4045094742583046
  @DF-RHF Final Energy:  -196.41632617164885
    Total Energy =                       -196.4163261716488478
  @DF-RHF Final Energy:  -412.62486210723364
    Total Energy =                       -412.6248621072336391
  @DF-RHF Final Energy:  -412.65015712468170
    Total Energy =                       -412.6501571246816980
  @DF-RHF Final Energy:  -412.62453730338166
    Total Energy =                       -412.6245373033816577
  @DF-RHF Final Energy:  -412.65007170681645
    Total Energy =                       -412.6500717068164477
  Multiplicity = 1
  @DF-RHF Final Energy:  -609.02662420231718
    Total Energy =                       -609.0266242023171799
	 Singles Energy            =      -0.0000000000000000 [Eh]
	 Same-Spin Energy          =      -0.6308248713052782 [Eh]
	 Opposite-Spin Energy      =      -2.0331109523199702 [Eh]
	 Correlation Energy        =      -2.6639358236252484 [Eh]
	 Total Energy              =    -611.6905600259424318 [Eh]
	 SCS Total Energy          =    -611.6766323022028473 [Eh]
    Molecular point group: c1

    Geometry (in Angstrom), charge = 0, multiplicity = 1:

       Center              X                  Y                   Z               Mass
    ------------   -----------------  -----------------  -----------------  -----------------
         N            0.369298002699    -0.873496289562    -1.461896193607    14.003074004430
         H            0.152407002699    -1.834084289562    -1.233411193607     1.007825032230
         C           -0.689238997301    -0.109919289562    -1.973148193607    12.000000000000
         O           -1.787554997301    -0.610986289562    -2.144219193607    15.994914619570
         C           -0.323657997301     1.268691710438    -2.248175193607    12.000000000000
         H           -1.066526997301     1.929226710438    -2.660652193607     1.007825032230
         C            0.926759002699     1.695351710438    -1.977279193607    12.000000000000
         H            1.245067002699     2.711287710438    -2.157979193607     1.007825032230
         N            1.877347002699     0.864018710438    -1.448730193607    14.003074004430
         H            2.798553002699     1.201317710438    -1.224384193607     1.007825032230
         C            1.646000002699    -0.465761289562    -1.139500193607    12.000000000000
         O            2.487023002699    -1.186507289562    -0.639225193607    15.994914619570
         C           -0.895374997301    -0.053183289562     2.505773806393    12.000000000000
         C           -2.212120997301     0.688105710438     2.720646806393    12.000000000000
         H           -2.919192997301     0.069899710438     3.275508806393     1.007825032230
         H           -2.052621997301     1.608289710438     3.284831806393     1.007825032230
         H           -2.669830997301     0.949602710438     1.765492806393     1.007825032230
         C           -0.279937997301    -0.406621289562     3.857050806393    12.000000000000
         H            0.663224002699    -0.938994289562     3.726269806393     1.007825032230
         H           -0.082917997301     0.493120710438     4.441852806393     1.007825032230
         H           -0.951232997301    -1.044358289562     4.433787806393     1.007825032230
         C            0.069749002699     0.840294710438     1.729984806393    12.000000000000
         H            1.018320002699     0.327699710438     1.559630806393     1.007825032230
         H            0.275039002699     1.758430710438     2.283410806393     1.007825032230
         H           -0.352645997301     1.118780710438     0.762519806393     1.007825032230
         C           -1.156691997301    -1.333217289562     1.715408806393    12.000000000000
         H           -1.620430997301    -1.111384289562     0.752783806393     1.007825032230
         H           -0.224115997301    -1.871616289562     1.535771806393     1.007825032230
         H           -1.827199997301    -1.995031289562     2.265593806393     1.007825032230

  Charge       = 0
  Multiplicity = 1
  Basis Set: AUG-CC-PVQZ
    Blend: AUG-CC-PVQZ
  Basis Set: (AUG-CC-PVQZ AUX)
    Blend: AUG-CC-PVQZ-JKFIT

    Orbital Energies [Eh]
    ---------------------

    Doubly Occupied:

       1A    -20.544995     2A    -20.539841     3A    -15.642217
       4A    -15.624615     5A    -11.417789     6A    -11.380114
       7A    -11.339865     8A    -11.254209     9A    -11.225371
      10A    -11.207866    11A    -11.203280    12A    -11.203221
      13A    -11.201596    14A     -1.436124    15A     -1.398248
      16A     -1.313246    17A     -1.245609    18A     -1.106034
      19A     -1.088321    20A     -0.934070    21A     -0.930967
      22A     -0.927589    23A     -0.926680    24A     -0.901690
      25A     -0.807190    26A     -0.765455    27A     -0.730471
      28A     -0.714463    29A     -0.678203    30A     -0.670028
      31A     -0.653460    32A     -0.615743    33A     -0.613154
      34A     -0.611876    35A     -0.611372    36A     -0.602144
      37A     -0.571563    38A     -0.554024    39A     -0.552005
      40A     -0.527258    41A     -0.509898    42A     -0.509085
      43A     -0.507807    44A     -0.484522    45A     -0.452960
      46A     -0.452582    47A     -0.451643    48A     -0.449205
      49A     -0.437358    50A     -0.369399

  @DF-RHF Final Energy:  -609.06373942412188

   => Energetics <=

    Nuclear Repulsion Energy =            828.0135808120195406
    One-Electron Energy =               -2472.3617663159702715
    Two-Electron Energy =                1035.2844460798289674
    Total Energy =                       -609.0637394241218772

  Dipole Moment: [D]
     X:     2.1629      Y:     4.3242      Z:    -0.5353     Total:     4.8645

  Basis Set: (AUG-CC-PVQZ AUX)
    Blend: AUG-CC-PVQZ-RI
	 Reference Energy          =    -609.0637394241218772 [Eh]
	 Singles Energy            =      -0.0000000000000000 [Eh]
	 Same-Spin Energy          =      -0.6674260692141060 [Eh]
	 Opposite-Spin Energy      =      -2.2772458806697369 [Eh]
	 Correlation Energy        =      -2.9446719498838427 [Eh]
	 Total Energy              =    -612.0084113740057319 [Eh]

	 ================> DF-SCS-MP2 Energies <==================
	-----------------------------------------------------------
	 SCS Same-Spin Scale       =       0.3333333333333333 [-]
	 SCS Opposite-Spin Scale   =       1.2000000000000000 [-]
	 SCS Same-Spin Energy      =      -0.2224753564047020 [Eh]
	 SCS Opposite-Spin Energy  =      -2.7326950568036841 [Eh]
	 SCS Correlation Energy    =      -2.9551704132083860 [Eh]
	 SCS Total Energy          =    -612.0189098373302841 [Eh]
	-----------------------------------------------------------

*** Psi4 exiting successfully. Buy a developer a beer!
