                               Psi4 1.4a2.dev224

  ==> Input File <==

--------------------------------------------------------------------------
#Generated by lconvert.py for cbs job

memory 40 GB

molecule  {
0 1
  N        0.6260810    -0.8509130     0.8059160
  H        0.4091900    -1.8115010     1.0344010
  C       -0.4324560    -0.0873360     0.2946640
  O       -1.5307720    -0.5884030     0.1235930
  C       -0.0668750     1.2912750     0.0196370
  H       -0.8097440     1.9518100    -0.3928400
  C        1.1835420     1.7179350     0.2905330
  H        1.5018500     2.7338710     0.1098330
  N        2.1341300     0.8866020     0.8190820
  H        3.0553360     1.2239010     1.0434280
  C        1.9027830    -0.4431780     1.1283120
  O        2.7438060    -1.1639240     1.6285870
--
0 1
  C       -0.5326720    -0.0243250     4.4769730
  C       -1.8494180     0.7169640     4.6918460
  H       -2.5564890     0.0987580     5.2467080
  H       -1.6899180     1.6371480     5.2560310
  H       -2.3071280     0.9784610     3.7366920
  C        0.0827650    -0.3777630     5.8282500
  H        1.0259270    -0.9101360     5.6974690
  H        0.2797860     0.5219790     6.4130530
  H       -0.5885290    -1.0155000     6.4049870
  C        0.4324530     0.8691530     3.7011840
  H        1.3810230     0.3565580     3.5308300
  H        0.6377430     1.7872890     4.2546100
  H        0.0100570     1.1476390     2.7337190
  C       -0.7939890    -1.3043590     3.6866080
  H       -1.2577270    -1.0825260     2.7239830
  H        0.1385870    -1.8427580     3.5069710
  H       -1.4644970    -1.9661730     4.2367930
units angstrom
no_reorient
symmetry c1
}

set {
scf_type DF
mp2_type DF
e_convergence 7
reference rhf
}

energy('mp2/aug-cc-pv[tq]z', bsse_type='cp')
--------------------------------------------------------------------------

    Molecular point group: c1
  Charge       = 0
  Multiplicity = 1
  Basis Set: AUG-CC-PVTZ
    Blend: AUG-CC-PVTZ
  Basis Set: (AUG-CC-PVTZ AUX)
    Blend: AUG-CC-PVTZ-JKFIT
  @DF-RHF Final Energy:  -196.40446930165811
    Total Energy =                       -196.4044693016580823
  Basis Set: (AUG-CC-PVTZ AUX)
    Blend: AUG-CC-PVTZ-RI
	 Reference Energy          =    -196.4044693016581107 [Eh]
	 Singles Energy            =      -0.0000000000000000 [Eh]
	 Same-Spin Energy          =      -0.2117548508507370 [Eh]
	 Opposite-Spin Energy      =      -0.7978786681057469 [Eh]
	 Correlation Energy        =      -1.0096335189564840 [Eh]
	 Total Energy              =    -197.4141028206146018 [Eh]
	 SCS Total Energy          =    -197.4325086536685774 [Eh]
    Molecular point group: c1
  Basis Set: AUG-CC-PVQZ
    Blend: AUG-CC-PVQZ
  Basis Set: (AUG-CC-PVQZ AUX)
    Blend: AUG-CC-PVQZ-JKFIT
  @DF-RHF Final Energy:  -196.41631318647026
    Total Energy =                       -196.4163131864702905
  Basis Set: (AUG-CC-PVQZ AUX)
  @DF-RHF Final Energy:  -196.40452423804697
    Total Energy =                       -196.4045242380469745
  @DF-RHF Final Energy:  -196.41632996119850
    Total Energy =                       -196.4163299611984712
  @DF-RHF Final Energy:  -412.62496378532171
    Total Energy =                       -412.6249637853217109
  @DF-RHF Final Energy:  -412.65017730494151
    Total Energy =                       -412.6501773049415078
  @DF-RHF Final Energy:  -412.62453730200548
    Total Energy =                       -412.6245373020054785
  @DF-RHF Final Energy:  -412.65007170633157
    Total Energy =                       -412.6500717063315733
  Multiplicity = 1
  @DF-RHF Final Energy:  -609.02036003782860
    Total Energy =                       -609.0203600378285955
	 Singles Energy            =      -0.0000000000000000 [Eh]
	 Same-Spin Energy          =      -0.6335627480359606 [Eh]
	 Opposite-Spin Energy      =      -2.0373759521631540 [Eh]
	 Correlation Energy        =      -2.6709387001991147 [Eh]
	 Total Energy              =    -611.6912987380277400 [Eh]
	 SCS Total Energy          =    -611.6763987631030659 [Eh]
    Molecular point group: c1

    Geometry (in Angstrom), charge = 0, multiplicity = 1:

       Center              X                  Y                   Z               Mass
    ------------   -----------------  -----------------  -----------------  -----------------
         N            0.327824207730    -0.875953308523    -1.345755360014    14.003074004430
         H            0.110933207730    -1.836541308523    -1.117270360014     1.007825032230
         C           -0.730712792270    -0.112376308523    -1.857007360014    12.000000000000
         O           -1.829028792270    -0.613443308523    -2.028078360014    15.994914619570
         C           -0.365131792270     1.266234691477    -2.132034360014    12.000000000000
         H           -1.108000792270     1.926769691477    -2.544511360014     1.007825032230
         C            0.885285207730     1.692894691477    -1.861138360014    12.000000000000
         H            1.203593207730     2.708830691477    -2.041838360014     1.007825032230
         N            1.835873207730     0.861561691477    -1.332589360014    14.003074004430
         H            2.757079207730     1.198860691477    -1.108243360014     1.007825032230
         C            1.604526207730    -0.468218308523    -1.023359360014    12.000000000000
         O            2.445549207730    -1.188964308523    -0.523084360014    15.994914619570
         C           -0.830928792270    -0.049365308523     2.325301639986    12.000000000000
         C           -2.147674792270     0.691923691477     2.540174639986    12.000000000000
         H           -2.854745792270     0.073717691477     3.095036639986     1.007825032230
         H           -1.988174792270     1.612107691477     3.104359639986     1.007825032230
         H           -2.605384792270     0.953420691477     1.585020639986     1.007825032230
         C           -0.215491792270    -0.402803308523     3.676578639986    12.000000000000
         H            0.727670207730    -0.935176308523     3.545797639986     1.007825032230
         H           -0.018470792270     0.496938691477     4.261381639986     1.007825032230
         H           -0.886785792270    -1.040540308523     4.253315639986     1.007825032230
         C            0.134196207730     0.844112691477     1.549512639986    12.000000000000
         H            1.082766207730     0.331517691477     1.379158639986     1.007825032230
         H            0.339486207730     1.762248691477     2.102938639986     1.007825032230
         H           -0.288199792270     1.122598691477     0.582047639986     1.007825032230
         C           -1.092245792270    -1.329399308523     1.534936639986    12.000000000000
         H           -1.555983792270    -1.107566308523     0.572311639986     1.007825032230
         H           -0.159669792270    -1.867798308523     1.355299639986     1.007825032230
         H           -1.762753792270    -1.991213308523     2.085121639986     1.007825032230

  Charge       = 0
  Multiplicity = 1
  Basis Set: AUG-CC-PVQZ
    Blend: AUG-CC-PVQZ
  Basis Set: (AUG-CC-PVQZ AUX)
    Blend: AUG-CC-PVQZ-JKFIT

    Orbital Energies [Eh]
    ---------------------

    Doubly Occupied:

       1A    -20.545120     2A    -20.540225     3A    -15.641856
       4A    -15.623718     5A    -11.417660     6A    -11.380133
       7A    -11.339674     8A    -11.253995     9A    -11.225262
      10A    -11.207563    11A    -11.203047    12A    -11.202909
      13A    -11.200764    14A     -1.436380    15A     -1.398808
      16A     -1.313302    17A     -1.245580    18A     -1.106118
      19A     -1.088485    20A     -0.935566    21A     -0.931293
      22A     -0.927365    23A     -0.926440    24A     -0.901631
      25A     -0.807159    26A     -0.765546    27A     -0.732177
      28A     -0.714316    29A     -0.678464    30A     -0.670803
      31A     -0.653644    32A     -0.616505    33A     -0.614918
      34A     -0.612564    35A     -0.610841    36A     -0.602261
      37A     -0.571391    38A     -0.555147    39A     -0.551238
      40A     -0.528503    41A     -0.510131    42A     -0.507944
      43A     -0.507183    44A     -0.484686    45A     -0.453674
      46A     -0.452423    47A     -0.451365    48A     -0.448305
      49A     -0.436918    50A     -0.369298

  @DF-RHF Final Energy:  -609.05739150775491

   => Energetics <=

    Nuclear Repulsion Energy =            845.5995066041896280
    One-Electron Energy =               -2507.5131840719850516
    Two-Electron Energy =                1052.8562859600406227
    Total Energy =                       -609.0573915077548008

  Dipole Moment: [D]
     X:     2.1506      Y:     4.3262      Z:    -0.5518     Total:     4.8627

  Basis Set: (AUG-CC-PVQZ AUX)
    Blend: AUG-CC-PVQZ-RI
	 Reference Energy          =    -609.0573915077549145 [Eh]
	 Singles Energy            =      -0.0000000000000000 [Eh]
	 Same-Spin Energy          =      -0.6700919124345431 [Eh]
	 Opposite-Spin Energy      =      -2.2806351382177397 [Eh]
	 Correlation Energy        =      -2.9507270506522829 [Eh]
	 Total Energy              =    -612.0081185584072045 [Eh]

	 ================> DF-SCS-MP2 Energies <==================
	-----------------------------------------------------------
	 SCS Same-Spin Scale       =       0.3333333333333333 [-]
	 SCS Opposite-Spin Scale   =       1.2000000000000000 [-]
	 SCS Same-Spin Energy      =      -0.2233639708115144 [Eh]
	 SCS Opposite-Spin Energy  =      -2.7367621658612875 [Eh]
	 SCS Correlation Energy    =      -2.9601261366728018 [Eh]
	 SCS Total Energy          =    -612.0175176444276985 [Eh]
	-----------------------------------------------------------

*** Psi4 exiting successfully. Buy a developer a beer!
