                               Psi4 1.4a2.dev224

  ==> Input File <==

--------------------------------------------------------------------------
#Generated by lconvert.py for cbs job

memory 40 GB

molecule  {
0 1
  N        0.6260810    -0.8509130     0.8059160
  H        0.4091900    -1.8115010     1.0344010
  C       -0.4324560    -0.0873360     0.2946640
  O       -1.5307720    -0.5884030     0.1235930
  C       -0.0668750     1.2912750     0.0196370
  H       -0.8097440     1.9518100    -0.3928400
  C        1.1835420     1.7179350     0.2905330
  H        1.5018500     2.7338710     0.1098330
  N        2.1341300     0.8866020     0.8190820
  H        3.0553360     1.2239010     1.0434280
  C        1.9027830    -0.4431780     1.1283120
  O        2.7438060    -1.1639240     1.6285870
--
0 1
  C       -0.3387220    -0.0128350     3.9338490
  C       -1.6554680     0.7284540     4.1487220
  H       -2.3625400     0.1102480     4.7035840
  H       -1.4959690     1.6486380     4.7129070
  H       -2.1131780     0.9899510     3.1935680
  C        0.2767140    -0.3662730     5.2851270
  H        1.2198770    -0.8986460     5.1543450
  H        0.4737350     0.5334690     5.8699290
  H       -0.3945800    -1.0040100     5.8618630
  C        0.6264020     0.8806430     3.1580600
  H        1.5749730     0.3680480     2.9877060
  H        0.8316920     1.7987790     3.7114860
  H        0.2040070     1.1591290     2.1905960
  C       -0.6000390    -1.2928690     3.1434840
  H       -1.0637780    -1.0710360     2.1808600
  H        0.3325370    -1.8312680     2.9638480
  H       -1.2705470    -1.9546830     3.6936690
units angstrom
no_reorient
symmetry c1
}

set {
scf_type DF
mp2_type DF
e_convergence 7
reference rhf
}

energy('mp2/aug-cc-pv[tq]z', bsse_type='cp')
--------------------------------------------------------------------------

    Molecular point group: c1
  Charge       = 0
  Multiplicity = 1
  Basis Set: AUG-CC-PVTZ
    Blend: AUG-CC-PVTZ
  Basis Set: (AUG-CC-PVTZ AUX)
    Blend: AUG-CC-PVTZ-JKFIT
  @DF-RHF Final Energy:  -196.40446930217922
    Total Energy =                       -196.4044693021792227
  Basis Set: (AUG-CC-PVTZ AUX)
    Blend: AUG-CC-PVTZ-RI
	 Reference Energy          =    -196.4044693021792227 [Eh]
	 Singles Energy            =      -0.0000000000000000 [Eh]
	 Same-Spin Energy          =      -0.2117548528924732 [Eh]
	 Opposite-Spin Energy      =      -0.7978786660152378 [Eh]
	 Correlation Energy        =      -1.0096335189077110 [Eh]
	 Total Energy              =    -197.4141028210869422 [Eh]
	 SCS Total Energy          =    -197.4325086523616619 [Eh]
    Molecular point group: c1
  Basis Set: AUG-CC-PVQZ
    Blend: AUG-CC-PVQZ
  Basis Set: (AUG-CC-PVQZ AUX)
    Blend: AUG-CC-PVQZ-JKFIT
  @DF-RHF Final Energy:  -196.41631318775219
    Total Energy =                       -196.4163131877522233
  Basis Set: (AUG-CC-PVQZ AUX)
  @DF-RHF Final Energy:  -196.40456426461856
    Total Energy =                       -196.4045642646185570
  @DF-RHF Final Energy:  -196.41633857433729
    Total Energy =                       -196.4163385743373169
  @DF-RHF Final Energy:  -412.62521292908065
    Total Energy =                       -412.6252129290806465
  @DF-RHF Final Energy:  -412.65022647366197
    Total Energy =                       -412.6502264736619736
  @DF-RHF Final Energy:  -412.62453730539715
    Total Energy =                       -412.6245373053971548
  @DF-RHF Final Energy:  -412.65007170145043
    Total Energy =                       -412.6500717014504289
  Multiplicity = 1
  @DF-RHF Final Energy:  -608.96976955831303
    Total Energy =                       -608.9697695583129189
	 Singles Energy            =      -0.0000000000000000 [Eh]
	 Same-Spin Energy          =      -0.6436143048619525 [Eh]
	 Opposite-Spin Energy      =      -2.0524842162902726 [Eh]
	 Correlation Energy        =      -2.6960985211522250 [Eh]
	 Total Energy              =    -611.6658680794652128 [Eh]
	 SCS Total Energy          =    -611.6472887194820487 [Eh]
    Molecular point group: c1

    Geometry (in Angstrom), charge = 0, multiplicity = 1:

       Center              X                  Y                   Z               Mass
    ------------   -----------------  -----------------  -----------------  -----------------
         N            0.251881928287    -0.880452296231    -1.133091542599    14.003074004430
         H            0.034990928287    -1.841040296231    -0.904606542599     1.007825032230
         C           -0.806655071713    -0.116875296231    -1.644343542599    12.000000000000
         O           -1.904971071713    -0.617942296231    -1.815414542599    15.994914619570
         C           -0.441074071713     1.261735703769    -1.919370542599    12.000000000000
         H           -1.183943071713     1.922270703769    -2.331847542599     1.007825032230
         C            0.809342928287     1.688395703769    -1.648474542599    12.000000000000
         H            1.127650928287     2.704331703769    -1.829174542599     1.007825032230
         N            1.759930928287     0.857062703769    -1.119925542599    14.003074004430
         H            2.681136928287     1.194361703769    -0.895579542599     1.007825032230
         C            1.528583928287    -0.472717296231    -0.810695542599    12.000000000000
         O            2.369606928287    -1.193463296231    -0.310420542599    15.994914619570
         C           -0.712921071713    -0.042374296231     1.994841457401    12.000000000000
         C           -2.029667071713     0.698914703769     2.209714457401    12.000000000000
         H           -2.736739071713     0.080708703769     2.764576457401     1.007825032230
         H           -1.870168071713     1.619098703769     2.773899457401     1.007825032230
         H           -2.487377071713     0.960411703769     1.254560457401     1.007825032230
         C           -0.097485071713    -0.395812296231     3.346119457401    12.000000000000
         H            0.845677928287    -0.928185296231     3.215337457401     1.007825032230
         H            0.099535928287     0.503929703769     3.930921457401     1.007825032230
         H           -0.768779071713    -1.033549296231     3.922855457401     1.007825032230
         C            0.252202928287     0.851103703769     1.219052457401    12.000000000000
         H            1.200773928287     0.338508703769     1.048698457401     1.007825032230
         H            0.457492928287     1.769239703769     1.772478457401     1.007825032230
         H           -0.170192071713     1.129589703769     0.251588457401     1.007825032230
         C           -0.974238071713    -1.322408296231     1.204476457401    12.000000000000
         H           -1.437977071713    -1.100575296231     0.241852457401     1.007825032230
         H           -0.041662071713    -1.860807296231     1.024840457401     1.007825032230
         H           -1.644746071713    -1.984222296231     1.754661457401     1.007825032230

  Charge       = 0
  Multiplicity = 1
  Basis Set: AUG-CC-PVQZ
    Blend: AUG-CC-PVQZ
  Basis Set: (AUG-CC-PVQZ AUX)
    Blend: AUG-CC-PVQZ-JKFIT

    Orbital Energies [Eh]
    ---------------------

    Doubly Occupied:

       1A    -20.546407     2A    -20.542802     3A    -15.639965
       4A    -15.620557     5A    -11.418494     6A    -11.381214
       7A    -11.339584     8A    -11.253812     9A    -11.223434
      10A    -11.202049    11A    -11.201948    12A    -11.200868
      13A    -11.195659    14A     -1.439272    15A     -1.402708
      16A     -1.315267    17A     -1.247756    18A     -1.105577
      19A     -1.091074    20A     -0.945654    21A     -0.933686
      22A     -0.926022    23A     -0.923239    24A     -0.902381
      25A     -0.808513    26A     -0.767892    27A     -0.741323
      28A     -0.715089    29A     -0.680825    30A     -0.673046
      31A     -0.655530    32A     -0.629370    33A     -0.619157
      34A     -0.615595    35A     -0.605889    36A     -0.604328
      37A     -0.568226    38A     -0.561001    39A     -0.545529
      40A     -0.531739    41A     -0.510739    42A     -0.503255
      43A     -0.500268    44A     -0.485716    45A     -0.456492
      46A     -0.449121    47A     -0.448388    48A     -0.444735
      49A     -0.432592    50A     -0.368046

  @DF-RHF Final Energy:  -609.00663269524512

   => Energetics <=

    Nuclear Repulsion Energy =            883.6735276756492112
    One-Electron Energy =               -2583.5166449526750512
    Two-Electron Energy =                1090.8364845817807236
    Total Energy =                       -609.0066326952451163

  Dipole Moment: [D]
     X:     2.1270      Y:     4.3551      Z:    -0.6956     Total:     4.8964

  Basis Set: (AUG-CC-PVQZ AUX)
    Blend: AUG-CC-PVQZ-RI
	 Reference Energy          =    -609.0066326952451163 [Eh]
	 Singles Energy            =      -0.0000000000000000 [Eh]
	 Same-Spin Energy          =      -0.6800100548739219 [Eh]
	 Opposite-Spin Energy      =      -2.2932865834621623 [Eh]
	 Correlation Energy        =      -2.9732966383360839 [Eh]
	 Total Energy              =    -611.9799293335812536 [Eh]

	 ================> DF-SCS-MP2 Energies <==================
	-----------------------------------------------------------
	 SCS Same-Spin Scale       =       0.3333333333333333 [-]
	 SCS Opposite-Spin Scale   =       1.2000000000000000 [-]
	 SCS Same-Spin Energy      =      -0.2266700182913073 [Eh]
	 SCS Opposite-Spin Energy  =      -2.7519439001545947 [Eh]
	 SCS Correlation Energy    =      -2.9786139184459017 [Eh]
	 SCS Total Energy          =    -611.9852466136910607 [Eh]
	-----------------------------------------------------------

*** Psi4 exiting successfully. Buy a developer a beer!
