                               Psi4 1.4a2.dev224

  ==> Input File <==

--------------------------------------------------------------------------
#Generated by lconvert.py for cbs job

memory 40 GB

molecule  {
0 1
  C        0.6664000     0.1838110     0.4197370
  H        1.2288820    -0.3298830     1.1862600
  H        1.2280360     0.6972080    -0.3476100
  C       -0.6659740     0.1829730     0.4196120
  H       -1.2279220    -0.3314990     1.1861030
  H       -1.2281840     0.6956460    -0.3477480
--
0 1
  C       -2.5327540    -0.3881460     4.0605380
  H       -2.5622470    -1.0011670     3.1593480
  H       -2.5688880    -1.0623670     4.9161550
  H       -3.4339250     0.2228700     4.0777840
  C       -1.2713170     0.4645290     4.0963560
  H       -1.2717230     1.0846230     4.9957500
  H       -1.2629290     1.1514380     3.2472960
  C       -0.0000430    -0.3730280     4.0694130
  H       -0.0001970    -1.0597010     4.9212450
  H        0.0000980    -1.0006060     3.1727700
  C        1.2711780     0.4645580     4.0968170
  H        1.2714510     1.0843690     4.9963030
  H        1.2629830     1.1516330     3.2479100
  C        2.5326290    -0.3881660     4.0609930
  H        2.5622520    -1.0010230     3.1596840
  H        3.4338070     0.2227700     4.0785710
  H        2.5685470    -1.0626220     4.9164990
units angstrom
no_reorient
symmetry c1
}

set {
scf_type DF
mp2_type DF
e_convergence 7
reference rhf
}

energy('mp2/aug-cc-pv[tq]z', bsse_type='cp')
--------------------------------------------------------------------------

    Molecular point group: c1
  Charge       = 0
  Multiplicity = 1
  Basis Set: AUG-CC-PVTZ
    Blend: AUG-CC-PVTZ
  Basis Set: (AUG-CC-PVTZ AUX)
    Blend: AUG-CC-PVTZ-JKFIT
  @DF-RHF Final Energy:  -196.40436978706936
    Total Energy =                       -196.4043697870693563
  Basis Set: (AUG-CC-PVTZ AUX)
    Blend: AUG-CC-PVTZ-RI
	 Reference Energy          =    -196.4043697870693563 [Eh]
	 Singles Energy            =      -0.0000000000000000 [Eh]
	 Same-Spin Energy          =      -0.2078895320651529 [Eh]
	 Opposite-Spin Energy      =      -0.7930678923188326 [Eh]
	 Correlation Energy        =      -1.0009574243839854 [Eh]
	 Total Energy              =    -197.4053272114533399 [Eh]
	 SCS Total Energy          =    -197.4253477685403482 [Eh]
    Molecular point group: c1
  Basis Set: AUG-CC-PVQZ
    Blend: AUG-CC-PVQZ
  Basis Set: (AUG-CC-PVQZ AUX)
    Blend: AUG-CC-PVQZ-JKFIT
  @DF-RHF Final Energy:  -196.41619222533905
    Total Energy =                       -196.4161922253390458
  Basis Set: (AUG-CC-PVQZ AUX)
  @DF-RHF Final Energy:  -196.40439879981543
    Total Energy =                       -196.4043987998154250
  @DF-RHF Final Energy:  -196.41620596857138
    Total Energy =                       -196.4162059685713757
  @DF-RHF Final Energy:   -78.06480710190000
    Total Energy =                        -78.0648071019000014
  @DF-RHF Final Energy:   -78.06946365803694
    Total Energy =                        -78.0694636580369377
  @DF-RHF Final Energy:   -78.06472254815966
    Total Energy =                        -78.0647225481596649
  @DF-RHF Final Energy:   -78.06943592683749
    Total Energy =                        -78.0694359268374853
  Multiplicity = 1
  @DF-RHF Final Energy:  -274.46542832142069
    Total Energy =                       -274.4654283214206885
	 Singles Energy            =      -0.0000000000000000 [Eh]
	 Same-Spin Energy          =      -0.2881352521991473 [Eh]
	 Opposite-Spin Energy      =      -1.0978262550676390 [Eh]
	 Correlation Energy        =      -1.3859615072667864 [Eh]
	 Total Energy              =    -275.8513898286875019 [Eh]
	 SCS Total Energy          =    -275.8788649115682574 [Eh]
    Molecular point group: c1

    Geometry (in Angstrom), charge = 0, multiplicity = 1:

       Center              X                  Y                   Z               Mass
    ------------   -----------------  -----------------  -----------------  -----------------
         C            0.666385325165     0.171667716463    -2.632877062290    12.000000000000
         H            1.228867325165    -0.342026283537    -1.866354062290     1.007825032230
         H            1.228021325165     0.685064716463    -3.400224062290     1.007825032230
         C           -0.665988674835     0.170829716463    -2.633002062290    12.000000000000
         H           -1.227936674835    -0.343642283537    -1.866511062290     1.007825032230
         H           -1.228198674835     0.683502716463    -3.400362062290     1.007825032230
         C           -2.532768674835    -0.400289283537     1.007923937710    12.000000000000
         H           -2.562261674835    -1.013310283537     0.106733937710     1.007825032230
         H           -2.568902674835    -1.074510283537     1.863540937710     1.007825032230
         H           -3.433939674835     0.210726716463     1.025169937710     1.007825032230
         C           -1.271331674835     0.452385716463     1.043741937710    12.000000000000
         H           -1.271737674835     1.072479716463     1.943135937710     1.007825032230
         H           -1.262943674835     1.139294716463     0.194681937710     1.007825032230
         C           -0.000057674835    -0.385171283537     1.016798937710    12.000000000000
         H           -0.000211674835    -1.071844283537     1.868630937710     1.007825032230
         H            0.000083325165    -1.012749283537     0.120155937710     1.007825032230
         C            1.271163325165     0.452414716463     1.044202937710    12.000000000000
         H            1.271436325165     1.072225716463     1.943688937710     1.007825032230
         H            1.262968325165     1.139489716463     0.195295937710     1.007825032230
         C            2.532614325165    -0.400309283537     1.008378937710    12.000000000000
         H            2.562237325165    -1.013166283537     0.107069937710     1.007825032230
         H            3.433792325165     0.210626716463     1.025956937710     1.007825032230
         H            2.568532325165    -1.074765283537     1.863884937710     1.007825032230

  Charge       = 0
  Multiplicity = 1
  Basis Set: AUG-CC-PVQZ
    Blend: AUG-CC-PVQZ
  Basis Set: (AUG-CC-PVQZ AUX)
    Blend: AUG-CC-PVQZ-JKFIT

    Orbital Energies [Eh]
    ---------------------

    Doubly Occupied:

       1A    -11.229692     2A    -11.227965     3A    -11.210698
       4A    -11.210547     5A    -11.209317     6A    -11.207333
       7A    -11.207326     8A     -1.081652     9A     -1.034878
      10A     -1.015927    11A     -0.919835    12A     -0.820370
      13A     -0.794217    14A     -0.785375    15A     -0.660220
      16A     -0.634456    17A     -0.599203    18A     -0.594754
      19A     -0.587478    20A     -0.554692    21A     -0.548727
      22A     -0.527110    23A     -0.508964    24A     -0.494614
      25A     -0.476662    26A     -0.462021    27A     -0.460121
      28A     -0.447172    29A     -0.377109

  @DF-RHF Final Energy:  -274.48189877145052

   => Energetics <=

    Nuclear Repulsion Energy =            305.2366644908306057
    One-Electron Energy =                -973.6602555446926317
    Two-Electron Energy =                 393.9416922824115659
    Total Energy =                       -274.4818987714505170

  Dipole Moment: [D]
     X:    -0.0000      Y:     0.2017      Z:     0.0583     Total:     0.2099

  Basis Set: (AUG-CC-PVQZ AUX)
    Blend: AUG-CC-PVQZ-RI
	 Reference Energy          =    -274.4818987714505170 [Eh]
	 Singles Energy            =      -0.0000000000000000 [Eh]
	 Same-Spin Energy          =      -0.3046070484119178 [Eh]
	 Opposite-Spin Energy      =      -1.2169881655411656 [Eh]
	 Correlation Energy        =      -1.5215952139530835 [Eh]
	 Total Energy              =    -276.0034939854036224 [Eh]

	 ================> DF-SCS-MP2 Energies <==================
	-----------------------------------------------------------
	 SCS Same-Spin Scale       =       0.3333333333333333 [-]
	 SCS Opposite-Spin Scale   =       1.2000000000000000 [-]
	 SCS Same-Spin Energy      =      -0.1015356828039726 [Eh]
	 SCS Opposite-Spin Energy  =      -1.4603857986493987 [Eh]
	 SCS Correlation Energy    =      -1.5619214814533713 [Eh]
	 SCS Total Energy          =    -276.0438202529039131 [Eh]
	-----------------------------------------------------------

*** Psi4 exiting successfully. Buy a developer a beer!
