                               Psi4 1.4a2.dev224

  ==> Input File <==

--------------------------------------------------------------------------
#Generated by lconvert.py for cbs job

memory 40 GB

molecule  {
0 1
  C        0.6664000     0.1838110     0.4197370
  H        1.2288820    -0.3298830     1.1862600
  H        1.2280360     0.6972080    -0.3476100
  C       -0.6659740     0.1829730     0.4196120
  H       -1.2279220    -0.3314990     1.1861030
  H       -1.2281840     0.6956460    -0.3477480
--
0 1
  C       -2.5326910    -0.3336470     3.2221980
  H       -2.5621840    -0.9466670     2.3210080
  H       -2.5688250    -1.0078670     4.0778150
  H       -3.4338620     0.2773700     3.2394440
  C       -1.2712540     0.5190290     3.2580160
  H       -1.2716600     1.1391220     4.1574100
  H       -1.2628660     1.2059370     2.4089560
  C        0.0000200    -0.3185290     3.2310730
  H       -0.0001340    -1.0052010     4.0829050
  H        0.0001610    -0.9461070     2.3344300
  C        1.2712400     0.5190580     3.2584770
  H        1.2715130     1.1388680     4.1579630
  H        1.2630450     1.2061320     2.4095700
  C        2.5326920    -0.3336670     3.2226530
  H        2.5623150    -0.9465230     2.3213440
  H        3.4338700     0.2772690     3.2402310
  H        2.5686100    -1.0081230     4.0781590
units angstrom
no_reorient
symmetry c1
}

set {
scf_type DF
mp2_type DF
e_convergence 7
reference rhf
}

energy('mp2/aug-cc-pv[tq]z', bsse_type='cp')
--------------------------------------------------------------------------

    Molecular point group: c1
  Charge       = 0
  Multiplicity = 1
  Basis Set: AUG-CC-PVTZ
    Blend: AUG-CC-PVTZ
  Basis Set: (AUG-CC-PVTZ AUX)
    Blend: AUG-CC-PVTZ-JKFIT
  @DF-RHF Final Energy:  -196.40436981125100
    Total Energy =                       -196.4043698112510015
  Basis Set: (AUG-CC-PVTZ AUX)
    Blend: AUG-CC-PVTZ-RI
	 Reference Energy          =    -196.4043698112510015 [Eh]
	 Singles Energy            =      -0.0000000000000000 [Eh]
	 Same-Spin Energy          =      -0.2078895222176751 [Eh]
	 Opposite-Spin Energy      =      -0.7930678760904653 [Eh]
	 Correlation Energy        =      -1.0009573983081403 [Eh]
	 Total Energy              =    -197.4053272095591467 [Eh]
	 SCS Total Energy          =    -197.4253477699654411 [Eh]
    Molecular point group: c1
  Basis Set: AUG-CC-PVQZ
    Blend: AUG-CC-PVQZ
  Basis Set: (AUG-CC-PVQZ AUX)
    Blend: AUG-CC-PVQZ-JKFIT
  @DF-RHF Final Energy:  -196.41619224854261
    Total Energy =                       -196.4161922485426146
  Basis Set: (AUG-CC-PVQZ AUX)
  @DF-RHF Final Energy:  -196.40444948758591
    Total Energy =                       -196.4044494875859073
  @DF-RHF Final Energy:  -196.41621945008961
    Total Energy =                       -196.4162194500896135
  @DF-RHF Final Energy:   -78.06489917328895
    Total Energy =                        -78.0648991732889499
  @DF-RHF Final Energy:   -78.06948607359810
    Total Energy =                        -78.0694860735980996
  @DF-RHF Final Energy:   -78.06472254822188
    Total Energy =                        -78.0647225482218801
  @DF-RHF Final Energy:   -78.06943592667312
    Total Energy =                        -78.0694359266731226
  @DF-RHF Final Energy:  -274.42434656693564
    Total Energy =                       -274.4243465669356397
  @DF-RHF Final Energy:  -274.44075426865942
    Total Energy =                       -274.4407542686594184
*** Psi4 exiting successfully. Buy a developer a beer!
                               Psi4 1.4a2.dev224
  @DF-RHF Final Energy:  -196.40436980136116
    Total Energy =                       -196.4043698013611561
  @DF-RHF Final Energy:  -196.41619223639771
    Total Energy =                       -196.4161922363977055
  @DF-RHF Final Energy:  -196.40442334102352
    Total Energy =                       -196.4044233410235165
  @DF-RHF Final Energy:  -196.41621232571723
    Total Energy =                       -196.4162123257172254
  @DF-RHF Final Energy:   -78.06485160563822
    Total Energy =                        -78.0648516056382249
  @DF-RHF Final Energy:   -78.06947513774071
    Total Energy =                        -78.0694751377407101
  @DF-RHF Final Energy:   -78.06472254822098
    Total Energy =                        -78.0647225482209848
  @DF-RHF Final Energy:   -78.06943592672381
    Total Energy =                        -78.0694359267238269
  @DF-RHF Final Energy:  -274.45315968608264
    Total Energy =                       -274.4531596860826426
  @DF-RHF Final Energy:  -274.46959445240009
    Total Energy =                       -274.4695944524000879
*** Psi4 exiting successfully. Buy a developer a beer!
                               Psi4 1.4a2.dev224
                               Psi4 1.4a2.dev224
                               Psi4 1.4a2.dev224
                               Psi4 1.4a2.dev224
                               Psi4 1.4a2.dev224
                               Psi4 1.4a2.dev224
                               Psi4 1.4a2.dev224
  @DF-RHF Final Energy:  -196.40436974214089
    Total Energy =                       -196.4043697421408865
  @DF-RHF Final Energy:  -196.41619218166954
    Total Energy =                       -196.4161921816695440
  @DF-RHF Final Energy:  -196.40437391765485
    Total Energy =                       -196.4043739176548513
  @DF-RHF Final Energy:  -196.41619457886452
    Total Energy =                       -196.4161945788645198
  @DF-RHF Final Energy:   -78.06473661163891
    Total Energy =                        -78.0647366116389065
  @DF-RHF Final Energy:   -78.06944048871158
    Total Energy =                        -78.0694404887115780
  @DF-RHF Final Energy:   -78.06472268906930
    Total Energy =                        -78.0647226890692991
  @DF-RHF Final Energy:   -78.06943607366193
    Total Energy =                        -78.0694360736619331
  @DF-RHF Final Energy:  -274.46911294596640
    Total Energy =                       -274.4691129459664012
  @DF-RHF Final Energy:  -274.48563749646297
    Total Energy =                       -274.4856374964629708
*** Psi4 exiting successfully. Buy a developer a beer!
                               Psi4 1.4a2.dev224
  @DF-RHF Final Energy:  -196.40436986144667
    Total Energy =                       -196.4043698614466678
  @DF-RHF Final Energy:  -196.41619230222645
    Total Energy =                       -196.4161923022264489
  @DF-RHF Final Energy:  -196.40437150250975
    Total Energy =                       -196.4043715025097470
  @DF-RHF Final Energy:  -196.41619317549583
    Total Energy =                       -196.4161931754958346
  @DF-RHF Final Energy:   -78.06472807592549
    Total Energy =                        -78.0647280759254727
  @DF-RHF Final Energy:   -78.06943846062575
    Total Energy =                        -78.0694384606257472
  @DF-RHF Final Energy:   -78.06472268903180
    Total Energy =                        -78.0647226890317967
  @DF-RHF Final Energy:   -78.06943607386458
    Total Energy =                        -78.0694360738645798
  Multiplicity = 1
  @DF-RHF Final Energy:  -274.46910123147319
    Total Energy =                       -274.4691012314731893
	 Singles Energy            =      -0.0000000000000000 [Eh]
	 Same-Spin Energy          =      -0.2845259630988649 [Eh]
	 Opposite-Spin Energy      =      -1.0918334304144888 [Eh]
	 Correlation Energy        =      -1.3763593935133536 [Eh]
	 Total Energy              =    -275.8454606249865151 [Eh]
	 SCS Total Energy          =    -275.8741433356701691 [Eh]
    Molecular point group: c1

    Geometry (in Angstrom), charge = 0, multiplicity = 1:

       Center              X                  Y                   Z               Mass
    ------------   -----------------  -----------------  -----------------  -----------------
         C            0.666563925603     0.326792906588    -5.019098961051    12.000000000000
         H            1.229043925603    -0.186897093412    -4.252578961051     1.007825032230
         H            1.228203925603     0.840192906588    -5.786448961051     1.007825032230
         C           -0.665806074397     0.325952906588    -5.019228961051    12.000000000000
         H           -1.227756074397    -0.188517093412    -4.252738961051     1.007825032230
         H           -1.228016074397     0.838632906588    -5.786588961051     1.007825032230
         C           -2.532836074397    -0.460607093412     1.935731038949    12.000000000000
         H           -2.562336074397    -1.073627093412     1.034541038949     1.007825032230
         H           -2.568976074397    -1.134827093412     2.791341038949     1.007825032230
         H           -3.434006074397     0.150412906588     1.952971038949     1.007825032230
         C           -1.271406074397     0.392072906588     1.971541038949    12.000000000000
         H           -1.271806074397     1.012162906588     2.870941038949     1.007825032230
         H           -1.263016074397     1.078982906588     1.122481038949     1.007825032230
         C           -0.000126074397    -0.445487093412     1.944601038949    12.000000000000
         H           -0.000286074397    -1.132157093412     2.796431038949     1.007825032230
         H            0.000013925603    -1.073067093412     1.047961038949     1.007825032230
         C            1.271093925603     0.392102906588     1.972011038949    12.000000000000
         H            1.271363925603     1.011912906588     2.871491038949     1.007825032230
         H            1.262893925603     1.079172906588     1.123101038949     1.007825032230
         C            2.532543925603    -0.460627093412     1.936181038949    12.000000000000
         H            2.562163925603    -1.073477093412     1.034871038949     1.007825032230
         H            3.433723925603     0.150312906588     1.953761038949     1.007825032230
         H            2.568463925603    -1.135077093412     2.791691038949     1.007825032230

  Charge       = 0
  Multiplicity = 1
  Basis Set: AUG-CC-PVQZ
    Blend: AUG-CC-PVQZ
  Basis Set: (AUG-CC-PVQZ AUX)
    Blend: AUG-CC-PVQZ-JKFIT

    Orbital Energies [Eh]
    ---------------------

    Doubly Occupied:

       1A    -11.230574     2A    -11.228848     3A    -11.211493
       4A    -11.211417     5A    -11.209142     6A    -11.206203
       7A    -11.206197     8A     -1.081107     9A     -1.034936
      10A     -1.015192    11A     -0.918886    12A     -0.819910
      13A     -0.793870    14A     -0.785096    15A     -0.647522
      16A     -0.645484    17A     -0.598482    18A     -0.592961
      19A     -0.588347    20A     -0.554268    21A     -0.547670
      22A     -0.525610    23A     -0.509218    24A     -0.494905
      25A     -0.476177    26A     -0.462112    27A     -0.459450
      28A     -0.446801    29A     -0.377756

  @DF-RHF Final Energy:  -274.48563333827940

   => Energetics <=

    Nuclear Repulsion Energy =            268.0532904606075704
    One-Electron Energy =                -899.3185778427352943
    Two-Electron Energy =                 356.7796540438483817
    Total Energy =                       -274.4856333382793991

  Dipole Moment: [D]
     X:    -0.0000      Y:     0.0963      Z:     0.0024     Total:     0.0963

  Basis Set: (AUG-CC-PVQZ AUX)
    Blend: AUG-CC-PVQZ-RI
	 Reference Energy          =    -274.4856333382793991 [Eh]
	 Singles Energy            =      -0.0000000000000000 [Eh]
	 Same-Spin Energy          =      -0.3011162004130210 [Eh]
	 Opposite-Spin Energy      =      -1.2124564585823490 [Eh]
	 Correlation Energy        =      -1.5135726589953700 [Eh]
	 Total Energy              =    -275.9992059972747711 [Eh]

	 ================> DF-SCS-MP2 Energies <==================
	-----------------------------------------------------------
	 SCS Same-Spin Scale       =       0.3333333333333333 [-]
	 SCS Opposite-Spin Scale   =       1.2000000000000000 [-]
	 SCS Same-Spin Energy      =      -0.1003720668043403 [Eh]
	 SCS Opposite-Spin Energy  =      -1.4549477502988186 [Eh]
	 SCS Correlation Energy    =      -1.5553198171031590 [Eh]
	 SCS Total Energy          =    -276.0409531553825673 [Eh]
	-----------------------------------------------------------

*** Psi4 exiting successfully. Buy a developer a beer!
