                               Psi4 1.4a2.dev224

  ==> Input File <==

--------------------------------------------------------------------------
#Generated by lconvert.py for cbs job

memory 40 GB

molecule  {
0 1
  C        0.6664000     0.1838110     0.4197370
  H        1.2288820    -0.3298830     1.1862600
  H        1.2280360     0.6972080    -0.3476100
  C       -0.6659740     0.1829730     0.4196120
  H       -1.2279220    -0.3314990     1.1861030
  H       -1.2281840     0.6956460    -0.3477480
--
0 1
  C       -2.5327760    -0.4076430     4.3604520
  H       -2.5622690    -1.0206640     3.4592620
  H       -2.5689100    -1.0818640     5.2160690
  H       -3.4339470     0.2033730     4.3776980
  C       -1.2713400     0.4450320     4.3962700
  H       -1.2717450     1.0651260     5.2956640
  H       -1.2629510     1.1319400     3.5472090
  C       -0.0000650    -0.3925250     4.3693270
  H       -0.0002190    -1.0791980     5.2211590
  H        0.0000760    -1.0201030     3.4726840
  C        1.2711550     0.4450610     4.3967310
  H        1.2714280     1.0648720     5.2962170
  H        1.2629600     1.1321360     3.5478240
  C        2.5326060    -0.4076640     4.3609070
  H        2.5622300    -1.0205200     3.4595980
  H        3.4337850     0.2032730     4.3784850
  H        2.5685250    -1.0821200     5.2164130
units angstrom
no_reorient
symmetry c1
}

set {
scf_type DF
mp2_type DF
e_convergence 7
reference rhf
}

energy('mp2/aug-cc-pv[tq]z', bsse_type='cp')
--------------------------------------------------------------------------

    Molecular point group: c1
  Charge       = 0
  Multiplicity = 1
  Basis Set: AUG-CC-PVTZ
    Blend: AUG-CC-PVTZ
  Basis Set: (AUG-CC-PVTZ AUX)
    Blend: AUG-CC-PVTZ-JKFIT
  @DF-RHF Final Energy:  -196.40436977576178
    Total Energy =                       -196.4043697757617792
  Basis Set: (AUG-CC-PVTZ AUX)
    Blend: AUG-CC-PVTZ-RI
	 Reference Energy          =    -196.4043697757617792 [Eh]
	 Singles Energy            =      -0.0000000000000000 [Eh]
	 Same-Spin Energy          =      -0.2078895352271414 [Eh]
	 Opposite-Spin Energy      =      -0.7930679009010939 [Eh]
	 Correlation Energy        =      -1.0009574361282354 [Eh]
	 Total Energy              =    -197.4053272118900111 [Eh]
	 SCS Total Energy          =    -197.4253477685854818 [Eh]
    Molecular point group: c1
  Basis Set: AUG-CC-PVQZ
    Blend: AUG-CC-PVQZ
  Basis Set: (AUG-CC-PVQZ AUX)
    Blend: AUG-CC-PVQZ-JKFIT
  @DF-RHF Final Energy:  -196.41619220980223
    Total Energy =                       -196.4161922098022330
  Basis Set: (AUG-CC-PVQZ AUX)
  @DF-RHF Final Energy:  -196.40439196622270
    Total Energy =                       -196.4043919662227040
  @DF-RHF Final Energy:  -196.41620191694187
    Total Energy =                       -196.4162019169418727
  @DF-RHF Final Energy:   -78.06478807687887
    Total Energy =                        -78.0647880768788696
  @DF-RHF Final Energy:   -78.06945734755271
    Total Energy =                        -78.0694573475527136
  @DF-RHF Final Energy:   -78.06472254826301
    Total Energy =                        -78.0647225482630063
  @DF-RHF Final Energy:   -78.06943592674362
    Total Energy =                        -78.0694359267436226
  Multiplicity = 1
  @DF-RHF Final Energy:  -274.46771416948422
    Total Energy =                       -274.4677141694842248
	 Singles Energy            =      -0.0000000000000000 [Eh]
	 Same-Spin Energy          =      -0.2868475243210938 [Eh]
	 Opposite-Spin Energy      =      -1.0958576810425638 [Eh]
	 Correlation Energy        =      -1.3827052053636575 [Eh]
	 Total Energy              =    -275.8504193748478883 [Eh]
	 SCS Total Energy          =    -275.8783592281756682 [Eh]
    Molecular point group: c1

    Geometry (in Angstrom), charge = 0, multiplicity = 1:

       Center              X                  Y                   Z               Mass
    ------------   -----------------  -----------------  -----------------  -----------------
         C            0.666401545671     0.185706427839    -2.848826382954    12.000000000000
         H            1.228883545671    -0.327987572161    -2.082303382954     1.007825032230
         H            1.228037545671     0.699103427839    -3.616173382954     1.007825032230
         C           -0.665972454329     0.184868427839    -2.848951382954    12.000000000000
         H           -1.227920454329    -0.329603572161    -2.082460382954     1.007825032230
         H           -1.228182454329     0.697541427839    -3.616311382954     1.007825032230
         C           -2.532774454329    -0.405747572161     1.091888617046    12.000000000000
         H           -2.562267454329    -1.018768572161     0.190698617046     1.007825032230
         H           -2.568908454329    -1.079968572161     1.947505617046     1.007825032230
         H           -3.433945454329     0.205268427839     1.109134617046     1.007825032230
         C           -1.271338454329     0.446927427839     1.127706617046    12.000000000000
         H           -1.271743454329     1.067021427839     2.027100617046     1.007825032230
         H           -1.262949454329     1.133835427839     0.278645617046     1.007825032230
         C           -0.000063454329    -0.390629572161     1.100763617046    12.000000000000
         H           -0.000217454329    -1.077302572161     1.952595617046     1.007825032230
         H            0.000077545671    -1.018207572161     0.204120617046     1.007825032230
         C            1.271156545671     0.446956427839     1.128167617046    12.000000000000
         H            1.271429545671     1.066767427839     2.027653617046     1.007825032230
         H            1.262961545671     1.134031427839     0.279260617046     1.007825032230
         C            2.532607545671    -0.405768572161     1.092343617046    12.000000000000
         H            2.562231545671    -1.018624572161     0.191034617046     1.007825032230
         H            3.433786545671     0.205168427839     1.109921617046     1.007825032230
         H            2.568526545671    -1.080224572161     1.947849617046     1.007825032230

  Charge       = 0
  Multiplicity = 1
  Basis Set: AUG-CC-PVQZ
    Blend: AUG-CC-PVQZ
  Basis Set: (AUG-CC-PVQZ AUX)
    Blend: AUG-CC-PVQZ-JKFIT

    Orbital Energies [Eh]
    ---------------------

    Doubly Occupied:

       1A    -11.230538     2A    -11.228812     3A    -11.210955
       4A    -11.210826     5A    -11.209404     6A    -11.207053
       7A    -11.207047     8A     -1.081339     9A     -1.035281
      10A     -1.015643    11A     -0.919552    12A     -0.820183
      13A     -0.794349    14A     -0.785216    15A     -0.654989
      16A     -0.639165    17A     -0.598934    18A     -0.593911
      19A     -0.588347    20A     -0.554567    21A     -0.548427
      22A     -0.526644    23A     -0.509557    24A     -0.494855
      25A     -0.476437    26A     -0.462114    27A     -0.459718
      28A     -0.447074    29A     -0.377904

  @DF-RHF Final Energy:  -274.48419617498286

   => Energetics <=

    Nuclear Repulsion Energy =            299.8566397953131855
    One-Electron Energy =                -962.9039905905361820
    Two-Electron Energy =                 388.5631546202401410
    Total Energy =                       -274.4841961749828556

  Dipole Moment: [D]
     X:    -0.0000      Y:     0.1802      Z:     0.0324     Total:     0.1831

  Basis Set: (AUG-CC-PVQZ AUX)
    Blend: AUG-CC-PVQZ-RI
	 Reference Energy          =    -274.4841961749828556 [Eh]
	 Singles Energy            =      -0.0000000000000000 [Eh]
	 Same-Spin Energy          =      -0.3033380421635380 [Eh]
	 Opposite-Spin Energy      =      -1.2153905150608160 [Eh]
	 Correlation Energy        =      -1.5187285572243541 [Eh]
	 Total Energy              =    -276.0029247322071910 [Eh]

	 ================> DF-SCS-MP2 Energies <==================
	-----------------------------------------------------------
	 SCS Same-Spin Scale       =       0.3333333333333333 [-]
	 SCS Opposite-Spin Scale   =       1.2000000000000000 [-]
	 SCS Same-Spin Energy      =      -0.1011126807211793 [Eh]
	 SCS Opposite-Spin Energy  =      -1.4584686180729791 [Eh]
	 SCS Correlation Energy    =      -1.5595812987941584 [Eh]
	 SCS Total Energy          =    -276.0437774737770269 [Eh]
	-----------------------------------------------------------

*** Psi4 exiting successfully. Buy a developer a beer!
