                               Psi4 1.4a2.dev224

  ==> Input File <==

--------------------------------------------------------------------------
#Generated by lconvert.py for cbs job

memory 40 GB

molecule  {
0 1
  C        0.6664000     0.1838110     0.4197370
  H        1.2288820    -0.3298830     1.1862600
  H        1.2280360     0.6972080    -0.3476100
  C       -0.6659740     0.1829730     0.4196120
  H       -1.2279220    -0.3314990     1.1861030
  H       -1.2281840     0.6956460    -0.3477480
--
0 1
  C       -2.5326910    -0.3336470     3.2221980
  H       -2.5621840    -0.9466670     2.3210080
  H       -2.5688250    -1.0078670     4.0778150
  H       -3.4338620     0.2773700     3.2394440
  C       -1.2712540     0.5190290     3.2580160
  H       -1.2716600     1.1391220     4.1574100
  H       -1.2628660     1.2059370     2.4089560
  C        0.0000200    -0.3185290     3.2310730
  H       -0.0001340    -1.0052010     4.0829050
  H        0.0001610    -0.9461070     2.3344300
  C        1.2712400     0.5190580     3.2584770
  H        1.2715130     1.1388680     4.1579630
  H        1.2630450     1.2061320     2.4095700
  C        2.5326920    -0.3336670     3.2226530
  H        2.5623150    -0.9465230     2.3213440
  H        3.4338700     0.2772690     3.2402310
  H        2.5686100    -1.0081230     4.0781590
units angstrom
no_reorient
symmetry c1
}

set {
scf_type DF
mp2_type DF
e_convergence 7
reference rhf
}

energy('mp2/aug-cc-pv[tq]z', bsse_type='cp')
--------------------------------------------------------------------------

    Molecular point group: c1
  Charge       = 0
  Multiplicity = 1
  Basis Set: AUG-CC-PVTZ
    Blend: AUG-CC-PVTZ
  Basis Set: (AUG-CC-PVTZ AUX)
    Blend: AUG-CC-PVTZ-JKFIT
  @DF-RHF Final Energy:  -196.40436981125100
    Total Energy =                       -196.4043698112510015
  Basis Set: (AUG-CC-PVTZ AUX)
    Blend: AUG-CC-PVTZ-RI
	 Reference Energy          =    -196.4043698112510015 [Eh]
	 Singles Energy            =      -0.0000000000000000 [Eh]
	 Same-Spin Energy          =      -0.2078895222176751 [Eh]
	 Opposite-Spin Energy      =      -0.7930678760904653 [Eh]
	 Correlation Energy        =      -1.0009573983081403 [Eh]
	 Total Energy              =    -197.4053272095591467 [Eh]
	 SCS Total Energy          =    -197.4253477699654411 [Eh]
    Molecular point group: c1
  Basis Set: AUG-CC-PVQZ
    Blend: AUG-CC-PVQZ
  Basis Set: (AUG-CC-PVQZ AUX)
    Blend: AUG-CC-PVQZ-JKFIT
  @DF-RHF Final Energy:  -196.41619224854261
    Total Energy =                       -196.4161922485426146
  Basis Set: (AUG-CC-PVQZ AUX)
  @DF-RHF Final Energy:  -196.40444948758591
    Total Energy =                       -196.4044494875859073
  @DF-RHF Final Energy:  -196.41621945008961
    Total Energy =                       -196.4162194500896135
  @DF-RHF Final Energy:   -78.06489917328895
    Total Energy =                        -78.0648991732889499
  @DF-RHF Final Energy:   -78.06948607359810
    Total Energy =                        -78.0694860735980996
  @DF-RHF Final Energy:   -78.06472254822188
    Total Energy =                        -78.0647225482218801
  @DF-RHF Final Energy:   -78.06943592667312
    Total Energy =                        -78.0694359266731226
  Multiplicity = 1
  @DF-RHF Final Energy:  -274.42434656693564
    Total Energy =                       -274.4243465669356397
	 Singles Energy            =      -0.0000000000000000 [Eh]
	 Same-Spin Energy          =      -0.2972709358656990 [Eh]
	 Opposite-Spin Energy      =      -1.1101316794315974 [Eh]
	 Correlation Energy        =      -1.4074026152972965 [Eh]
	 Total Energy              =    -275.8317491822329544 [Eh]
	 SCS Total Energy          =    -275.8555948942087639 [Eh]
    Molecular point group: c1

    Geometry (in Angstrom), charge = 0, multiplicity = 1:

       Center              X                  Y                   Z               Mass
    ------------   -----------------  -----------------  -----------------  -----------------
         C            0.666340102783     0.132426102003    -2.029240813484    12.000000000000
         H            1.228822102783    -0.381267897997    -1.262717813484     1.007825032230
         H            1.227976102783     0.645823102003    -2.796587813484     1.007825032230
         C           -0.666033897217     0.131588102003    -2.029365813484    12.000000000000
         H           -1.227981897217    -0.382883897997    -1.262874813484     1.007825032230
         H           -1.228243897217     0.644261102003    -2.796725813484     1.007825032230
         C           -2.532750897217    -0.385031897997     0.773220186516    12.000000000000
         H           -2.562243897217    -0.998051897997    -0.127969813484     1.007825032230
         H           -2.568884897217    -1.059251897997     1.628837186516     1.007825032230
         H           -3.433921897217     0.225985102003     0.790466186516     1.007825032230
         C           -1.271313897217     0.467644102003     0.809038186516    12.000000000000
         H           -1.271719897217     1.087737102003     1.708432186516     1.007825032230
         H           -1.262925897217     1.154552102003    -0.040021813484     1.007825032230
         C           -0.000039897217    -0.369913897997     0.782095186516    12.000000000000
         H           -0.000193897217    -1.056585897997     1.633927186516     1.007825032230
         H            0.000101102783    -0.997491897997    -0.114547813484     1.007825032230
         C            1.271180102783     0.467673102003     0.809499186516    12.000000000000
         H            1.271453102783     1.087483102003     1.708985186516     1.007825032230
         H            1.262985102783     1.154747102003    -0.039407813484     1.007825032230
         C            2.532632102783    -0.385051897997     0.773675186516    12.000000000000
         H            2.562255102783    -0.997907897997    -0.127633813484     1.007825032230
         H            3.433810102783     0.225884102003     0.791253186516     1.007825032230
         H            2.568550102783    -1.059507897997     1.629181186516     1.007825032230

  Charge       = 0
  Multiplicity = 1
  Basis Set: AUG-CC-PVQZ
    Blend: AUG-CC-PVQZ
  Basis Set: (AUG-CC-PVQZ AUX)
    Blend: AUG-CC-PVQZ-JKFIT

    Orbital Energies [Eh]
    ---------------------

    Doubly Occupied:

       1A    -11.219531     2A    -11.217800     3A    -11.209633
       4A    -11.209587     5A    -11.209007     6A    -11.208962
       7A    -11.207255     8A     -1.090467     9A     -1.028713
      10A     -1.020405    11A     -0.922424    12A     -0.824393
      13A     -0.793148    14A     -0.788742    15A     -0.691773
      16A     -0.610271    17A     -0.606376    18A     -0.599094
      19A     -0.574857    20A     -0.555857    21A     -0.550075
      22A     -0.529485    23A     -0.500536    24A     -0.492239
      25A     -0.478557    26A     -0.466649    27A     -0.460209
      28A     -0.448489    29A     -0.365204

  @DF-RHF Final Energy:  -274.44075426865942

   => Energetics <=

    Nuclear Repulsion Energy =            324.4096538080287928
    One-Electron Energy =               -1011.9413471276099017
    Two-Electron Energy =                 413.0909390509216905
    Total Energy =                       -274.4407542686594184

  Dipole Moment: [D]
     X:    -0.0001      Y:     0.2608      Z:     0.2812     Total:     0.3836

  Basis Set: (AUG-CC-PVQZ AUX)
    Blend: AUG-CC-PVQZ-RI
	 Reference Energy          =    -274.4407542686594184 [Eh]
	 Singles Energy            =      -0.0000000000000000 [Eh]
	 Same-Spin Energy          =      -0.3137547235112677 [Eh]
	 Opposite-Spin Energy      =      -1.2282335473506754 [Eh]
	 Correlation Energy        =      -1.5419882708619430 [Eh]
	 Total Energy              =    -275.9827425395213822 [Eh]

	 ================> DF-SCS-MP2 Energies <==================
	-----------------------------------------------------------
	 SCS Same-Spin Scale       =       0.3333333333333333 [-]
	 SCS Opposite-Spin Scale   =       1.2000000000000000 [-]
	 SCS Same-Spin Energy      =      -0.1045849078370892 [Eh]
	 SCS Opposite-Spin Energy  =      -1.4738802568208105 [Eh]
	 SCS Correlation Energy    =      -1.5784651646578998 [Eh]
	 SCS Total Energy          =    -276.0192194333173461 [Eh]
	-----------------------------------------------------------

*** Psi4 exiting successfully. Buy a developer a beer!
