                               Psi4 1.4a2.dev224

  ==> Input File <==

--------------------------------------------------------------------------
#Generated by lconvert.py for cbs job

memory 20 GB

molecule  {
0 1
  C       0.666400    0.183810    0.419740
  H       1.228880   -0.329880    1.186260
  H       1.228040    0.697210   -0.347610
  C      -0.665970    0.182970    0.419610
  H      -1.227920   -0.331500    1.186100
  H      -1.228180    0.695650   -0.347750
--
0 1
  C      -2.532920   -0.533670    6.299090
  H      -2.562420   -1.146690    5.397900
  H      -2.569060   -1.207890    7.154710
  H      -3.434090    0.077340    6.316340
  C      -1.271490    0.319000    6.334910
  H      -1.271890    0.939100    7.234310
  H      -1.263100    1.005910    5.485850
  C      -0.000210   -0.518550    6.307970
  H      -0.000360   -1.205230    7.159800
  H      -0.000070   -1.146130    5.411330
  C       1.271010    0.319030    6.335370
  H       1.271280    0.938840    7.234860
  H       1.262810    1.006110    5.486470
  C       2.532460   -0.533690    6.299550
  H       2.562080   -1.146550    5.398240
  H       3.433640    0.077240    6.317130
  H       2.568380   -1.208150    7.155050
units angstrom
no_reorient
symmetry c1
}

set {
scf_type DF
mp2_type DF
e_convergence 7
reference rhf
}

energy('mp2/aug-cc-pv[tq]z', bsse_type='cp')
--------------------------------------------------------------------------

    Molecular point group: c1
  Charge       = 0
  Multiplicity = 1
  Basis Set: AUG-CC-PVTZ
    Blend: AUG-CC-PVTZ
  Basis Set: (AUG-CC-PVTZ AUX)
    Blend: AUG-CC-PVTZ-JKFIT
  @DF-RHF Final Energy:  -196.40436974214089
    Total Energy =                       -196.4043697421408865
  Basis Set: (AUG-CC-PVTZ AUX)
    Blend: AUG-CC-PVTZ-RI
	 Reference Energy          =    -196.4043697421408865 [Eh]
	 Singles Energy            =      -0.0000000000000000 [Eh]
	 Same-Spin Energy          =      -0.2078896217070164 [Eh]
	 Opposite-Spin Energy      =      -0.7930678998422760 [Eh]
	 Correlation Energy        =      -1.0009575215492923 [Eh]
	 Total Energy              =    -197.4053272636901681 [Eh]
	 SCS Total Energy          =    -197.4253477625206301 [Eh]
    Molecular point group: c1
  Basis Set: AUG-CC-PVQZ
    Blend: AUG-CC-PVQZ
  Basis Set: (AUG-CC-PVQZ AUX)
    Blend: AUG-CC-PVQZ-JKFIT
  @DF-RHF Final Energy:  -196.41619218166954
    Total Energy =                       -196.4161921816695440
  Basis Set: (AUG-CC-PVQZ AUX)
  @DF-RHF Final Energy:  -196.40437391765485
    Total Energy =                       -196.4043739176548513
  @DF-RHF Final Energy:  -196.41619457886452
    Total Energy =                       -196.4161945788645198
  @DF-RHF Final Energy:   -78.06473661163891
    Total Energy =                        -78.0647366116389065
  @DF-RHF Final Energy:   -78.06944048871158
    Total Energy =                        -78.0694404887115780
  @DF-RHF Final Energy:   -78.06472268906930
    Total Energy =                        -78.0647226890692991
  @DF-RHF Final Energy:   -78.06943607366193
    Total Energy =                        -78.0694360736619331
  Multiplicity = 1
  @DF-RHF Final Energy:  -274.46911294596640
    Total Energy =                       -274.4691129459664012
	 Singles Energy            =      -0.0000000000000000 [Eh]
	 Same-Spin Energy          =      -0.2846690726744043 [Eh]
	 Opposite-Spin Energy      =      -1.0921797138244103 [Eh]
	 Correlation Energy        =      -1.3768487864988146 [Eh]
	 Total Energy              =    -275.8459617324652413 [Eh]
	 SCS Total Energy          =    -275.8746182934471562 [Eh]
    Molecular point group: c1

    Geometry (in Angstrom), charge = 0, multiplicity = 1:

       Center              X                  Y                   Z               Mass
    ------------   -----------------  -----------------  -----------------  -----------------
         C            0.666506221945     0.276450985260    -4.244717618431    12.000000000000
         H            1.228986221945    -0.237239014740    -3.478197618431     1.007825032230
         H            1.228146221945     0.789850985260    -5.012067618431     1.007825032230
         C           -0.665863778055     0.275610985260    -4.244847618431    12.000000000000
         H           -1.227813778055    -0.238859014740    -3.478357618431     1.007825032230
         H           -1.228073778055     0.788290985260    -5.012207618431     1.007825032230
         C           -2.532813778055    -0.441029014740     1.634632381569    12.000000000000
         H           -2.562313778055    -1.054049014740     0.733442381569     1.007825032230
         H           -2.568953778055    -1.115249014740     2.490252381569     1.007825032230
         H           -3.433983778055     0.169980985260     1.651882381569     1.007825032230
         C           -1.271383778055     0.411640985260     1.670452381569    12.000000000000
         H           -1.271783778055     1.031740985260     2.569852381569     1.007825032230
         H           -1.262993778055     1.098550985260     0.821392381569     1.007825032230
         C           -0.000103778055    -0.425909014740     1.643512381569    12.000000000000
         H           -0.000253778055    -1.112589014740     2.495342381569     1.007825032230
         H            0.000036221945    -1.053489014740     0.746872381569     1.007825032230
         C            1.271116221945     0.411670985260     1.670912381569    12.000000000000
         H            1.271386221945     1.031480985260     2.570402381569     1.007825032230
         H            1.262916221945     1.098750985260     0.822012381569     1.007825032230
         C            2.532566221945    -0.441049014740     1.635092381569    12.000000000000
         H            2.562186221945    -1.053909014740     0.733782381569     1.007825032230
         H            3.433746221945     0.169880985260     1.652672381569     1.007825032230
         H            2.568486221945    -1.115509014740     2.490592381569     1.007825032230

  Charge       = 0
  Multiplicity = 1
  Basis Set: AUG-CC-PVQZ
    Blend: AUG-CC-PVQZ
  Basis Set: (AUG-CC-PVQZ AUX)
    Blend: AUG-CC-PVQZ-JKFIT

    Orbital Energies [Eh]
    ---------------------

    Doubly Occupied:

       1A    -11.230762     2A    -11.229036     3A    -11.211455
       4A    -11.211374     5A    -11.209212     6A    -11.206322
       7A    -11.206317     8A     -1.081136     9A     -1.035128
      10A     -1.015249    11A     -0.918979    12A     -0.819951
      13A     -0.794054    14A     -0.785112    15A     -0.647579
      16A     -0.645649    17A     -0.598543    18A     -0.593022
      19A     -0.588531    20A     -0.554321    21A     -0.547773
      22A     -0.525733    23A     -0.509407    24A     -0.494949
      25A     -0.476205    26A     -0.462131    27A     -0.459464
      28A     -0.446856    29A     -0.377950

  @DF-RHF Final Energy:  -274.48563749646297

   => Energetics <=

    Nuclear Repulsion Energy =            276.1915114498127650
    One-Electron Energy =                -915.5898998982902413
    Two-Electron Energy =                 364.9127509520145054
    Total Energy =                       -274.4856374964629708

  Dipole Moment: [D]
     X:    -0.0000      Y:     0.1088      Z:     0.0027     Total:     0.1088

  Basis Set: (AUG-CC-PVQZ AUX)
    Blend: AUG-CC-PVQZ-RI
	 Reference Energy          =    -274.4856374964629708 [Eh]
	 Singles Energy            =      -0.0000000000000000 [Eh]
	 Same-Spin Energy          =      -0.3012491745379230 [Eh]
	 Opposite-Spin Energy      =      -1.2126483238543402 [Eh]
	 Correlation Energy        =      -1.5138974983922633 [Eh]
	 Total Energy              =    -275.9995349948552530 [Eh]

	 ================> DF-SCS-MP2 Energies <==================
	-----------------------------------------------------------
	 SCS Same-Spin Scale       =       0.3333333333333333 [-]
	 SCS Opposite-Spin Scale   =       1.2000000000000000 [-]
	 SCS Same-Spin Energy      =      -0.1004163915126410 [Eh]
	 SCS Opposite-Spin Energy  =      -1.4551779886252081 [Eh]
	 SCS Correlation Energy    =      -1.5555943801378491 [Eh]
	 SCS Total Energy          =    -276.0412318766008184 [Eh]
	-----------------------------------------------------------

*** Psi4 exiting successfully. Buy a developer a beer!
