                               Psi4 1.4a2.dev224

  ==> Input File <==

--------------------------------------------------------------------------
#Generated by lconvert.py for cbs job

memory 20 GB

molecule  {
0 1
  C       0.666400    0.183810    0.419740
  H       1.228880   -0.329880    1.186260
  H       1.228040    0.697210   -0.347610
  C      -0.665970    0.182970    0.419610
  H      -1.227920   -0.331500    1.186100
  H      -1.228180    0.695650   -0.347750
--
0 1
  C      -2.532840   -0.463760    5.223620
  H      -2.562330   -1.076780    4.322430
  H      -2.568980   -1.137980    6.079240
  H      -3.434010    0.147260    5.240870
  C      -1.271400    0.388920    5.259440
  H      -1.271810    1.009010    6.158830
  H      -1.263020    1.075830    4.410380
  C      -0.000130   -0.448640    5.232500
  H      -0.000280   -1.135310    6.084330
  H       0.000010   -1.076220    4.335850
  C       1.271090    0.388950    5.259900
  H       1.271360    1.008760    6.159390
  H       1.262900    1.076020    4.410990
  C       2.532540   -0.463780    5.224080
  H       2.562160   -1.076630    4.322770
  H       3.433720    0.147160    5.241650
  H       2.568460   -1.138230    6.079580
units angstrom
no_reorient
symmetry c1
}

set {
scf_type DF
mp2_type DF
e_convergence 7
reference rhf
}

energy('mp2/aug-cc-pv[tq]z', bsse_type='cp')
--------------------------------------------------------------------------

    Molecular point group: c1
  Charge       = 0
  Multiplicity = 1
  Basis Set: AUG-CC-PVTZ
    Blend: AUG-CC-PVTZ
  Basis Set: (AUG-CC-PVTZ AUX)
    Blend: AUG-CC-PVTZ-JKFIT
  @DF-RHF Final Energy:  -196.40436980261640
    Total Energy =                       -196.4043698026164009
  Basis Set: (AUG-CC-PVTZ AUX)
    Blend: AUG-CC-PVTZ-RI
	 Reference Energy          =    -196.4043698026164009 [Eh]
	 Singles Energy            =      -0.0000000000000000 [Eh]
	 Same-Spin Energy          =      -0.2078894970222688 [Eh]
	 Opposite-Spin Energy      =      -0.7930678929131409 [Eh]
	 Correlation Energy        =      -1.0009573899354098 [Eh]
	 Total Energy              =    -197.4053271925518231 [Eh]
	 SCS Total Energy          =    -197.4253477731195972 [Eh]
    Molecular point group: c1
  Basis Set: AUG-CC-PVQZ
    Blend: AUG-CC-PVQZ
  Basis Set: (AUG-CC-PVQZ AUX)
    Blend: AUG-CC-PVQZ-JKFIT
  @DF-RHF Final Energy:  -196.41619223642928
    Total Energy =                       -196.4161922364292820
  Basis Set: (AUG-CC-PVQZ AUX)
  @DF-RHF Final Energy:  -196.40437934965789
    Total Energy =                       -196.4043793496578871
  @DF-RHF Final Energy:  -196.41619745161361
    Total Energy =                       -196.4161974516136127
  @DF-RHF Final Energy:   -78.06475061635729
    Total Energy =                        -78.0647506163572871
  @DF-RHF Final Energy:   -78.06944573886476
    Total Energy =                        -78.0694457388647578
  @DF-RHF Final Energy:   -78.06472268907994
    Total Energy =                        -78.0647226890799288
  @DF-RHF Final Energy:   -78.06943607373969
    Total Energy =                        -78.0694360737396948
  Multiplicity = 1
  @DF-RHF Final Energy:  -274.46905308189559
    Total Energy =                       -274.4690530818955949
	 Singles Energy            =      -0.0000000000000000 [Eh]
	 Same-Spin Energy          =      -0.2852060460234479 [Eh]
	 Opposite-Spin Energy      =      -1.0931348916021495 [Eh]
	 Correlation Energy        =      -1.3783409376255973 [Eh]
	 Total Energy              =    -275.8473940195211753 [Eh]
	 SCS Total Energy          =    -275.8758836338259925 [Eh]
    Molecular point group: c1

    Geometry (in Angstrom), charge = 0, multiplicity = 1:

       Center              X                  Y                   Z               Mass
    ------------   -----------------  -----------------  -----------------  -----------------
         C            0.666447219132     0.226110061119    -3.470338471497    12.000000000000
         H            1.228927219132    -0.287579938881    -2.703818471497     1.007825032230
         H            1.228087219132     0.739510061119    -4.237688471497     1.007825032230
         C           -0.665922780868     0.225270061119    -3.470468471497    12.000000000000
         H           -1.227872780868    -0.289199938881    -2.703978471497     1.007825032230
         H           -1.228132780868     0.737950061119    -4.237828471497     1.007825032230
         C           -2.532792780868    -0.421459938881     1.333541528503    12.000000000000
         H           -2.562282780868    -1.034479938881     0.432351528503     1.007825032230
         H           -2.568932780868    -1.095679938881     2.189161528503     1.007825032230
         H           -3.433962780868     0.189560061119     1.350791528503     1.007825032230
         C           -1.271352780868     0.431220061119     1.369361528503    12.000000000000
         H           -1.271762780868     1.051310061119     2.268751528503     1.007825032230
         H           -1.262972780868     1.118130061119     0.520301528503     1.007825032230
         C           -0.000082780868    -0.406339938881     1.342421528503    12.000000000000
         H           -0.000232780868    -1.093009938881     2.194251528503     1.007825032230
         H            0.000057219132    -1.033919938881     0.445771528503     1.007825032230
         C            1.271137219132     0.431250061119     1.369821528503    12.000000000000
         H            1.271407219132     1.051060061119     2.269311528503     1.007825032230
         H            1.262947219132     1.118320061119     0.520911528503     1.007825032230
         C            2.532587219132    -0.421479938881     1.334001528503    12.000000000000
         H            2.562207219132    -1.034329938881     0.432691528503     1.007825032230
         H            3.433767219132     0.189460061119     1.351571528503     1.007825032230
         H            2.568507219132    -1.095929938881     2.189501528503     1.007825032230

  Charge       = 0
  Multiplicity = 1
  Basis Set: AUG-CC-PVQZ
    Blend: AUG-CC-PVQZ
  Basis Set: (AUG-CC-PVQZ AUX)
    Blend: AUG-CC-PVQZ-JKFIT

    Orbital Energies [Eh]
    ---------------------

    Doubly Occupied:

       1A    -11.230983     2A    -11.229257     3A    -11.211319
       4A    -11.211224     5A    -11.209337     6A    -11.206585
       7A    -11.206581     8A     -1.081175     9A     -1.035384
      10A     -1.015362    11A     -0.919172    12A     -0.820023
      13A     -0.794305    14A     -0.785131    15A     -0.648718
      16A     -0.644855    17A     -0.598663    18A     -0.593187
      19A     -0.588755    20A     -0.554410    21A     -0.547992
      22A     -0.526019    23A     -0.509672    24A     -0.495005
      25A     -0.476259    26A     -0.462155    27A     -0.459486
      28A     -0.446940    29A     -0.378211

  @DF-RHF Final Energy:  -274.48556631488668

   => Energetics <=

    Nuclear Repulsion Energy =            287.3856360121921512
    One-Electron Energy =                -937.9700762689691373
    Two-Electron Energy =                 376.0988739418903606
    Total Energy =                       -274.4855663148866824

  Dipole Moment: [D]
     X:    -0.0000      Y:     0.1359      Z:     0.0071     Total:     0.1361

  Basis Set: (AUG-CC-PVQZ AUX)
    Blend: AUG-CC-PVQZ-RI
	 Reference Energy          =    -274.4855663148866824 [Eh]
	 Singles Energy            =      -0.0000000000000000 [Eh]
	 Same-Spin Energy          =      -0.3017548036070871 [Eh]
	 Opposite-Spin Energy      =      -1.2133496639688066 [Eh]
	 Correlation Energy        =      -1.5151044675758936 [Eh]
	 Total Energy              =    -276.0006707824625778 [Eh]

	 ================> DF-SCS-MP2 Energies <==================
	-----------------------------------------------------------
	 SCS Same-Spin Scale       =       0.3333333333333333 [-]
	 SCS Opposite-Spin Scale   =       1.2000000000000000 [-]
	 SCS Same-Spin Energy      =      -0.1005849345356957 [Eh]
	 SCS Opposite-Spin Energy  =      -1.4560195967625680 [Eh]
	 SCS Correlation Energy    =      -1.5566045312982637 [Eh]
	 SCS Total Energy          =    -276.0421708461849448 [Eh]
	-----------------------------------------------------------

*** Psi4 exiting successfully. Buy a developer a beer!
