                               Psi4 1.4a2.dev224

  ==> Input File <==

--------------------------------------------------------------------------
#Generated by lconvert.py for cbs job

memory 40 GB

molecule  {
0 1
  C        0.6664000     0.1838110     0.4197370
  H        1.2288820    -0.3298830     1.1862600
  H        1.2280360     0.6972080    -0.3476100
  C       -0.6659740     0.1829730     0.4196120
  H       -1.2279220    -0.3314990     1.1861030
  H       -1.2281840     0.6956460    -0.3477480
--
0 1
  C       -2.5327420    -0.3780740     3.9056000
  H       -2.5622350    -0.9910950     3.0044100
  H       -2.5688760    -1.0522940     4.7612170
  H       -3.4339130     0.2329430     3.9228460
  C       -1.2713060     0.4746020     3.9414180
  H       -1.2717110     1.0946950     4.8408120
  H       -1.2629170     1.1615100     3.0923580
  C       -0.0000310    -0.3629560     3.9144750
  H       -0.0001850    -1.0496290     4.7663070
  H        0.0001100    -0.9905340     3.0178330
  C        1.2711890     0.4746300     3.9418800
  H        1.2714620     1.0944410     4.8413650
  H        1.2629940     1.1617050     3.0929720
  C        2.5326410    -0.3780940     3.9060550
  H        2.5622640    -0.9909510     3.0047460
  H        3.4338190     0.2328420     3.9236330
  H        2.5685590    -1.0525500     4.7615610
units angstrom
no_reorient
symmetry c1
}

set {
scf_type DF
mp2_type DF
e_convergence 7
reference rhf
}

energy('mp2/aug-cc-pv[tq]z', bsse_type='cp')
--------------------------------------------------------------------------

    Molecular point group: c1
  Charge       = 0
  Multiplicity = 1
  Basis Set: AUG-CC-PVTZ
    Blend: AUG-CC-PVTZ
  Basis Set: (AUG-CC-PVTZ AUX)
    Blend: AUG-CC-PVTZ-JKFIT
  @DF-RHF Final Energy:  -196.40436980042767
    Total Energy =                       -196.4043698004276735
  Basis Set: (AUG-CC-PVTZ AUX)
    Blend: AUG-CC-PVTZ-RI
	 Reference Energy          =    -196.4043698004276735 [Eh]
	 Singles Energy            =      -0.0000000000000000 [Eh]
	 Same-Spin Energy          =      -0.2078895266570743 [Eh]
	 Opposite-Spin Energy      =      -0.7930678834368792 [Eh]
	 Correlation Energy        =      -1.0009574100939536 [Eh]
	 Total Energy              =    -197.4053272105216195 [Eh]
	 SCS Total Energy          =    -197.4253477694376215 [Eh]
    Molecular point group: c1
  Basis Set: AUG-CC-PVQZ
    Blend: AUG-CC-PVQZ
  Basis Set: (AUG-CC-PVQZ AUX)
    Blend: AUG-CC-PVQZ-JKFIT
  @DF-RHF Final Energy:  -196.41619223596825
    Total Energy =                       -196.4161922359682535
  Basis Set: (AUG-CC-PVQZ AUX)
  @DF-RHF Final Energy:  -196.40440487708895
    Total Energy =                       -196.4044048770889503
  @DF-RHF Final Energy:  -196.41620809585751
    Total Energy =                       -196.4162080958575132
  @DF-RHF Final Energy:   -78.06481852740811
    Total Energy =                        -78.0648185274081072
  @DF-RHF Final Energy:   -78.06946691286264
    Total Energy =                        -78.0694669128626373
  @DF-RHF Final Energy:   -78.06472254825856
    Total Energy =                        -78.0647225482585583
  @DF-RHF Final Energy:   -78.06943592667683
    Total Energy =                        -78.0694359266768316
  Multiplicity = 1
  @DF-RHF Final Energy:  -274.46313571579515
    Total Energy =                       -274.4631357157951470
	 Singles Energy            =      -0.0000000000000000 [Eh]
	 Same-Spin Energy          =      -0.2890734065562137 [Eh]
	 Opposite-Spin Energy      =      -1.0991767411975422 [Eh]
	 Correlation Energy        =      -1.3882501477537559 [Eh]
	 Total Energy              =    -275.8513858635488987 [Eh]
	 SCS Total Energy          =    -275.8785056074175941 [Eh]
    Molecular point group: c1

    Geometry (in Angstrom), charge = 0, multiplicity = 1:

       Center              X                  Y                   Z               Mass
    ------------   -----------------  -----------------  -----------------  -----------------
         C            0.666376944546     0.164415358649    -2.521316019987    12.000000000000
         H            1.228858944546    -0.349278641351    -1.754793019987     1.007825032230
         H            1.228012944546     0.677812358649    -3.288663019987     1.007825032230
         C           -0.665997055454     0.163577358649    -2.521441019987    12.000000000000
         H           -1.227945055454    -0.350894641351    -1.754950019987     1.007825032230
         H           -1.228207055454     0.676250358649    -3.288801019987     1.007825032230
         C           -2.532765055454    -0.397469641351     0.964546980013    12.000000000000
         H           -2.562258055454    -1.010490641351     0.063356980013     1.007825032230
         H           -2.568899055454    -1.071689641351     1.820163980013     1.007825032230
         H           -3.433936055454     0.213547358649     0.981792980013     1.007825032230
         C           -1.271329055454     0.455206358649     1.000364980013    12.000000000000
         H           -1.271734055454     1.075299358649     1.899758980013     1.007825032230
         H           -1.262940055454     1.142114358649     0.151304980013     1.007825032230
         C           -0.000054055454    -0.382351641351     0.973421980013    12.000000000000
         H           -0.000208055454    -1.069024641351     1.825253980013     1.007825032230
         H            0.000086944546    -1.009929641351     0.076779980013     1.007825032230
         C            1.271165944546     0.455234358649     1.000826980013    12.000000000000
         H            1.271438944546     1.075045358649     1.900311980013     1.007825032230
         H            1.262970944546     1.142309358649     0.151918980013     1.007825032230
         C            2.532617944546    -0.397489641351     0.965001980013    12.000000000000
         H            2.562240944546    -1.010346641351     0.063692980013     1.007825032230
         H            3.433795944546     0.213446358649     0.982579980013     1.007825032230
         H            2.568535944546    -1.071945641351     1.820507980013     1.007825032230

  Charge       = 0
  Multiplicity = 1
  Basis Set: AUG-CC-PVQZ
    Blend: AUG-CC-PVQZ
  Basis Set: (AUG-CC-PVQZ AUX)
    Blend: AUG-CC-PVQZ-JKFIT

    Orbital Energies [Eh]
    ---------------------

    Doubly Occupied:

       1A    -11.228917     2A    -11.227190     3A    -11.210523
       4A    -11.210362     5A    -11.209206     6A    -11.207522
       7A    -11.207515     8A     -1.082011     9A     -1.034483
      10A     -1.016184    11A     -0.920053    12A     -0.820555
      13A     -0.794102    14A     -0.785545    15A     -0.663976
      16A     -0.631145    17A     -0.599471    18A     -0.595450
      19A     -0.586642    20A     -0.554795    21A     -0.548943
      22A     -0.527444    23A     -0.508326    24A     -0.494420
      25A     -0.476864    26A     -0.461964    27A     -0.460490
      28A     -0.447256    29A     -0.376325

  @DF-RHF Final Energy:  -274.47959732481348

   => Energetics <=

    Nuclear Repulsion Energy =            308.2823093214960295
    One-Electron Energy =                -979.7484611244353800
    Two-Electron Energy =                 396.9865544781258109
    Total Energy =                       -274.4795973248134828

  Dipole Moment: [D]
     X:    -0.0000      Y:     0.2136      Z:     0.0790     Total:     0.2277

  Basis Set: (AUG-CC-PVQZ AUX)
    Blend: AUG-CC-PVQZ-RI
	 Reference Energy          =    -274.4795973248134828 [Eh]
	 Singles Energy            =      -0.0000000000000000 [Eh]
	 Same-Spin Energy          =      -0.3055379263313318 [Eh]
	 Opposite-Spin Energy      =      -1.2181437079352917 [Eh]
	 Correlation Energy        =      -1.5236816342666235 [Eh]
	 Total Energy              =    -276.0032789590800917 [Eh]

	 ================> DF-SCS-MP2 Energies <==================
	-----------------------------------------------------------
	 SCS Same-Spin Scale       =       0.3333333333333333 [-]
	 SCS Opposite-Spin Scale   =       1.2000000000000000 [-]
	 SCS Same-Spin Energy      =      -0.1018459754437773 [Eh]
	 SCS Opposite-Spin Energy  =      -1.4617724495223501 [Eh]
	 SCS Correlation Energy    =      -1.5636184249661274 [Eh]
	 SCS Total Energy          =    -276.0432157497796197 [Eh]
	-----------------------------------------------------------

*** Psi4 exiting successfully. Buy a developer a beer!
