                               Psi4 1.4a2.dev224

  ==> Input File <==

--------------------------------------------------------------------------
#Generated by lconvert.py for cbs job

memory 40 GB

molecule  {
0 1
  C        0.6664000     0.1838110     0.4197370
  H        1.2288820    -0.3298830     1.1862600
  H        1.2280360     0.6972080    -0.3476100
  C       -0.6659740     0.1829730     0.4196120
  H       -1.2279220    -0.3314990     1.1861030
  H       -1.2281840     0.6956460    -0.3477480
--
0 1
  C       -2.5327650    -0.3979810     4.2118240
  H       -2.5622580    -1.0110020     3.3106340
  H       -2.5688990    -1.0722020     5.0674410
  H       -3.4339360     0.2130350     4.2290700
  C       -1.2713280     0.4546940     4.2476420
  H       -1.2717340     1.0747880     5.1470360
  H       -1.2629400     1.1416030     3.3985810
  C       -0.0000540    -0.3828630     4.2206990
  H       -0.0002080    -1.0695360     5.0725310
  H        0.0000870    -1.0104410     3.3240560
  C        1.2711660     0.4547230     4.2481030
  H        1.2714390     1.0745340     5.1475890
  H        1.2629710     1.1417980     3.3991960
  C        2.5326180    -0.3980010     4.2122790
  H        2.5622410    -1.0108580     3.3109700
  H        3.4337960     0.2129350     4.2298570
  H        2.5685360    -1.0724570     5.0677850
units angstrom
no_reorient
symmetry c1
}

set {
scf_type DF
mp2_type DF
e_convergence 7
reference rhf
}

energy('mp2/aug-cc-pv[tq]z', bsse_type='cp')
--------------------------------------------------------------------------

    Molecular point group: c1
  Charge       = 0
  Multiplicity = 1
  Basis Set: AUG-CC-PVTZ
    Blend: AUG-CC-PVTZ
  Basis Set: (AUG-CC-PVTZ AUX)
    Blend: AUG-CC-PVTZ-JKFIT
  @DF-RHF Final Energy:  -196.40436977712898
    Total Energy =                       -196.4043697771289771
  Basis Set: (AUG-CC-PVTZ AUX)
    Blend: AUG-CC-PVTZ-RI
	 Reference Energy          =    -196.4043697771289771 [Eh]
	 Singles Energy            =      -0.0000000000000000 [Eh]
	 Same-Spin Energy          =      -0.2078895337175822 [Eh]
	 Opposite-Spin Energy      =      -0.7930678993640170 [Eh]
	 Correlation Energy        =      -1.0009574330815991 [Eh]
	 Total Energy              =    -197.4053272102105723 [Eh]
	 SCS Total Energy          =    -197.4253477676049897 [Eh]
    Molecular point group: c1
  Basis Set: AUG-CC-PVQZ
    Blend: AUG-CC-PVQZ
  Basis Set: (AUG-CC-PVQZ AUX)
    Blend: AUG-CC-PVQZ-JKFIT
  @DF-RHF Final Energy:  -196.41619221537488
    Total Energy =                       -196.4161922153748776
  Basis Set: (AUG-CC-PVQZ AUX)
  @DF-RHF Final Energy:  -196.40439481247356
    Total Energy =                       -196.4043948124735550
  @DF-RHF Final Energy:  -196.41620379896676
    Total Energy =                       -196.4162037989667624
  @DF-RHF Final Energy:   -78.06479734734452
    Total Energy =                        -78.0647973473445234
  @DF-RHF Final Energy:   -78.06946046394289
    Total Energy =                        -78.0694604639429031
  @DF-RHF Final Energy:   -78.06472254819462
    Total Energy =                        -78.0647225481946236
  @DF-RHF Final Energy:   -78.06943592669587
    Total Energy =                        -78.0694359266958742
  Multiplicity = 1
  @DF-RHF Final Energy:  -274.46683990313676
    Total Energy =                       -274.4668399031367585
	 Singles Energy            =      -0.0000000000000000 [Eh]
	 Same-Spin Energy          =      -0.2874123911625782 [Eh]
	 Opposite-Spin Energy      =      -1.0967423832496777 [Eh]
	 Correlation Energy        =      -1.3841547744122558 [Eh]
	 Total Energy              =    -275.8509946775490107 [Eh]
	 SCS Total Energy          =    -275.8787348934238821 [Eh]
    Molecular point group: c1

    Geometry (in Angstrom), charge = 0, multiplicity = 1:

       Center              X                  Y                   Z               Mass
    ------------   -----------------  -----------------  -----------------  -----------------
         C            0.666393385559     0.178749285405    -2.741808647444    12.000000000000
         H            1.228875385559    -0.334944714595    -1.975285647444     1.007825032230
         H            1.228029385559     0.692146285405    -3.509155647444     1.007825032230
         C           -0.665980614441     0.177911285405    -2.741933647444    12.000000000000
         H           -1.227928614441    -0.336560714595    -1.975442647444     1.007825032230
         H           -1.228190614441     0.690584285405    -3.509293647444     1.007825032230
         C           -2.532771614441    -0.403042714595     1.050278352556    12.000000000000
         H           -2.562264614441    -1.016063714595     0.149088352556     1.007825032230
         H           -2.568905614441    -1.077263714595     1.905895352556     1.007825032230
         H           -3.433942614441     0.207973285405     1.067524352556     1.007825032230
         C           -1.271334614441     0.449632285405     1.086096352556    12.000000000000
         H           -1.271740614441     1.069726285405     1.985490352556     1.007825032230
         H           -1.262946614441     1.136541285405     0.237035352556     1.007825032230
         C           -0.000060614441    -0.387924714595     1.059153352556    12.000000000000
         H           -0.000214614441    -1.074597714595     1.910985352556     1.007825032230
         H            0.000080385559    -1.015502714595     0.162510352556     1.007825032230
         C            1.271159385559     0.449661285405     1.086557352556    12.000000000000
         H            1.271432385559     1.069472285405     1.986043352556     1.007825032230
         H            1.262964385559     1.136736285405     0.237650352556     1.007825032230
         C            2.532611385559    -0.403062714595     1.050733352556    12.000000000000
         H            2.562234385559    -1.015919714595     0.149424352556     1.007825032230
         H            3.433789385559     0.207873285405     1.068311352556     1.007825032230
         H            2.568529385559    -1.077518714595     1.906239352556     1.007825032230

  Charge       = 0
  Multiplicity = 1
  Basis Set: AUG-CC-PVQZ
    Blend: AUG-CC-PVQZ
  Basis Set: (AUG-CC-PVQZ AUX)
    Blend: AUG-CC-PVQZ-JKFIT

    Orbital Energies [Eh]
    ---------------------

    Doubly Occupied:

       1A    -11.230204     2A    -11.228478     3A    -11.210840
       4A    -11.210701     5A    -11.209377     6A    -11.207180
       7A    -11.207173     8A     -1.081452     9A     -1.035128
      10A     -1.015758    11A     -0.919674    12A     -0.820256
      13A     -0.794298    14A     -0.785275    15A     -0.657284
      16A     -0.637086    17A     -0.599041    18A     -0.594257
      19A     -0.588011    20A     -0.554619    21A     -0.548560
      22A     -0.526849    23A     -0.509342    24A     -0.494755
      25A     -0.476527    26A     -0.462076    27A     -0.459875
      28A     -0.447115    29A     -0.377601

  @DF-RHF Final Energy:  -274.48331642417543

   => Energetics <=

    Nuclear Repulsion Energy =            302.4425958076096776
    One-Electron Energy =                -968.0742393015124208
    Two-Electron Energy =                 391.1483270697273156
    Total Energy =                       -274.4833164241754275

  Dipole Moment: [D]
     X:    -0.0000      Y:     0.1905      Z:     0.0434     Total:     0.1954

  Basis Set: (AUG-CC-PVQZ AUX)
    Blend: AUG-CC-PVQZ-RI
	 Reference Energy          =    -274.4833164241754275 [Eh]
	 Singles Energy            =      -0.0000000000000000 [Eh]
	 Same-Spin Energy          =      -0.3038927219675734 [Eh]
	 Opposite-Spin Energy      =      -1.2160935841203853 [Eh]
	 Correlation Energy        =      -1.5199863060879588 [Eh]
	 Total Energy              =    -276.0033027302633855 [Eh]

	 ================> DF-SCS-MP2 Energies <==================
	-----------------------------------------------------------
	 SCS Same-Spin Scale       =       0.3333333333333333 [-]
	 SCS Opposite-Spin Scale   =       1.2000000000000000 [-]
	 SCS Same-Spin Energy      =      -0.1012975739891911 [Eh]
	 SCS Opposite-Spin Energy  =      -1.4593123009444622 [Eh]
	 SCS Correlation Energy    =      -1.5606098749336534 [Eh]
	 SCS Total Energy          =    -276.0439262991091027 [Eh]
	-----------------------------------------------------------

*** Psi4 exiting successfully. Buy a developer a beer!
