                               Psi4 1.4a2.dev224

  ==> Input File <==

--------------------------------------------------------------------------
#Generated by lconvert.py for cbs job

memory 40 GB

molecule  {
0 1
  C        0.6664000     0.1838110     0.4197370
  H        1.2288820    -0.3298830     1.1862600
  H        1.2280360     0.6972080    -0.3476100
  C       -0.6659740     0.1829730     0.4196120
  H       -1.2279220    -0.3314990     1.1861030
  H       -1.2281840     0.6956460    -0.3477480
--
0 1
  C       -2.5327870    -0.4171470     4.5066390
  H       -2.5622800    -1.0301680     3.6054490
  H       -2.5689210    -1.0913670     5.3622560
  H       -3.4339580     0.1938700     4.5238850
  C       -1.2713510     0.4355290     4.5424570
  H       -1.2717560     1.0556220     5.4418510
  H       -1.2629620     1.1224370     3.6933960
  C       -0.0000760    -0.4020290     4.5155140
  H       -0.0002300    -1.0887020     5.3673460
  H        0.0000650    -1.0296070     3.6188710
  C        1.2711440     0.4355580     4.5429180
  H        1.2714170     1.0553680     5.4424040
  H        1.2629490     1.1226320     3.6940110
  C        2.5325960    -0.4171670     4.5070940
  H        2.5622190    -1.0300230     3.6057850
  H        3.4337740     0.1937690     4.5246720
  H        2.5685140    -1.0916230     5.3626000
units angstrom
no_reorient
symmetry c1
}

set {
scf_type DF
mp2_type DF
e_convergence 7
reference rhf
}

energy('mp2/aug-cc-pv[tq]z', bsse_type='cp')
--------------------------------------------------------------------------

    Molecular point group: c1
  Charge       = 0
  Multiplicity = 1
  Basis Set: AUG-CC-PVTZ
    Blend: AUG-CC-PVTZ
  Basis Set: (AUG-CC-PVTZ AUX)
    Blend: AUG-CC-PVTZ-JKFIT
  @DF-RHF Final Energy:  -196.40436979642476
    Total Energy =                       -196.4043697964247599
  Basis Set: (AUG-CC-PVTZ AUX)
    Blend: AUG-CC-PVTZ-RI
	 Reference Energy          =    -196.4043697964247599 [Eh]
	 Singles Energy            =      -0.0000000000000000 [Eh]
	 Same-Spin Energy          =      -0.2078895213002926 [Eh]
	 Opposite-Spin Energy      =      -0.7930678863454196 [Eh]
	 Correlation Energy        =      -1.0009574076457122 [Eh]
	 Total Energy              =    -197.4053272040704599 [Eh]
	 SCS Total Energy          =    -197.4253477671393568 [Eh]
    Molecular point group: c1
  Basis Set: AUG-CC-PVQZ
    Blend: AUG-CC-PVQZ
  Basis Set: (AUG-CC-PVQZ AUX)
    Blend: AUG-CC-PVQZ-JKFIT
  @DF-RHF Final Energy:  -196.41619222976260
    Total Energy =                       -196.4161922297626006
  Basis Set: (AUG-CC-PVQZ AUX)
  @DF-RHF Final Energy:  -196.40438939552553
    Total Energy =                       -196.4043893955255271
  @DF-RHF Final Energy:  -196.41620058378660
    Total Energy =                       -196.4162005837866047
  @DF-RHF Final Energy:   -78.06477901785749
    Total Energy =                        -78.0647790178574894
  @DF-RHF Final Energy:   -78.06945456482113
    Total Energy =                        -78.0694545648211289
  @DF-RHF Final Energy:   -78.06472254822766
    Total Energy =                        -78.0647225482276497
  @DF-RHF Final Energy:   -78.06943592673481
    Total Energy =                        -78.0694359267347977
  Multiplicity = 1
  @DF-RHF Final Energy:  -274.46825477093097
    Total Energy =                       -274.4682547709309688
	 Singles Energy            =      -0.0000000000000000 [Eh]
	 Same-Spin Energy          =      -0.2864027477966837 [Eh]
	 Opposite-Spin Energy      =      -1.0951347596287135 [Eh]
	 Correlation Energy        =      -1.3815375074253973 [Eh]
	 Total Energy              =    -275.8497922783563467 [Eh]
	 SCS Total Energy          =    -275.8778840650843449 [Eh]
    Molecular point group: c1

    Geometry (in Angstrom), charge = 0, multiplicity = 1:

       Center              X                  Y                   Z               Mass
    ------------   -----------------  -----------------  -----------------  -----------------
         C            0.666409346234     0.192549254486    -2.954086506895    12.000000000000
         H            1.228891346234    -0.321144745514    -2.187563506895     1.007825032230
         H            1.228045346234     0.705946254486    -3.721433506895     1.007825032230
         C           -0.665964653766     0.191711254486    -2.954211506895    12.000000000000
         H           -1.227912653766    -0.322760745514    -2.187720506895     1.007825032230
         H           -1.228174653766     0.704384254486    -3.721571506895     1.007825032230
         C           -2.532777653766    -0.408408745514     1.132815493105    12.000000000000
         H           -2.562270653766    -1.021429745514     0.231625493105     1.007825032230
         H           -2.568911653766    -1.082628745514     1.988432493105     1.007825032230
         H           -3.433948653766     0.202608254486     1.150061493105     1.007825032230
         C           -1.271341653766     0.444267254486     1.168633493105    12.000000000000
         H           -1.271746653766     1.064360254486     2.068027493105     1.007825032230
         H           -1.262952653766     1.131175254486     0.319572493105     1.007825032230
         C           -0.000066653766    -0.393290745514     1.141690493105    12.000000000000
         H           -0.000220653766    -1.079963745514     1.993522493105     1.007825032230
         H            0.000074346234    -1.020868745514     0.245047493105     1.007825032230
         C            1.271153346234     0.444296254486     1.169094493105    12.000000000000
         H            1.271426346234     1.064106254486     2.068580493105     1.007825032230
         H            1.262958346234     1.131370254486     0.320187493105     1.007825032230
         C            2.532605346234    -0.408428745514     1.133270493105    12.000000000000
         H            2.562228346234    -1.021284745514     0.231961493105     1.007825032230
         H            3.433783346234     0.202507254486     1.150848493105     1.007825032230
         H            2.568523346234    -1.082884745514     1.988776493105     1.007825032230

  Charge       = 0
  Multiplicity = 1
  Basis Set: AUG-CC-PVQZ
    Blend: AUG-CC-PVQZ
  Basis Set: (AUG-CC-PVQZ AUX)
    Blend: AUG-CC-PVQZ-JKFIT

    Orbital Energies [Eh]
    ---------------------

    Doubly Occupied:

       1A    -11.230750     2A    -11.229024     3A    -11.211049
       4A    -11.210929     5A    -11.209412     6A    -11.206946
       7A    -11.206940     8A     -1.081273     9A     -1.035370
      10A     -1.015562    11A     -0.919456    12A     -0.820134
      13A     -0.794376    14A     -0.785181    15A     -0.653201
      16A     -0.640795    17A     -0.598858    18A     -0.593671
      19A     -0.588552    20A     -0.554527    21A     -0.548320
      22A     -0.526482    23A     -0.509670    24A     -0.494922
      25A     -0.476377    26A     -0.462137    27A     -0.459622
      28A     -0.447042    29A     -0.378083

  @DF-RHF Final Energy:  -274.48474317579968

   => Energetics <=

    Nuclear Repulsion Energy =            297.4548741986019422
    One-Electron Energy =                -958.1019171773339167
    Two-Electron Energy =                 386.1622998029322957
    Total Energy =                       -274.4847431757996787

  Dipole Moment: [D]
     X:    -0.0000      Y:     0.1708      Z:     0.0245     Total:     0.1725

  Basis Set: (AUG-CC-PVQZ AUX)
    Blend: AUG-CC-PVQZ-RI
	 Reference Energy          =    -274.4847431757996787 [Eh]
	 Singles Energy            =      -0.0000000000000000 [Eh]
	 Same-Spin Energy          =      -0.3029048117005374 [Eh]
	 Opposite-Spin Energy      =      -1.2148368298599985 [Eh]
	 Correlation Energy        =      -1.5177416415605358 [Eh]
	 Total Energy              =    -276.0024848173601981 [Eh]

	 ================> DF-SCS-MP2 Energies <==================
	-----------------------------------------------------------
	 SCS Same-Spin Scale       =       0.3333333333333333 [-]
	 SCS Opposite-Spin Scale   =       1.2000000000000000 [-]
	 SCS Same-Spin Energy      =      -0.1009682705668458 [Eh]
	 SCS Opposite-Spin Energy  =      -1.4578041958319983 [Eh]
	 SCS Correlation Energy    =      -1.5587724663988440 [Eh]
	 SCS Total Energy          =    -276.0435156421985425 [Eh]
	-----------------------------------------------------------

*** Psi4 exiting successfully. Buy a developer a beer!
