                               Psi4 1.4a2.dev224

  ==> Input File <==

--------------------------------------------------------------------------
#Generated by lconvert.py for cbs job

memory 40 GB

molecule  {
0 1
  C        0.6664000     0.1838110     0.4197370
  H        1.2288820    -0.3298830     1.1862600
  H        1.2280360     0.6972080    -0.3476100
  C       -0.6659740     0.1829730     0.4196120
  H       -1.2279220    -0.3314990     1.1861030
  H       -1.2281840     0.6956460    -0.3477480
--
0 1
  C       -2.5327180    -0.3569520     3.5806890
  H       -2.5622110    -0.9699720     2.6794990
  H       -2.5688520    -1.0311720     4.4363060
  H       -3.4338890     0.2540650     3.5979350
  C       -1.2712810     0.4957240     3.6165070
  H       -1.2716870     1.1158170     4.5159010
  H       -1.2628930     1.1826320     2.7674460
  C       -0.0000070    -0.3418340     3.5895640
  H       -0.0001610    -1.0285070     4.4413960
  H        0.0001340    -0.9694120     2.6929210
  C        1.2712130     0.4957530     3.6169680
  H        1.2714860     1.1155630     4.5164540
  H        1.2630190     1.1828270     2.7680610
  C        2.5326650    -0.3569720     3.5811440
  H        2.5622880    -0.9698280     2.6798350
  H        3.4338430     0.2539640     3.5987220
  H        2.5685830    -1.0314280     4.4366500
units angstrom
no_reorient
symmetry c1
}

set {
scf_type DF
mp2_type DF
e_convergence 7
reference rhf
}

energy('mp2/aug-cc-pv[tq]z', bsse_type='cp')
--------------------------------------------------------------------------

    Molecular point group: c1
  Charge       = 0
  Multiplicity = 1
  Basis Set: AUG-CC-PVTZ
    Blend: AUG-CC-PVTZ
  Basis Set: (AUG-CC-PVTZ AUX)
    Blend: AUG-CC-PVTZ-JKFIT
  @DF-RHF Final Energy:  -196.40436980136116
    Total Energy =                       -196.4043698013611561
  Basis Set: (AUG-CC-PVTZ AUX)
    Blend: AUG-CC-PVTZ-RI
	 Reference Energy          =    -196.4043698013611561 [Eh]
	 Singles Energy            =      -0.0000000000000000 [Eh]
	 Same-Spin Energy          =      -0.2078895214029330 [Eh]
	 Opposite-Spin Energy      =      -0.7930678832701343 [Eh]
	 Correlation Energy        =      -1.0009574046730674 [Eh]
	 Total Energy              =    -197.4053272060342294 [Eh]
	 SCS Total Energy          =    -197.4253477684196412 [Eh]
    Molecular point group: c1
  Basis Set: AUG-CC-PVQZ
    Blend: AUG-CC-PVQZ
  Basis Set: (AUG-CC-PVQZ AUX)
    Blend: AUG-CC-PVQZ-JKFIT
  @DF-RHF Final Energy:  -196.41619223639771
    Total Energy =                       -196.4161922363977055
  Basis Set: (AUG-CC-PVQZ AUX)
  @DF-RHF Final Energy:  -196.40442334102352
    Total Energy =                       -196.4044233410235165
  @DF-RHF Final Energy:  -196.41621232571723
    Total Energy =                       -196.4162123257172254
  @DF-RHF Final Energy:   -78.06485160563822
    Total Energy =                        -78.0648516056382249
  @DF-RHF Final Energy:   -78.06947513774071
    Total Energy =                        -78.0694751377407101
  @DF-RHF Final Energy:   -78.06472254822098
    Total Energy =                        -78.0647225482209848
  @DF-RHF Final Energy:   -78.06943592672381
    Total Energy =                        -78.0694359267238269
  Multiplicity = 1
  @DF-RHF Final Energy:  -274.45315968608264
    Total Energy =                       -274.4531596860826426
	 Singles Energy            =      -0.0000000000000000 [Eh]
	 Same-Spin Energy          =      -0.2919470737576643 [Eh]
	 Opposite-Spin Energy      =      -1.1031151737347535 [Eh]
	 Correlation Energy        =      -1.3950622474924179 [Eh]
	 Total Energy              =    -275.8482219335750756 [Eh]
	 SCS Total Energy          =    -275.8742135858169036 [Eh]
    Molecular point group: c1

    Geometry (in Angstrom), charge = 0, multiplicity = 1:

       Center              X                  Y                   Z               Mass
    ------------   -----------------  -----------------  -----------------  -----------------
         C            0.666359533730     0.149206586314    -2.287367771558    12.000000000000
         H            1.228841533730    -0.364487413686    -1.520844771558     1.007825032230
         H            1.227995533730     0.662603586314    -3.054714771558     1.007825032230
         C           -0.666014466270     0.148368586314    -2.287492771558    12.000000000000
         H           -1.227962466270    -0.366103413686    -1.521001771558     1.007825032230
         H           -1.228224466270     0.661041586314    -3.054852771558     1.007825032230
         C           -2.532758466270    -0.391556413686     0.873584228442    12.000000000000
         H           -2.562251466270    -1.004576413686    -0.027605771558     1.007825032230
         H           -2.568892466270    -1.065776413686     1.729201228442     1.007825032230
         H           -3.433929466270     0.219460586314     0.890830228442     1.007825032230
         C           -1.271321466270     0.461119586314     0.909402228442    12.000000000000
         H           -1.271727466270     1.081212586314     1.808796228442     1.007825032230
         H           -1.262933466270     1.148027586314     0.060341228442     1.007825032230
         C           -0.000047466270    -0.376438413686     0.882459228442    12.000000000000
         H           -0.000201466270    -1.063111413686     1.734291228442     1.007825032230
         H            0.000093533730    -1.004016413686    -0.014183771558     1.007825032230
         C            1.271172533730     0.461148586314     0.909863228442    12.000000000000
         H            1.271445533730     1.080958586314     1.809349228442     1.007825032230
         H            1.262978533730     1.148222586314     0.060956228442     1.007825032230
         C            2.532624533730    -0.391576413686     0.874039228442    12.000000000000
         H            2.562247533730    -1.004432413686    -0.027269771558     1.007825032230
         H            3.433802533730     0.219359586314     0.891617228442     1.007825032230
         H            2.568542533730    -1.066032413686     1.729545228442     1.007825032230

  Charge       = 0
  Multiplicity = 1
  Basis Set: AUG-CC-PVQZ
    Blend: AUG-CC-PVQZ
  Basis Set: (AUG-CC-PVQZ AUX)
    Blend: AUG-CC-PVQZ-JKFIT

    Orbital Energies [Eh]
    ---------------------

    Doubly Occupied:

       1A    -11.226023     2A    -11.224294     3A    -11.210045
       4A    -11.209892     5A    -11.208710     6A    -11.208076
       7A    -11.208062     8A     -1.083869     9A     -1.032873
      10A     -1.017254    11A     -0.920798    12A     -0.821421
      13A     -0.793753    14A     -0.786325    15A     -0.674830
      16A     -0.622017    17A     -0.600990    18A     -0.597397
      19A     -0.583273    20A     -0.555167    21A     -0.549577
      22A     -0.528388    23A     -0.505667    24A     -0.493812
      25A     -0.477588    26A     -0.462742    27A     -0.461016
      28A     -0.447594    29A     -0.373147

  @DF-RHF Final Energy:  -274.46959445240009

   => Energetics <=

    Nuclear Repulsion Energy =            315.3511554508695554
    One-Electron Energy =                -993.8723088034174680
    Two-Electron Energy =                 404.0515589001478247
    Total Energy =                       -274.4695944524000879

  Dipole Moment: [D]
     X:    -0.0001      Y:     0.2383      Z:     0.1474     Total:     0.2802

  Basis Set: (AUG-CC-PVQZ AUX)
    Blend: AUG-CC-PVQZ-RI
	 Reference Energy          =    -274.4695944524000879 [Eh]
	 Singles Energy            =      -0.0000000000000000 [Eh]
	 Same-Spin Energy          =      -0.3084052388763836 [Eh]
	 Opposite-Spin Energy      =      -1.2216877310354708 [Eh]
	 Correlation Energy        =      -1.5300929699118544 [Eh]
	 Total Energy              =    -275.9996874223119221 [Eh]

	 ================> DF-SCS-MP2 Energies <==================
	-----------------------------------------------------------
	 SCS Same-Spin Scale       =       0.3333333333333333 [-]
	 SCS Opposite-Spin Scale   =       1.2000000000000000 [-]
	 SCS Same-Spin Energy      =      -0.1028017462921279 [Eh]
	 SCS Opposite-Spin Energy  =      -1.4660252772425648 [Eh]
	 SCS Correlation Energy    =      -1.5688270235346926 [Eh]
	 SCS Total Energy          =    -276.0384214759347969 [Eh]
	-----------------------------------------------------------

*** Psi4 exiting successfully. Buy a developer a beer!
