                               Psi4 1.4a2.dev224

  ==> Input File <==

--------------------------------------------------------------------------
#Generated by lconvert.py for cbs job

memory 20 GB

molecule  {
0 1
  C       1.372190    1.012480    0.970830
  H       0.952180    2.014050    1.033120
  H       1.947420    0.926520    0.050720
  H       2.051700    0.851830    1.802950
  C       0.326740   -0.077650    0.988200
  O       0.618820   -1.252480    1.171280
  N      -0.950030    0.344890    0.773920
  H      -1.104670    1.322030    0.606110
  C      -2.059850   -0.577370    0.680150
  H      -1.669360   -1.566800    0.897180
  H      -2.834590   -0.331380    1.403660
  H      -2.490970   -0.578930   -0.319940
--
0 1
  C       2.796380    0.557740    6.443170
  H       2.913220    1.312150    5.664430
  H       2.710270    1.082620    7.394830
  H       3.708470   -0.036500    6.469980
  C       1.568110   -0.305650    6.185620
  H       1.473540   -1.051100    6.978670
  H       1.684530   -0.859110    5.251780
  C       0.285570    0.512970    6.120320
  H       0.174000    1.090700    7.043400
  H       0.364810    1.245780    5.310670
  C      -0.958780   -0.337370    5.903440
  H      -1.049580   -1.051860    6.724860
  H      -0.830980   -0.926310    4.993230
  C      -2.225620    0.502920    5.813330
  H      -2.158710    1.209970    4.985560
  H      -3.110960   -0.113100    5.659490
  H      -2.375980    1.079130    6.726550
units angstrom
no_reorient
symmetry c1
}

set {
scf_type DF
mp2_type DF
e_convergence 7
reference rhf
}

energy('mp2/aug-cc-pv[tq]z', bsse_type='cp')
--------------------------------------------------------------------------

    Molecular point group: c1
  Charge       = 0
  Multiplicity = 1
  Basis Set: AUG-CC-PVTZ
    Blend: AUG-CC-PVTZ
  Basis Set: (AUG-CC-PVTZ AUX)
    Blend: AUG-CC-PVTZ-JKFIT
  @DF-RHF Final Energy:  -196.40428780854467
    Total Energy =                       -196.4042878085446659
  Basis Set: (AUG-CC-PVTZ AUX)
    Blend: AUG-CC-PVTZ-RI
	 Reference Energy          =    -196.4042878085446659 [Eh]
	 Singles Energy            =      -0.0000000000000000 [Eh]
	 Same-Spin Energy          =      -0.2079016684411515 [Eh]
	 Opposite-Spin Energy      =      -0.7931018558648504 [Eh]
	 Correlation Energy        =      -1.0010035243060018 [Eh]
	 Total Energy              =    -197.4052913328506804 [Eh]
	 SCS Total Energy          =    -197.4253105917295272 [Eh]
    Molecular point group: c1
  Basis Set: AUG-CC-PVQZ
    Blend: AUG-CC-PVQZ
  Basis Set: (AUG-CC-PVQZ AUX)
    Blend: AUG-CC-PVQZ-JKFIT
  @DF-RHF Final Energy:  -196.41610855258341
    Total Energy =                       -196.4161085525834096
  Basis Set: (AUG-CC-PVQZ AUX)
  @DF-RHF Final Energy:  -196.40430086770354
    Total Energy =                       -196.4043008677035402
  @DF-RHF Final Energy:  -196.41611559005074
    Total Energy =                       -196.4161155900507367
  @DF-RHF Final Energy:  -247.10280512280261
    Total Energy =                       -247.1028051228026357
  @DF-RHF Final Energy:  -247.11821859052279
    Total Energy =                       -247.1182185905228152
  @DF-RHF Final Energy:  -247.10274359243175
    Total Energy =                       -247.1027435924317501
  @DF-RHF Final Energy:  -247.11819693177790
    Total Energy =                       -247.1181969317779021
  Multiplicity = 1
  @DF-RHF Final Energy:  -443.50728555562711
    Total Energy =                       -443.5072855556270497
	 Singles Energy            =      -0.0000000000000000 [Eh]
	 Same-Spin Energy          =      -0.4551389449660804 [Eh]
	 Opposite-Spin Energy      =      -1.6046996561071991 [Eh]
	 Correlation Energy        =      -2.0598386010732797 [Eh]
	 Total Energy              =    -445.5671241567004017 [Eh]
	 SCS Total Energy          =    -445.5846381246111036 [Eh]
    Molecular point group: c1

    Geometry (in Angstrom), charge = 0, multiplicity = 1:

       Center              X                  Y                   Z               Mass
    ------------   -----------------  -----------------  -----------------  -----------------
         C            1.301856827384     0.971716308894    -2.516163017090    12.000000000000
         H            0.881846827384     1.973286308894    -2.453873017090     1.007825032230
         H            1.877086827384     0.885756308894    -3.436273017090     1.007825032230
         H            1.981366827384     0.811066308894    -1.684043017090     1.007825032230
         C            0.256406827384    -0.118413691106    -2.498793017090    12.000000000000
         O            0.548486827384    -1.293243691106    -2.315713017090    15.994914619570
         N           -1.020363172616     0.304126308894    -2.713073017090    14.003074004430
         H           -1.175003172616     1.281266308894    -2.880883017090     1.007825032230
         C           -2.130183172616    -0.618133691106    -2.806843017090    12.000000000000
         H           -1.739693172616    -1.607563691106    -2.589813017090     1.007825032230
         H           -2.904923172616    -0.372143691106    -2.083333017090     1.007825032230
         H           -2.561303172616    -0.619693691106    -3.806933017090     1.007825032230
         C            2.726046827384     0.516976308894     2.956176982910    12.000000000000
         H            2.842886827384     1.271386308894     2.177436982910     1.007825032230
         H            2.639936827384     1.041856308894     3.907836982910     1.007825032230
         H            3.638136827384    -0.077263691106     2.982986982910     1.007825032230
         C            1.497776827384    -0.346413691106     2.698626982910    12.000000000000
         H            1.403206827384    -1.091863691106     3.491676982910     1.007825032230
         H            1.614196827384    -0.899873691106     1.764786982910     1.007825032230
         C            0.215236827384     0.472206308894     2.633326982910    12.000000000000
         H            0.103666827384     1.049936308894     3.556406982910     1.007825032230
         H            0.294476827384     1.205016308894     1.823676982910     1.007825032230
         C           -1.029113172616    -0.378133691106     2.416446982910    12.000000000000
         H           -1.119913172616    -1.092623691106     3.237866982910     1.007825032230
         H           -0.901313172616    -0.967073691106     1.506236982910     1.007825032230
         C           -2.295953172616     0.462156308894     2.326336982910    12.000000000000
         H           -2.229043172616     1.169206308894     1.498566982910     1.007825032230
         H           -3.181293172616    -0.153863691106     2.172496982910     1.007825032230
         H           -2.446313172616     1.038366308894     3.239556982910     1.007825032230

  Charge       = 0
  Multiplicity = 1
  Basis Set: AUG-CC-PVQZ
    Blend: AUG-CC-PVQZ
  Basis Set: (AUG-CC-PVQZ AUX)
    Blend: AUG-CC-PVQZ-JKFIT

    Orbital Energies [Eh]
    ---------------------

    Doubly Occupied:

       1A    -20.509250     2A    -15.585134     3A    -11.347348
       4A    -11.255333     5A    -11.234884     6A    -11.208310
       7A    -11.207562     8A    -11.206842     9A    -11.205832
      10A    -11.203799    11A     -1.373932    12A     -1.230473
      13A     -1.078400    14A     -1.019356    15A     -1.012772
      16A     -0.932591    17A     -0.916787    18A     -0.817425
      19A     -0.789989    20A     -0.782230    21A     -0.691455
      22A     -0.652978    23A     -0.644881    24A     -0.634194
      25A     -0.596145    26A     -0.590753    27A     -0.588513
      28A     -0.581471    29A     -0.555855    30A     -0.551775
      31A     -0.545854    32A     -0.544579    33A     -0.523896
      34A     -0.505722    35A     -0.492634    36A     -0.473619
      37A     -0.459406    38A     -0.456581    39A     -0.444056
      40A     -0.421698    41A     -0.392584

  @DF-RHF Final Energy:  -443.53451370880003

   => Energetics <=

    Nuclear Repulsion Energy =            522.5687488652159800
    One-Electron Energy =               -1637.6727144945746204
    Two-Electron Energy =                 671.5694519205587767
    Total Energy =                       -443.5345137087999774

  Dipole Moment: [D]
     X:    -1.6460      Y:     3.4159      Z:    -0.8784     Total:     3.8922

  Basis Set: (AUG-CC-PVQZ AUX)
    Blend: AUG-CC-PVQZ-RI
	 Reference Energy          =    -443.5345137088000342 [Eh]
	 Singles Energy            =      -0.0000000000000000 [Eh]
	 Same-Spin Energy          =      -0.4817213404536845 [Eh]
	 Opposite-Spin Energy      =      -1.7896863311754430 [Eh]
	 Correlation Energy        =      -2.2714076716291274 [Eh]
	 Total Energy              =    -445.8059213804291403 [Eh]

	 ================> DF-SCS-MP2 Energies <==================
	-----------------------------------------------------------
	 SCS Same-Spin Scale       =       0.3333333333333333 [-]
	 SCS Opposite-Spin Scale   =       1.2000000000000000 [-]
	 SCS Same-Spin Energy      =      -0.1605737801512282 [Eh]
	 SCS Opposite-Spin Energy  =      -2.1476235974105315 [Eh]
	 SCS Correlation Energy    =      -2.3081973775617599 [Eh]
	 SCS Total Energy          =    -445.8427110863618168 [Eh]
	-----------------------------------------------------------

*** Psi4 exiting successfully. Buy a developer a beer!
