                               Psi4 1.4a2.dev224

  ==> Input File <==

--------------------------------------------------------------------------
#Generated by lconvert.py for cbs job

memory 40 GB

molecule  {
0 1
  C        1.3721910     1.0124770     0.9708250
  H        0.9521760     2.0140500     1.0331170
  H        1.9474220     0.9265160     0.0507180
  H        2.0517020     0.8518250     1.8029520
  C        0.3267370    -0.0776470     0.9881990
  O        0.6188210    -1.2524810     1.1712810
  N       -0.9500290     0.3448870     0.7739150
  H       -1.1046720     1.3220250     0.6061120
  C       -2.0598540    -0.5773690     0.6801530
  H       -1.6693560    -1.5667960     0.8971840
  H       -2.8345920    -0.3313800     1.4036610
  H       -2.4909710    -0.5789250    -0.3199390
--
0 1
  C        2.6756520     0.4732350     5.0289040
  H        2.7924910     1.2276510     4.2501590
  H        2.5895420     0.9981220     5.9805600
  H        3.5877440    -0.1210070     5.0557120
  C        1.4473800    -0.3901520     4.7713530
  H        1.3528110    -1.1356060     5.5644030
  H        1.5638000    -0.9436170     3.8375090
  C        0.1648420     0.4284620     4.7060510
  H        0.0532720     1.0061970     5.6291350
  H        0.2440760     1.1612770     3.8963990
  C       -1.0795140    -0.4218740     4.4891710
  H       -1.1703160    -1.1363600     5.3105890
  H       -0.9517070    -1.0108110     3.5789570
  C       -2.3463530     0.4184180     4.3990570
  H       -2.2794390     1.1254690     3.5712870
  H       -3.2316950    -0.1976000     4.2452240
  H       -2.4967090     0.9946290     5.3122760
units angstrom
no_reorient
symmetry c1
}

set {
scf_type DF
mp2_type DF
e_convergence 7
reference rhf
}

energy('mp2/aug-cc-pv[tq]z', bsse_type='cp')
--------------------------------------------------------------------------

    Molecular point group: c1
  Charge       = 0
  Multiplicity = 1
  Basis Set: AUG-CC-PVTZ
    Blend: AUG-CC-PVTZ
  Basis Set: (AUG-CC-PVTZ AUX)
    Blend: AUG-CC-PVTZ-JKFIT
  @DF-RHF Final Energy:  -196.40428761128410
    Total Energy =                       -196.4042876112841043
  Basis Set: (AUG-CC-PVTZ AUX)
    Blend: AUG-CC-PVTZ-RI
	 Reference Energy          =    -196.4042876112841043 [Eh]
	 Singles Energy            =      -0.0000000000000000 [Eh]
	 Same-Spin Energy          =      -0.2079016638167276 [Eh]
	 Opposite-Spin Energy      =      -0.7931019993957167 [Eh]
	 Correlation Energy        =      -1.0010036632124444 [Eh]
	 Total Energy              =    -197.4052912744965624 [Eh]
	 SCS Total Energy          =    -197.4253105651645512 [Eh]
    Molecular point group: c1
  Basis Set: AUG-CC-PVQZ
    Blend: AUG-CC-PVQZ
  Basis Set: (AUG-CC-PVQZ AUX)
    Blend: AUG-CC-PVQZ-JKFIT
  @DF-RHF Final Energy:  -196.41610833764139
    Total Energy =                       -196.4161083376413899
  Basis Set: (AUG-CC-PVQZ AUX)
  @DF-RHF Final Energy:  -196.40433211881250
    Total Energy =                       -196.4043321188125049
  @DF-RHF Final Energy:  -196.41612658835231
    Total Energy =                       -196.4161265883523129
  @DF-RHF Final Energy:  -247.10294414999771
    Total Energy =                       -247.1029441499977111
  @DF-RHF Final Energy:  -247.11825403193740
    Total Energy =                       -247.1182540319373970
  @DF-RHF Final Energy:  -247.10274336099792
    Total Energy =                       -247.1027433609979198
  @DF-RHF Final Energy:  -247.11819667941700
    Total Energy =                       -247.1181966794169966
  Multiplicity = 1
  @DF-RHF Final Energy:  -443.50502012581632
    Total Energy =                       -443.5050201258162588
	 Singles Energy            =      -0.0000000000000000 [Eh]
	 Same-Spin Energy          =      -0.4591455336315371 [Eh]
	 Opposite-Spin Energy      =      -1.6114330167927180 [Eh]
	 Correlation Energy        =      -2.0705785504242549 [Eh]
	 Total Energy              =    -445.5755986762405882 [Eh]
	 SCS Total Energy          =    -445.5917882571781092 [Eh]
    Molecular point group: c1

    Geometry (in Angstrom), charge = 0, multiplicity = 1:

       Center              X                  Y                   Z               Mass
    ------------   -----------------  -----------------  -----------------  -----------------
         C            1.361824590308     1.013686466606    -1.813704381307    12.000000000000
         H            0.941809590308     2.015259466606    -1.751412381307     1.007825032230
         H            1.937055590308     0.927725466606    -2.733811381307     1.007825032230
         H            2.041335590308     0.853034466606    -0.981577381307     1.007825032230
         C            0.316370590308    -0.076437533394    -1.796330381307    12.000000000000
         O            0.608454590308    -1.251271533394    -1.613248381307    15.994914619570
         N           -0.960395409692     0.346096466606    -2.010614381307    14.003074004430
         H           -1.115038409692     1.323234466606    -2.178417381307     1.007825032230
         C           -2.070220409692    -0.576159533394    -2.104376381307    12.000000000000
         H           -1.679722409692    -1.565586533394    -1.887345381307     1.007825032230
         H           -2.844958409692    -0.330170533394    -1.380868381307     1.007825032230
         H           -2.501337409692    -0.577715533394    -3.104468381307     1.007825032230
         C            2.665285590308     0.474444466606     2.244374618693    12.000000000000
         H            2.782124590308     1.228860466606     1.465629618693     1.007825032230
         H            2.579175590308     0.999331466606     3.196030618693     1.007825032230
         H            3.577377590308    -0.119797533394     2.271182618693     1.007825032230
         C            1.437013590308    -0.388942533394     1.986823618693    12.000000000000
         H            1.342444590308    -1.134396533394     2.779873618693     1.007825032230
         H            1.553433590308    -0.942407533394     1.052979618693     1.007825032230
         C            0.154475590308     0.429671466606     1.921521618693    12.000000000000
         H            0.042905590308     1.007406466606     2.844605618693     1.007825032230
         H            0.233709590308     1.162486466606     1.111869618693     1.007825032230
         C           -1.089880409692    -0.420664533394     1.704641618693    12.000000000000
         H           -1.180682409692    -1.135150533394     2.526059618693     1.007825032230
         H           -0.962073409692    -1.009601533394     0.794427618693     1.007825032230
         C           -2.356719409692     0.419627466606     1.614527618693    12.000000000000
         H           -2.289805409692     1.126678466606     0.786757618693     1.007825032230
         H           -3.242061409692    -0.196390533394     1.460694618693     1.007825032230
         H           -2.507075409692     0.995838466606     2.527746618693     1.007825032230

  Charge       = 0
  Multiplicity = 1
  Basis Set: AUG-CC-PVQZ
    Blend: AUG-CC-PVQZ
  Basis Set: (AUG-CC-PVQZ AUX)
    Blend: AUG-CC-PVQZ-JKFIT

    Orbital Energies [Eh]
    ---------------------

    Doubly Occupied:

       1A    -20.510531     2A    -15.585909     3A    -11.348535
       4A    -11.255395     5A    -11.235156     6A    -11.206170
       7A    -11.205906     8A    -11.205048     9A    -11.202987
      10A    -11.202366    11A     -1.375712    12A     -1.231519
      13A     -1.076496    14A     -1.020303    15A     -1.011183
      16A     -0.933229    17A     -0.916055    18A     -0.815792
      19A     -0.791043    20A     -0.780128    21A     -0.692357
      22A     -0.654242    23A     -0.651025    24A     -0.627917
      25A     -0.596466    26A     -0.594981    27A     -0.584443
      28A     -0.580222    29A     -0.556481    30A     -0.550297
      31A     -0.545706    32A     -0.545072    33A     -0.524077
      34A     -0.507134    35A     -0.490812    36A     -0.471746
      37A     -0.457100    38A     -0.453758    39A     -0.442476
      40A     -0.423097    41A     -0.393387

  @DF-RHF Final Energy:  -443.53212896079083

   => Energetics <=

    Nuclear Repulsion Energy =            568.8423623747096372
    One-Electron Energy =               -1730.2444524175687093
    Two-Electron Energy =                 717.8699610820682437
    Total Energy =                       -443.5321289607908284

  Dipole Moment: [D]
     X:    -1.6102      Y:     3.2441      Z:    -0.9531     Total:     3.7450

  Basis Set: (AUG-CC-PVQZ AUX)
    Blend: AUG-CC-PVQZ-RI
	 Reference Energy          =    -443.5321289607908284 [Eh]
	 Singles Energy            =      -0.0000000000000000 [Eh]
	 Same-Spin Energy          =      -0.4855689865463949 [Eh]
	 Opposite-Spin Energy      =      -1.7945465243821546 [Eh]
	 Correlation Energy        =      -2.2801155109285496 [Eh]
	 Total Energy              =    -445.8122444717193957 [Eh]

	 ================> DF-SCS-MP2 Energies <==================
	-----------------------------------------------------------
	 SCS Same-Spin Scale       =       0.3333333333333333 [-]
	 SCS Opposite-Spin Scale   =       1.2000000000000000 [-]
	 SCS Same-Spin Energy      =      -0.1618563288487983 [Eh]
	 SCS Opposite-Spin Energy  =      -2.1534558292585855 [Eh]
	 SCS Correlation Energy    =      -2.3153121581073837 [Eh]
	 SCS Total Energy          =    -445.8474411188981890 [Eh]
	-----------------------------------------------------------

*** Psi4 exiting successfully. Buy a developer a beer!
