                               Psi4 1.4a2.dev224

  ==> Input File <==

--------------------------------------------------------------------------
#Generated by lconvert.py for cbs job

memory 40 GB

molecule  {
0 1
  C        1.3721910     1.0124770     0.9708250
  H        0.9521760     2.0140500     1.0331170
  H        1.9474220     0.9265160     0.0507180
  H        2.0517020     0.8518250     1.8029520
  C        0.3267370    -0.0776470     0.9881990
  O        0.6188210    -1.2524810     1.1712810
  N       -0.9500290     0.3448870     0.7739150
  H       -1.1046720     1.3220250     0.6061120
  C       -2.0598540    -0.5773690     0.6801530
  H       -1.6693560    -1.5667960     0.8971840
  H       -2.8345920    -0.3313800     1.4036610
  H       -2.4909710    -0.5789250    -0.3199390
--
0 1
  C        2.6649110     0.4657170     4.9030810
  H        2.7817500     1.2201330     4.1243360
  H        2.5788010     0.9906030     5.8547370
  H        3.5770030    -0.1285250     4.9298890
  C        1.4366390    -0.3976700     4.6455300
  H        1.3420700    -1.1431240     5.4385800
  H        1.5530590    -0.9511350     3.7116860
  C        0.1541010     0.4209440     4.5802280
  H        0.0425310     0.9986780     5.5033120
  H        0.2333350     1.1537580     3.7705760
  C       -1.0902550    -0.4293920     4.3633480
  H       -1.1810570    -1.1438780     5.1847650
  H       -0.9624480    -1.0183290     3.4531340
  C       -2.3570940     0.4109000     4.2732340
  H       -2.2901800     1.1179510     3.4454640
  H       -3.2424360    -0.2051180     4.1194010
  H       -2.5074500     0.9871110     5.1864530
units angstrom
no_reorient
symmetry c1
}

set {
scf_type DF
mp2_type DF
e_convergence 7
reference rhf
}

energy('mp2/aug-cc-pv[tq]z', bsse_type='cp')
--------------------------------------------------------------------------

    Molecular point group: c1
  Charge       = 0
  Multiplicity = 1
  Basis Set: AUG-CC-PVTZ
    Blend: AUG-CC-PVTZ
  Basis Set: (AUG-CC-PVTZ AUX)
    Blend: AUG-CC-PVTZ-JKFIT
  @DF-RHF Final Energy:  -196.40428763308566
    Total Energy =                       -196.4042876330856586
  Basis Set: (AUG-CC-PVTZ AUX)
    Blend: AUG-CC-PVTZ-RI
	 Reference Energy          =    -196.4042876330856586 [Eh]
	 Singles Energy            =      -0.0000000000000000 [Eh]
	 Same-Spin Energy          =      -0.2079016642227793 [Eh]
	 Opposite-Spin Energy      =      -0.7931019862868331 [Eh]
	 Correlation Energy        =      -1.0010036505096125 [Eh]
	 Total Energy              =    -197.4052912835952611 [Eh]
	 SCS Total Energy          =    -197.4253105713707725 [Eh]
    Molecular point group: c1
  Basis Set: AUG-CC-PVQZ
    Blend: AUG-CC-PVQZ
  Basis Set: (AUG-CC-PVQZ AUX)
    Blend: AUG-CC-PVQZ-JKFIT
  @DF-RHF Final Energy:  -196.41610836171338
    Total Energy =                       -196.4161083617133841
  Basis Set: (AUG-CC-PVQZ AUX)
  @DF-RHF Final Energy:  -196.40433788800021
    Total Energy =                       -196.4043378880002138
  @DF-RHF Final Energy:  -196.41612859773090
    Total Energy =                       -196.4161285977309035
  @DF-RHF Final Energy:  -247.10296430279979
    Total Energy =                       -247.1029643027997622
  @DF-RHF Final Energy:  -247.11825953400157
    Total Energy =                       -247.1182595340015951
  @DF-RHF Final Energy:  -247.10274336112857
    Total Energy =                       -247.1027433611286028
  @DF-RHF Final Energy:  -247.11819667865089
    Total Energy =                       -247.1181966786509179
  Multiplicity = 1
  @DF-RHF Final Energy:  -443.50359781696864
    Total Energy =                       -443.5035978169686359
	 Singles Energy            =      -0.0000000000000000 [Eh]
	 Same-Spin Energy          =      -0.4600788516123960 [Eh]
	 Opposite-Spin Energy      =      -1.6128472870364712 [Eh]
	 Correlation Energy        =      -2.0729261386488673 [Eh]
	 Total Energy              =    -445.5765239556175175 [Eh]
	 SCS Total Energy          =    -445.5923741786165237 [Eh]
    Molecular point group: c1

    Geometry (in Angstrom), charge = 0, multiplicity = 1:

       Center              X                  Y                   Z               Mass
    ------------   -----------------  -----------------  -----------------  -----------------
         C            1.367159611875     1.017420654845    -1.751208478394    12.000000000000
         H            0.947144611875     2.018993654845    -1.688916478394     1.007825032230
         H            1.942390611875     0.931459654845    -2.671315478394     1.007825032230
         H            2.046670611875     0.856768654845    -0.919081478394     1.007825032230
         C            0.321705611875    -0.072703345155    -1.733834478394    12.000000000000
         O            0.613789611875    -1.247537345155    -1.550752478394    15.994914619570
         N           -0.955060388125     0.349830654845    -1.948118478394    14.003074004430
         H           -1.109703388125     1.326968654845    -2.115921478394     1.007825032230
         C           -2.064885388125    -0.572425345155    -2.041880478394    12.000000000000
         H           -1.674387388125    -1.561852345155    -1.824849478394     1.007825032230
         H           -2.839623388125    -0.326436345155    -1.318372478394     1.007825032230
         H           -2.496002388125    -0.573981345155    -3.041972478394     1.007825032230
         C            2.659879611875     0.470660654845     2.181047521606    12.000000000000
         H            2.776718611875     1.225076654845     1.402302521606     1.007825032230
         H            2.573769611875     0.995546654845     3.132703521606     1.007825032230
         H            3.571971611875    -0.123581345155     2.207855521606     1.007825032230
         C            1.431607611875    -0.392726345155     1.923496521606    12.000000000000
         H            1.337038611875    -1.138180345155     2.716546521606     1.007825032230
         H            1.548027611875    -0.946191345155     0.989652521606     1.007825032230
         C            0.149069611875     0.425887654845     1.858194521606    12.000000000000
         H            0.037499611875     1.003621654845     2.781278521606     1.007825032230
         H            0.228303611875     1.158701654845     1.048542521606     1.007825032230
         C           -1.095286388125    -0.424448345155     1.641314521606    12.000000000000
         H           -1.186088388125    -1.138934345155     2.462731521606     1.007825032230
         H           -0.967479388125    -1.013385345155     0.731100521606     1.007825032230
         C           -2.362125388125     0.415843654845     1.551200521606    12.000000000000
         H           -2.295211388125     1.122894654845     0.723430521606     1.007825032230
         H           -3.247467388125    -0.200174345155     1.397367521606     1.007825032230
         H           -2.512481388125     0.992054654845     2.464419521606     1.007825032230

  Charge       = 0
  Multiplicity = 1
  Basis Set: AUG-CC-PVQZ
    Blend: AUG-CC-PVQZ
  Basis Set: (AUG-CC-PVQZ AUX)
    Blend: AUG-CC-PVQZ-JKFIT

    Orbital Energies [Eh]
    ---------------------

    Doubly Occupied:

       1A    -20.510666     2A    -15.585943     3A    -11.348681
       4A    -11.255261     5A    -11.235061     6A    -11.206063
       7A    -11.205671     8A    -11.204605     9A    -11.202598
      10A    -11.201698    11A     -1.376058    12A     -1.231683
      13A     -1.076252    14A     -1.020523    15A     -1.010891
      16A     -0.933327    17A     -0.915959    18A     -0.815607
      19A     -0.791202    20A     -0.779852    21A     -0.692490
      22A     -0.654651    23A     -0.653192    24A     -0.625847
      25A     -0.598034    26A     -0.594854    27A     -0.584371
      28A     -0.578717    29A     -0.556543    30A     -0.550132
      31A     -0.545829    32A     -0.545031    33A     -0.524325
      34A     -0.507167    35A     -0.490542    36A     -0.471537
      37A     -0.456734    38A     -0.453211    39A     -0.442225
      40A     -0.423266    41A     -0.393356

  @DF-RHF Final Energy:  -443.53069119893360

   => Energetics <=

    Nuclear Repulsion Energy =            574.1865240262608268
    One-Electron Energy =               -1740.9351068922235299
    Two-Electron Energy =                 723.2178916670292210
    Total Energy =                       -443.5306911989335958

  Dipole Moment: [D]
     X:    -1.6055      Y:     3.2216      Z:    -0.9641     Total:     3.7263

  Basis Set: (AUG-CC-PVQZ AUX)
    Blend: AUG-CC-PVQZ-RI
	 Reference Energy          =    -443.5306911989335958 [Eh]
	 Singles Energy            =      -0.0000000000000000 [Eh]
	 Same-Spin Energy          =      -0.4864823142351949 [Eh]
	 Opposite-Spin Energy      =      -1.7956687763262442 [Eh]
	 Correlation Energy        =      -2.2821510905614391 [Eh]
	 Total Energy              =    -445.8128422894950518 [Eh]

	 ================> DF-SCS-MP2 Energies <==================
	-----------------------------------------------------------
	 SCS Same-Spin Scale       =       0.3333333333333333 [-]
	 SCS Opposite-Spin Scale   =       1.2000000000000000 [-]
	 SCS Same-Spin Energy      =      -0.1621607714117316 [Eh]
	 SCS Opposite-Spin Energy  =      -2.1548025315914932 [Eh]
	 SCS Correlation Energy    =      -2.3169633030032246 [Eh]
	 SCS Total Energy          =    -445.8476545019368018 [Eh]
	-----------------------------------------------------------

*** Psi4 exiting successfully. Buy a developer a beer!
