                               Psi4 1.4a2.dev224

  ==> Input File <==

--------------------------------------------------------------------------
#Generated by lconvert.py for cbs job

memory 20 GB

molecule  {
0 1
  C       1.372190    1.012480    0.970830
  H       0.952180    2.014050    1.033120
  H       1.947420    0.926520    0.050720
  H       2.051700    0.851830    1.802950
  C       0.326740   -0.077650    0.988200
  O       0.618820   -1.252480    1.171280
  N      -0.950030    0.344890    0.773920
  H      -1.104670    1.322030    0.606110
  C      -2.059850   -0.577370    0.680150
  H      -1.669360   -1.566800    0.897180
  H      -2.834590   -0.331380    1.403660
  H      -2.490970   -0.578930   -0.319940
--
0 1
  C       2.730370    0.511530    5.669860
  H       2.847210    1.265950    4.891110
  H       2.644260    1.036420    6.621510
  H       3.642460   -0.082710    5.696670
  C       1.502100   -0.351850    5.412310
  H       1.407530   -1.097310    6.205360
  H       1.618520   -0.905320    4.478460
  C       0.219560    0.466760    5.347010
  H       0.107990    1.044490    6.270090
  H       0.298790    1.199570    4.537350
  C      -1.024800   -0.383580    5.130120
  H      -1.115600   -1.098060    5.951540
  H      -0.896990   -0.972510    4.219910
  C      -2.291640    0.456710    5.040010
  H      -2.224720    1.163770    4.212240
  H      -3.176980   -0.159300    4.886180
  H      -2.441990    1.032930    5.953230
units angstrom
no_reorient
symmetry c1
}

set {
scf_type DF
mp2_type DF
e_convergence 7
reference rhf
}

energy('mp2/aug-cc-pv[tq]z', bsse_type='cp')
--------------------------------------------------------------------------

    Molecular point group: c1
  Charge       = 0
  Multiplicity = 1
  Basis Set: AUG-CC-PVTZ
    Blend: AUG-CC-PVTZ
  Basis Set: (AUG-CC-PVTZ AUX)
    Blend: AUG-CC-PVTZ-JKFIT
  @DF-RHF Final Energy:  -196.40428759528606
    Total Energy =                       -196.4042875952860641
  Basis Set: (AUG-CC-PVTZ AUX)
    Blend: AUG-CC-PVTZ-RI
	 Reference Energy          =    -196.4042875952860641 [Eh]
	 Singles Energy            =      -0.0000000000000000 [Eh]
	 Same-Spin Energy          =      -0.2079016538882487 [Eh]
	 Opposite-Spin Energy      =      -0.7931020125533310 [Eh]
	 Correlation Energy        =      -1.0010036664415796 [Eh]
	 Total Energy              =    -197.4052912617276547 [Eh]
	 SCS Total Energy          =    -197.4253105616461426 [Eh]
    Molecular point group: c1
  Basis Set: AUG-CC-PVQZ
    Blend: AUG-CC-PVQZ
  Basis Set: (AUG-CC-PVQZ AUX)
    Blend: AUG-CC-PVQZ-JKFIT
  @DF-RHF Final Energy:  -196.41610831891876
    Total Energy =                       -196.4161083189187593
  Basis Set: (AUG-CC-PVQZ AUX)
  @DF-RHF Final Energy:  -196.40431211252567
    Total Energy =                       -196.4043121125256732
  @DF-RHF Final Energy:  -196.41611931545080
    Total Energy =                       -196.4161193154507998
  @DF-RHF Final Energy:  -247.10285953183930
    Total Energy =                       -247.1028595318393286
  @DF-RHF Final Energy:  -247.11823386997736
    Total Energy =                       -247.1182338699773595
  @DF-RHF Final Energy:  -247.10274359235785
    Total Energy =                       -247.1027435923578537
  @DF-RHF Final Energy:  -247.11819693240025
    Total Energy =                       -247.1181969324002239
  Multiplicity = 1
  @DF-RHF Final Energy:  -443.50723887555938
    Total Energy =                       -443.5072388755594375
	 Singles Energy            =      -0.0000000000000000 [Eh]
	 Same-Spin Energy          =      -0.4563709564165175 [Eh]
	 Opposite-Spin Energy      =      -1.6068841760401762 [Eh]
	 Correlation Energy        =      -2.0632551324566935 [Eh]
	 Total Energy              =    -445.5704940080160554 [Eh]
	 SCS Total Energy          =    -445.5876235389464455 [Eh]
    Molecular point group: c1

    Geometry (in Angstrom), charge = 0, multiplicity = 1:

       Center              X                  Y                   Z               Mass
    ------------   -----------------  -----------------  -----------------  -----------------
         C            1.334645652565     0.994667360553    -2.132060116569    12.000000000000
         H            0.914635652565     1.996237360553    -2.069770116569     1.007825032230
         H            1.909875652565     0.908707360553    -3.052170116569     1.007825032230
         H            2.014155652565     0.834017360553    -1.299940116569     1.007825032230
         C            0.289195652565    -0.095462639447    -2.114690116569    12.000000000000
         O            0.581275652565    -1.270292639447    -1.931610116569    15.994914619570
         N           -0.987574347435     0.327077360553    -2.328970116569    14.003074004430
         H           -1.142214347435     1.304217360553    -2.496780116569     1.007825032230
         C           -2.097394347435    -0.595182639447    -2.422740116569    12.000000000000
         H           -1.706904347435    -1.584612639447    -2.205710116569     1.007825032230
         H           -2.872134347435    -0.349192639447    -1.699230116569     1.007825032230
         H           -2.528514347435    -0.596742639447    -3.422830116569     1.007825032230
         C            2.692825652565     0.493717360553     2.566969883431    12.000000000000
         H            2.809665652565     1.248137360553     1.788219883431     1.007825032230
         H            2.606715652565     1.018607360553     3.518619883431     1.007825032230
         H            3.604915652565    -0.100522639447     2.593779883431     1.007825032230
         C            1.464555652565    -0.369662639447     2.309419883431    12.000000000000
         H            1.369985652565    -1.115122639447     3.102469883431     1.007825032230
         H            1.580975652565    -0.923132639447     1.375569883431     1.007825032230
         C            0.182015652565     0.448947360553     2.244119883431    12.000000000000
         H            0.070445652565     1.026677360553     3.167199883431     1.007825032230
         H            0.261245652565     1.181757360553     1.434459883431     1.007825032230
         C           -1.062344347435    -0.401392639447     2.027229883431    12.000000000000
         H           -1.153144347435    -1.115872639447     2.848649883431     1.007825032230
         H           -0.934534347435    -0.990322639447     1.117019883431     1.007825032230
         C           -2.329184347435     0.438897360553     1.937119883431    12.000000000000
         H           -2.262264347435     1.145957360553     1.109349883431     1.007825032230
         H           -3.214524347435    -0.177112639447     1.783289883431     1.007825032230
         H           -2.479534347435     1.015117360553     2.850339883431     1.007825032230

  Charge       = 0
  Multiplicity = 1
  Basis Set: AUG-CC-PVQZ
    Blend: AUG-CC-PVQZ
  Basis Set: (AUG-CC-PVQZ AUX)
    Blend: AUG-CC-PVQZ-JKFIT

    Orbital Energies [Eh]
    ---------------------

    Doubly Occupied:

       1A    -20.509849     2A    -15.585535     3A    -11.347884
       4A    -11.255501     5A    -11.235156     6A    -11.207243
       7A    -11.206536     8A    -11.205911     9A    -11.205532
      10A    -11.203279    11A     -1.374607    12A     -1.230912
      13A     -1.077551    14A     -1.019728    15A     -1.012122
      16A     -0.932882    17A     -0.916447    18A     -0.816683
      19A     -0.790430    20A     -0.781296    21A     -0.691850
      22A     -0.653464    23A     -0.645331    24A     -0.633414
      25A     -0.595603    26A     -0.591849    27A     -0.587183
      28A     -0.581888    29A     -0.556177    30A     -0.551106
      31A     -0.545656    32A     -0.544885    33A     -0.523779
      34A     -0.506355    35A     -0.491871    36A     -0.472752
      37A     -0.458446    38A     -0.455513    39A     -0.443396
      40A     -0.422310    41A     -0.393042

  @DF-RHF Final Energy:  -443.53442019247734

   => Energetics <=

    Nuclear Repulsion Energy =            545.1088430495562989
    One-Electron Energy =               -1682.7646136710145583
    Two-Electron Energy =                 694.1213504289809180
    Total Energy =                       -443.5344201924773415

  Dipole Moment: [D]
     X:    -1.6298      Y:     3.3382      Z:    -0.9097     Total:     3.8246

  Basis Set: (AUG-CC-PVQZ AUX)
    Blend: AUG-CC-PVQZ-RI
	 Reference Energy          =    -443.5344201924773415 [Eh]
	 Singles Energy            =      -0.0000000000000000 [Eh]
	 Same-Spin Energy          =      -0.4828869702879134 [Eh]
	 Opposite-Spin Energy      =      -1.7912129448609875 [Eh]
	 Correlation Energy        =      -2.2740999151489008 [Eh]
	 Total Energy              =    -445.8085201076262365 [Eh]

	 ================> DF-SCS-MP2 Energies <==================
	-----------------------------------------------------------
	 SCS Same-Spin Scale       =       0.3333333333333333 [-]
	 SCS Opposite-Spin Scale   =       1.2000000000000000 [-]
	 SCS Same-Spin Energy      =      -0.1609623234293044 [Eh]
	 SCS Opposite-Spin Energy  =      -2.1494555338331849 [Eh]
	 SCS Correlation Energy    =      -2.3104178572624892 [Eh]
	 SCS Total Energy          =    -445.8448380497398489 [Eh]
	-----------------------------------------------------------

*** Psi4 exiting successfully. Buy a developer a beer!
