                               Psi4 1.4a2.dev224

  ==> Input File <==

--------------------------------------------------------------------------
#Generated by lconvert.py for cbs job

memory 40 GB

molecule  {
0 1
  C        1.3721910     1.0124770     0.9708250
  H        0.9521760     2.0140500     1.0331170
  H        1.9474220     0.9265160     0.0507180
  H        2.0517020     0.8518250     1.8029520
  C        0.3267370    -0.0776470     0.9881990
  O        0.6188210    -1.2524810     1.1712810
  N       -0.9500290     0.3448870     0.7739150
  H       -1.1046720     1.3220250     0.6061120
  C       -2.0598540    -0.5773690     0.6801530
  H       -1.6693560    -1.5667960     0.8971840
  H       -2.8345920    -0.3313800     1.4036610
  H       -2.4909710    -0.5789250    -0.3199390
--
0 1
  C        2.5996030     0.4200050     4.1380450
  H        2.7164420     1.1744210     3.3593000
  H        2.5134930     0.9448910     5.0897010
  H        3.5116950    -0.1742370     4.1648530
  C        1.3713310    -0.4433820     3.8804940
  H        1.2767620    -1.1888360     4.6735440
  H        1.4877510    -0.9968470     2.9466500
  C        0.0887930     0.3752320     3.8151920
  H       -0.0227770     0.9529660     4.7382760
  H        0.1680270     1.1080460     3.0055400
  C       -1.1555630    -0.4751040     3.5983120
  H       -1.2463650    -1.1895900     4.4197300
  H       -1.0277560    -1.0640410     2.6880980
  C       -2.4224020     0.3651880     3.5081980
  H       -2.3554890     1.0722390     2.6804280
  H       -3.3077440    -0.2508300     3.3543650
  H       -2.5727580     0.9413990     4.4214170
units angstrom
no_reorient
symmetry c1
}

set {
scf_type DF
mp2_type DF
e_convergence 7
reference rhf
}

energy('mp2/aug-cc-pv[tq]z', bsse_type='cp')
--------------------------------------------------------------------------

    Molecular point group: c1
  Charge       = 0
  Multiplicity = 1
  Basis Set: AUG-CC-PVTZ
    Blend: AUG-CC-PVTZ
  Basis Set: (AUG-CC-PVTZ AUX)
    Blend: AUG-CC-PVTZ-JKFIT
  @DF-RHF Final Energy:  -196.40428762937543
    Total Energy =                       -196.4042876293754318
  Basis Set: (AUG-CC-PVTZ AUX)
    Blend: AUG-CC-PVTZ-RI
	 Reference Energy          =    -196.4042876293754318 [Eh]
	 Singles Energy            =      -0.0000000000000000 [Eh]
	 Same-Spin Energy          =      -0.2079016636793445 [Eh]
	 Opposite-Spin Energy      =      -0.7931019897174636 [Eh]
	 Correlation Energy        =      -1.0010036533968081 [Eh]
	 Total Energy              =    -197.4052912827722537 [Eh]
	 SCS Total Energy          =    -197.4253105715961567 [Eh]
    Molecular point group: c1
  Basis Set: AUG-CC-PVQZ
    Blend: AUG-CC-PVQZ
  Basis Set: (AUG-CC-PVQZ AUX)
    Blend: AUG-CC-PVQZ-JKFIT
  @DF-RHF Final Energy:  -196.41610835807938
    Total Energy =                       -196.4161083580793843
  Basis Set: (AUG-CC-PVQZ AUX)
  @DF-RHF Final Energy:  -196.40440301500001
    Total Energy =                       -196.4044030150000140
  @DF-RHF Final Energy:  -196.41614491992195
    Total Energy =                       -196.4161449199219476
  @DF-RHF Final Energy:  -247.10313516758401
    Total Energy =                       -247.1031351675840142
  @DF-RHF Final Energy:  -247.11830092479360
    Total Energy =                       -247.1183009247936297
  @DF-RHF Final Energy:  -247.10274336155035
    Total Energy =                       -247.1027433615503242
  @DF-RHF Final Energy:  -247.11819667912377
    Total Energy =                       -247.1181966791237983
  Multiplicity = 1
  @DF-RHF Final Energy:  -443.45809235994528
    Total Energy =                       -443.4580923599453399
	 Singles Energy            =      -0.0000000000000000 [Eh]
	 Same-Spin Energy          =      -0.4719468049270471 [Eh]
	 Opposite-Spin Energy      =      -1.6290433988930895 [Eh]
	 Correlation Energy        =      -2.1009902038201367 [Eh]
	 Total Energy              =    -445.5590825637654007 [Eh]
	 SCS Total Energy          =    -445.5702600402593134 [Eh]
    Molecular point group: c1

    Geometry (in Angstrom), charge = 0, multiplicity = 1:

       Center              X                  Y                   Z               Mass
    ------------   -----------------  -----------------  -----------------  -----------------
         C            1.399597900961     1.040125664236    -1.371217464073    12.000000000000
         H            0.979582900961     2.041698664236    -1.308925464073     1.007825032230
         H            1.974828900961     0.954164664236    -2.291324464073     1.007825032230
         H            2.079108900961     0.879473664236    -0.539090464073     1.007825032230
         C            0.354143900961    -0.049998335764    -1.353843464073    12.000000000000
         O            0.646227900961    -1.224832335764    -1.170761464073    15.994914619570
         N           -0.922622099039     0.372535664236    -1.568127464073    14.003074004430
         H           -1.077265099039     1.349673664236    -1.735930464073     1.007825032230
         C           -2.032447099039    -0.549720335764    -1.661889464073    12.000000000000
         H           -1.641949099039    -1.539147335764    -1.444858464073     1.007825032230
         H           -2.807185099039    -0.303731335764    -0.938381464073     1.007825032230
         H           -2.463564099039    -0.551276335764    -2.661981464073     1.007825032230
         C            2.627009900961     0.447653664236     1.796002535927    12.000000000000
         H            2.743848900961     1.202069664236     1.017257535927     1.007825032230
         H            2.540899900961     0.972539664236     2.747658535927     1.007825032230
         H            3.539101900961    -0.146588335764     1.822810535927     1.007825032230
         C            1.398737900961    -0.415733335764     1.538451535927    12.000000000000
         H            1.304168900961    -1.161187335764     2.331501535927     1.007825032230
         H            1.515157900961    -0.969198335764     0.604607535927     1.007825032230
         C            0.116199900961     0.402880664236     1.473149535927    12.000000000000
         H            0.004629900961     0.980614664236     2.396233535927     1.007825032230
         H            0.195433900961     1.135694664236     0.663497535927     1.007825032230
         C           -1.128156099039    -0.447455335764     1.256269535927    12.000000000000
         H           -1.218958099039    -1.161941335764     2.077687535927     1.007825032230
         H           -1.000349099039    -1.036392335764     0.346055535927     1.007825032230
         C           -2.394995099039     0.392836664236     1.166155535927    12.000000000000
         H           -2.328082099039     1.099887664236     0.338385535927     1.007825032230
         H           -3.280337099039    -0.223181335764     1.012322535927     1.007825032230
         H           -2.545351099039     0.969047664236     2.079374535927     1.007825032230

  Charge       = 0
  Multiplicity = 1
  Basis Set: AUG-CC-PVQZ
    Blend: AUG-CC-PVQZ
  Basis Set: (AUG-CC-PVQZ AUX)
    Blend: AUG-CC-PVQZ-JKFIT

    Orbital Energies [Eh]
    ---------------------

    Doubly Occupied:

       1A    -20.511270     2A    -15.584320     3A    -11.349836
       4A    -11.251060     5A    -11.231923     6A    -11.205355
       7A    -11.202313     8A    -11.199999     9A    -11.199244
      10A    -11.191048    11A     -1.381569    12A     -1.233977
      13A     -1.075574    14A     -1.026760    15A     -1.006248
      16A     -0.936167    17A     -0.914651    18A     -0.817294
      19A     -0.792179    20A     -0.778595    21A     -0.694220
      22A     -0.681951    23A     -0.657416    24A     -0.625655
      25A     -0.599701    26A     -0.590132    27A     -0.585775
      28A     -0.566250    29A     -0.555785    30A     -0.552053
      31A     -0.547838    32A     -0.540492    33A     -0.527689
      34A     -0.500505    35A     -0.489586    36A     -0.470282
      37A     -0.453326    38A     -0.446229    39A     -0.439910
      40A     -0.423065    41A     -0.387869

  @DF-RHF Final Energy:  -443.48508211130417

   => Energetics <=

    Nuclear Repulsion Energy =            612.9815823456031012
    One-Electron Energy =               -1818.4830975771210433
    Two-Electron Energy =                 762.0164331202137191
    Total Energy =                       -443.4850821113042230

  Dipole Moment: [D]
     X:    -1.5733      Y:     3.0510      Z:    -1.0356     Total:     3.5856

  Basis Set: (AUG-CC-PVQZ AUX)
    Blend: AUG-CC-PVQZ-RI
	 Reference Energy          =    -443.4850821113041661 [Eh]
	 Singles Energy            =      -0.0000000000000000 [Eh]
	 Same-Spin Energy          =      -0.4983004410387485 [Eh]
	 Opposite-Spin Energy      =      -1.8099555099924762 [Eh]
	 Correlation Energy        =      -2.3082559510312248 [Eh]
	 Total Energy              =    -445.7933380623354083 [Eh]

	 ================> DF-SCS-MP2 Energies <==================
	-----------------------------------------------------------
	 SCS Same-Spin Scale       =       0.3333333333333333 [-]
	 SCS Opposite-Spin Scale   =       1.2000000000000000 [-]
	 SCS Same-Spin Energy      =      -0.1661001470129161 [Eh]
	 SCS Opposite-Spin Energy  =      -2.1719466119909714 [Eh]
	 SCS Correlation Energy    =      -2.3380467590038876 [Eh]
	 SCS Total Energy          =    -445.8231288703080395 [Eh]
	-----------------------------------------------------------

*** Psi4 exiting successfully. Buy a developer a beer!
