                               Psi4 1.4a2.dev224

  ==> Input File <==

--------------------------------------------------------------------------
#Generated by lconvert.py for cbs job

memory 40 GB

molecule  {
0 1
  C        1.3721910     1.0124770     0.9708250
  H        0.9521760     2.0140500     1.0331170
  H        1.9474220     0.9265160     0.0507180
  H        2.0517020     0.8518250     1.8029520
  C        0.3267370    -0.0776470     0.9881990
  O        0.6188210    -1.2524810     1.1712810
  N       -0.9500290     0.3448870     0.7739150
  H       -1.1046720     1.3220250     0.6061120
  C       -2.0598540    -0.5773690     0.6801530
  H       -1.6693560    -1.5667960     0.8971840
  H       -2.8345920    -0.3313800     1.4036610
  H       -2.4909710    -0.5789250    -0.3199390
--
0 1
  C        2.6216080     0.4354070     4.3958170
  H        2.7384470     1.1898230     3.6170720
  H        2.5354980     0.9602940     5.3474730
  H        3.5336990    -0.1588350     4.4226250
  C        1.3933360    -0.4279800     4.1382650
  H        1.2987660    -1.1734340     4.9313160
  H        1.5097560    -0.9814440     3.2044220
  C        0.1107980     0.3906340     4.0729640
  H       -0.0007720     0.9683690     4.9960480
  H        0.1900320     1.1234490     3.2633110
  C       -1.1335580    -0.4597010     3.8560840
  H       -1.2243600    -1.1741880     4.6775010
  H       -1.0057510    -1.0486390     2.9458700
  C       -2.4003970     0.3805900     3.7659690
  H       -2.3334840     1.0876410     2.9382000
  H       -3.2857390    -0.2354270     3.6121360
  H       -2.5507530     0.9568010     4.6791890
units angstrom
no_reorient
symmetry c1
}

set {
scf_type DF
mp2_type DF
e_convergence 7
reference rhf
}

energy('mp2/aug-cc-pv[tq]z', bsse_type='cp')
--------------------------------------------------------------------------

    Molecular point group: c1
  Charge       = 0
  Multiplicity = 1
  Basis Set: AUG-CC-PVTZ
    Blend: AUG-CC-PVTZ
  Basis Set: (AUG-CC-PVTZ AUX)
    Blend: AUG-CC-PVTZ-JKFIT
  @DF-RHF Final Energy:  -196.40428761875108
    Total Energy =                       -196.4042876187510842
  Basis Set: (AUG-CC-PVTZ AUX)
    Blend: AUG-CC-PVTZ-RI
	 Reference Energy          =    -196.4042876187510842 [Eh]
	 Singles Energy            =      -0.0000000000000000 [Eh]
	 Same-Spin Energy          =      -0.2079016704761096 [Eh]
	 Opposite-Spin Energy      =      -0.7931019943321789 [Eh]
	 Correlation Energy        =      -1.0010036648082885 [Eh]
	 Total Energy              =    -197.4052912835593645 [Eh]
	 SCS Total Energy          =    -197.4253105687750747 [Eh]
    Molecular point group: c1
  Basis Set: AUG-CC-PVQZ
    Blend: AUG-CC-PVQZ
  Basis Set: (AUG-CC-PVQZ AUX)
    Blend: AUG-CC-PVQZ-JKFIT
  @DF-RHF Final Energy:  -196.41610834599999
    Total Energy =                       -196.4161083459999873
  Basis Set: (AUG-CC-PVQZ AUX)
  @DF-RHF Final Energy:  -196.40437582423010
    Total Energy =                       -196.4043758242301010
  @DF-RHF Final Energy:  -196.41613827997995
    Total Energy =                       -196.4161382799799469
  @DF-RHF Final Energy:  -247.10306525643119
    Total Energy =                       -247.1030652564311936
  @DF-RHF Final Energy:  -247.11828609602068
    Total Energy =                       -247.1182860960206540
  @DF-RHF Final Energy:  -247.10274336120000
    Total Energy =                       -247.1027433611999982
  @DF-RHF Final Energy:  -247.11819667891638
    Total Energy =                       -247.1181966789163766
  Multiplicity = 1
  @DF-RHF Final Energy:  -443.48570209943392
    Total Energy =                       -443.4857020994338654
	 Singles Energy            =      -0.0000000000000000 [Eh]
	 Same-Spin Energy          =      -0.4663372215608858 [Eh]
	 Opposite-Spin Energy      =      -1.6216115577298718 [Eh]
	 Correlation Energy        =      -2.0879487792907576 [Eh]
	 Total Energy              =    -445.5736508787246635 [Eh]
	 SCS Total Energy          =    -445.5870817092300626 [Eh]
    Molecular point group: c1

    Geometry (in Angstrom), charge = 0, multiplicity = 1:

       Center              X                  Y                   Z               Mass
    ------------   -----------------  -----------------  -----------------  -----------------
         C            1.388668099227     1.032475420954    -1.499251835134    12.000000000000
         H            0.968653099227     2.034048420954    -1.436959835134     1.007825032230
         H            1.963899099227     0.946514420954    -2.419358835134     1.007825032230
         H            2.068179099227     0.871823420954    -0.667124835134     1.007825032230
         C            0.343214099227    -0.057648579046    -1.481877835134    12.000000000000
         O            0.635298099227    -1.232482579046    -1.298795835134    15.994914619570
         N           -0.933551900773     0.364885420954    -1.696161835134    14.003074004430
         H           -1.088194900773     1.342023420954    -1.863964835134     1.007825032230
         C           -2.043376900773    -0.557370579046    -1.789923835134    12.000000000000
         H           -1.652878900773    -1.546797579046    -1.572892835134     1.007825032230
         H           -2.818114900773    -0.311381579046    -1.066415835134     1.007825032230
         H           -2.474493900773    -0.558926579046    -2.790015835134     1.007825032230
         C            2.638085099227     0.455405420954     1.925740164866    12.000000000000
         H            2.754924099227     1.209821420954     1.146995164866     1.007825032230
         H            2.551975099227     0.980292420954     2.877396164866     1.007825032230
         H            3.550176099227    -0.138836579046     1.952548164866     1.007825032230
         C            1.409813099227    -0.407981579046     1.668188164866    12.000000000000
         H            1.315243099227    -1.153435579046     2.461239164866     1.007825032230
         H            1.526233099227    -0.961445579046     0.734345164866     1.007825032230
         C            0.127275099227     0.410632420954     1.602887164866    12.000000000000
         H            0.015705099227     0.988367420954     2.525971164866     1.007825032230
         H            0.206509099227     1.143447420954     0.793234164866     1.007825032230
         C           -1.117080900773    -0.439702579046     1.386007164866    12.000000000000
         H           -1.207882900773    -1.154189579046     2.207424164866     1.007825032230
         H           -0.989273900773    -1.028640579046     0.475793164866     1.007825032230
         C           -2.383919900773     0.400588420954     1.295892164866    12.000000000000
         H           -2.317006900773     1.107639420954     0.468123164866     1.007825032230
         H           -3.269261900773    -0.215428579046     1.142059164866     1.007825032230
         H           -2.534275900773     0.976799420954     2.209112164866     1.007825032230

  Charge       = 0
  Multiplicity = 1
  Basis Set: AUG-CC-PVQZ
    Blend: AUG-CC-PVQZ
  Basis Set: (AUG-CC-PVQZ AUX)
    Blend: AUG-CC-PVQZ-JKFIT

    Orbital Energies [Eh]
    ---------------------

    Doubly Occupied:

       1A    -20.511117     2A    -15.585466     3A    -11.349340
       4A    -11.253502     5A    -11.233753     6A    -11.205619
       7A    -11.203939     8A    -11.201707     9A    -11.201208
      10A    -11.196169    11A     -1.378619    12A     -1.232752
      13A     -1.075426    14A     -1.022991    15A     -1.008661
      16A     -0.934309    17A     -0.915385    18A     -0.815560
      19A     -0.791939    20A     -0.778771    21A     -0.693327
      22A     -0.669369    23A     -0.655715    24A     -0.618732
      25A     -0.602378    26A     -0.594419    27A     -0.585423
      28A     -0.568923    29A     -0.556547    30A     -0.550419
      31A     -0.546613    32A     -0.544350    33A     -0.526735
      34A     -0.504695    35A     -0.489512    36A     -0.470826
      37A     -0.454790    38A     -0.449607    39A     -0.440854
      40A     -0.423588    41A     -0.391573

  @DF-RHF Final Energy:  -443.51272515214441

   => Energetics <=

    Nuclear Repulsion Energy =            598.5614699239594074
    One-Electron Energy =               -1789.6791228691783999
    Two-Electron Energy =                 747.6049277930746939
    Total Energy =                       -443.5127251521444123

  Dipole Moment: [D]
     X:    -1.5844      Y:     3.1156      Z:    -1.0139     Total:     3.6394

  Basis Set: (AUG-CC-PVQZ AUX)
    Blend: AUG-CC-PVQZ-RI
	 Reference Energy          =    -443.5127251521444123 [Eh]
	 Singles Energy            =      -0.0000000000000000 [Eh]
	 Same-Spin Energy          =      -0.4926843964946993 [Eh]
	 Opposite-Spin Energy      =      -1.8032490125916376 [Eh]
	 Correlation Energy        =      -2.2959334090863370 [Eh]
	 Total Energy              =    -445.8086585612307431 [Eh]

	 ================> DF-SCS-MP2 Energies <==================
	-----------------------------------------------------------
	 SCS Same-Spin Scale       =       0.3333333333333333 [-]
	 SCS Opposite-Spin Scale   =       1.2000000000000000 [-]
	 SCS Same-Spin Energy      =      -0.1642281321648998 [Eh]
	 SCS Opposite-Spin Energy  =      -2.1638988151099650 [Eh]
	 SCS Correlation Energy    =      -2.3281269472748649 [Eh]
	 SCS Total Energy          =    -445.8408520994192941 [Eh]
	-----------------------------------------------------------

*** Psi4 exiting successfully. Buy a developer a beer!
