                               Psi4 1.4a2.dev224

  ==> Input File <==

--------------------------------------------------------------------------
#Generated by lconvert.py for cbs job

memory 40 GB

molecule  {
0 1
  C        1.3721910     1.0124770     0.9708250
  H        0.9521760     2.0140500     1.0331170
  H        1.9474220     0.9265160     0.0507180
  H        2.0517020     0.8518250     1.8029520
  C        0.3267370    -0.0776470     0.9881990
  O        0.6188210    -1.2524810     1.1712810
  N       -0.9500290     0.3448870     0.7739150
  H       -1.1046720     1.3220250     0.6061120
  C       -2.0598540    -0.5773690     0.6801530
  H       -1.6693560    -1.5667960     0.8971840
  H       -2.8345920    -0.3313800     1.4036610
  H       -2.4909710    -0.5789250    -0.3199390
--
0 1
  C        2.6863580     0.4807290     5.1543140
  H        2.8031970     1.2351450     4.3755690
  H        2.6002480     1.0056150     6.1059700
  H        3.5984490    -0.1135130     5.1811220
  C        1.4580860    -0.3826590     4.8967630
  H        1.3635160    -1.1281130     5.6898130
  H        1.5745060    -0.9361230     3.9629190
  C        0.1755480     0.4359550     4.8314610
  H        0.0639780     1.0136900     5.7545450
  H        0.2547820     1.1687700     4.0218090
  C       -1.0688080    -0.4143800     4.6145810
  H       -1.1596100    -1.1288670     5.4359990
  H       -0.9410010    -1.0033180     3.7043670
  C       -2.3356470     0.4259110     4.5244670
  H       -2.2687340     1.1329620     3.6966970
  H       -3.2209890    -0.1901060     4.3706340
  H       -2.4860030     1.0021220     5.4376860
units angstrom
no_reorient
symmetry c1
}

set {
scf_type DF
mp2_type DF
e_convergence 7
reference rhf
}

energy('mp2/aug-cc-pv[tq]z', bsse_type='cp')
--------------------------------------------------------------------------

    Molecular point group: c1
  Charge       = 0
  Multiplicity = 1
  Basis Set: AUG-CC-PVTZ
    Blend: AUG-CC-PVTZ
  Basis Set: (AUG-CC-PVTZ AUX)
    Blend: AUG-CC-PVTZ-JKFIT
  @DF-RHF Final Energy:  -196.40428761941126
    Total Energy =                       -196.4042876194112637
  Basis Set: (AUG-CC-PVTZ AUX)
    Blend: AUG-CC-PVTZ-RI
	 Reference Energy          =    -196.4042876194112637 [Eh]
	 Singles Energy            =      -0.0000000000000000 [Eh]
	 Same-Spin Energy          =      -0.2079016683035649 [Eh]
	 Opposite-Spin Energy      =      -0.7931019921366806 [Eh]
	 Correlation Energy        =      -1.0010036604402455 [Eh]
	 Total Energy              =    -197.4052912798514967 [Eh]
	 SCS Total Energy          =    -197.4253105660764618 [Eh]
    Molecular point group: c1
  Basis Set: AUG-CC-PVQZ
    Blend: AUG-CC-PVQZ
  Basis Set: (AUG-CC-PVQZ AUX)
    Blend: AUG-CC-PVQZ-JKFIT
  @DF-RHF Final Energy:  -196.41610834924401
    Total Energy =                       -196.4161083492440127
  Basis Set: (AUG-CC-PVQZ AUX)
  @DF-RHF Final Energy:  -196.40432724907126
    Total Energy =                       -196.4043272490712582
  @DF-RHF Final Energy:  -196.41612476540735
    Total Energy =                       -196.4161247654073463
  @DF-RHF Final Energy:  -247.10292463801883
    Total Energy =                       -247.1029246380188624
  @DF-RHF Final Energy:  -247.11824937007250
    Total Energy =                       -247.1182493700724763
  @DF-RHF Final Energy:  -247.10274336142822
    Total Energy =                       -247.1027433614282245
  @DF-RHF Final Energy:  -247.11819667911860
    Total Energy =                       -247.1181966791185687
  Multiplicity = 1
  @DF-RHF Final Energy:  -443.50593711100612
    Total Energy =                       -443.5059371110061193
	 Singles Energy            =      -0.0000000000000000 [Eh]
	 Same-Spin Energy          =      -0.4583767156634225 [Eh]
	 Opposite-Spin Energy      =      -1.6102287759340301 [Eh]
	 Correlation Energy        =      -2.0686054915974528 [Eh]
	 Total Energy              =    -445.5745426026035716 [Eh]
	 SCS Total Energy          =    -445.5910038806814555 [Eh]
    Molecular point group: c1

    Geometry (in Angstrom), charge = 0, multiplicity = 1:

       Center              X                  Y                   Z               Mass
    ------------   -----------------  -----------------  -----------------  -----------------
         C            1.356506973964     1.009964523496    -1.875995141450    12.000000000000
         H            0.936491973964     2.011537523496    -1.813703141450     1.007825032230
         H            1.931737973964     0.924003523496    -2.796102141450     1.007825032230
         H            2.036017973964     0.849312523496    -1.043868141450     1.007825032230
         C            0.311052973964    -0.080159476504    -1.858621141450    12.000000000000
         O            0.603136973964    -1.254993476504    -1.675539141450    15.994914619570
         N           -0.965713026036     0.342374523496    -2.072905141450    14.003074004430
         H           -1.120356026036     1.319512523496    -2.240708141450     1.007825032230
         C           -2.075538026036    -0.579881476504    -2.166667141450    12.000000000000
         H           -1.685040026036    -1.569308476504    -1.949636141450     1.007825032230
         H           -2.850276026036    -0.333892476504    -1.443159141450     1.007825032230
         H           -2.506655026036    -0.581437476504    -3.166759141450     1.007825032230
         C            2.670673973964     0.478216523496     2.307493858550    12.000000000000
         H            2.787512973964     1.232632523496     1.528748858550     1.007825032230
         H            2.584563973964     1.003102523496     3.259149858550     1.007825032230
         H            3.582764973964    -0.116025476504     2.334301858550     1.007825032230
         C            1.442401973964    -0.385171476504     2.049942858550    12.000000000000
         H            1.347831973964    -1.130625476504     2.842992858550     1.007825032230
         H            1.558821973964    -0.938635476504     1.116098858550     1.007825032230
         C            0.159863973964     0.433442523496     1.984640858550    12.000000000000
         H            0.048293973964     1.011177523496     2.907724858550     1.007825032230
         H            0.239097973964     1.166257523496     1.174988858550     1.007825032230
         C           -1.084492026036    -0.416892476504     1.767760858550    12.000000000000
         H           -1.175294026036    -1.131379476504     2.589178858550     1.007825032230
         H           -0.956685026036    -1.005830476504     0.857546858550     1.007825032230
         C           -2.351331026036     0.423398523496     1.677646858550    12.000000000000
         H           -2.284418026036     1.130449523496     0.849876858550     1.007825032230
         H           -3.236673026036    -0.192618476504     1.523813858550     1.007825032230
         H           -2.501687026036     0.999609523496     2.590865858550     1.007825032230

  Charge       = 0
  Multiplicity = 1
  Basis Set: AUG-CC-PVQZ
    Blend: AUG-CC-PVQZ
  Basis Set: (AUG-CC-PVQZ AUX)
    Blend: AUG-CC-PVQZ-JKFIT

    Orbital Energies [Eh]
    ---------------------

    Doubly Occupied:

       1A    -20.510393     2A    -15.585851     3A    -11.348395
       4A    -11.255473     5A    -11.235206     6A    -11.206341
       7A    -11.206045     8A    -11.205398     9A    -11.203553
      10A    -11.202695    11A     -1.375424    12A     -1.231374
      13A     -1.076731    14A     -1.020140    15A     -1.011424
      16A     -0.933148    17A     -0.916143    18A     -0.815981
      19A     -0.790898    20A     -0.780390    21A     -0.692239
      22A     -0.654027    23A     -0.649188    24A     -0.629625
      25A     -0.595177    26A     -0.595076    27A     -0.584762
      28A     -0.581197    29A     -0.556421    30A     -0.550469
      31A     -0.545631    32A     -0.545080    33A     -0.523927
      34A     -0.507015    35A     -0.491061    36A     -0.471957
      37A     -0.457426    38A     -0.454217    39A     -0.442699
      40A     -0.422927    41A     -0.393362

  @DF-RHF Final Energy:  -443.53306183392465

   => Energetics <=

    Nuclear Repulsion Energy =            563.7588602352964244
    One-Electron Energy =               -1720.0748596555704353
    Two-Electron Energy =                 712.7829375863493624
    Total Energy =                       -443.5330618339246485

  Dipole Moment: [D]
     X:    -1.6146      Y:     3.2651      Z:    -0.9430     Total:     3.7626

  Basis Set: (AUG-CC-PVQZ AUX)
    Blend: AUG-CC-PVQZ-RI
	 Reference Energy          =    -443.5330618339246485 [Eh]
	 Singles Energy            =      -0.0000000000000000 [Eh]
	 Same-Spin Energy          =      -0.4848203536123090 [Eh]
	 Opposite-Spin Energy      =      -1.7936260871685790 [Eh]
	 Correlation Energy        =      -2.2784464407808880 [Eh]
	 Total Energy              =    -445.8115082747055453 [Eh]

	 ================> DF-SCS-MP2 Energies <==================
	-----------------------------------------------------------
	 SCS Same-Spin Scale       =       0.3333333333333333 [-]
	 SCS Opposite-Spin Scale   =       1.2000000000000000 [-]
	 SCS Same-Spin Energy      =      -0.1616067845374363 [Eh]
	 SCS Opposite-Spin Energy  =      -2.1523513046022948 [Eh]
	 SCS Correlation Energy    =      -2.3139580891397311 [Eh]
	 SCS Total Energy          =    -445.8470199230643516 [Eh]
	-----------------------------------------------------------

*** Psi4 exiting successfully. Buy a developer a beer!
