                               Psi4 1.4a2.dev224

  ==> Input File <==

--------------------------------------------------------------------------
#Generated by lconvert.py for cbs job

memory 40 GB

molecule  {
0 1
  C        1.3721910     1.0124770     0.9708250
  H        0.9521760     2.0140500     1.0331170
  H        1.9474220     0.9265160     0.0507180
  H        2.0517020     0.8518250     1.8029520
  C        0.3267370    -0.0776470     0.9881990
  O        0.6188210    -1.2524810     1.1712810
  N       -0.9500290     0.3448870     0.7739150
  H       -1.1046720     1.3220250     0.6061120
  C       -2.0598540    -0.5773690     0.6801530
  H       -1.6693560    -1.5667960     0.8971840
  H       -2.8345920    -0.3313800     1.4036610
  H       -2.4909710    -0.5789250    -0.3199390
--
0 1
  C        2.6541560     0.4581890     4.7770910
  H        2.7709950     1.2126050     3.9983460
  H        2.5680450     0.9830750     5.7287470
  H        3.5662470    -0.1360530     4.8038990
  C        1.4258840    -0.4051990     4.5195390
  H        1.3313140    -1.1506530     5.3125900
  H        1.5423040    -0.9586630     3.5856950
  C        0.1433460     0.4134150     4.4542380
  H        0.0317750     0.9911500     5.3773210
  H        0.2225800     1.1462300     3.6445850
  C       -1.1010110    -0.4369200     4.2373580
  H       -1.1918120    -1.1514060     5.0587750
  H       -0.9732040    -1.0258580     3.3271430
  C       -2.3678490     0.4033720     4.1472430
  H       -2.3009360     1.1104230     3.3194740
  H       -3.2531910    -0.2126460     3.9934100
  H       -2.5182050     0.9795830     5.0604630
units angstrom
no_reorient
symmetry c1
}

set {
scf_type DF
mp2_type DF
e_convergence 7
reference rhf
}

energy('mp2/aug-cc-pv[tq]z', bsse_type='cp')
--------------------------------------------------------------------------

    Molecular point group: c1
  Charge       = 0
  Multiplicity = 1
  Basis Set: AUG-CC-PVTZ
    Blend: AUG-CC-PVTZ
  Basis Set: (AUG-CC-PVTZ AUX)
    Blend: AUG-CC-PVTZ-JKFIT
  @DF-RHF Final Energy:  -196.40428761536796
    Total Energy =                       -196.4042876153679629
  Basis Set: (AUG-CC-PVTZ AUX)
    Blend: AUG-CC-PVTZ-RI
	 Reference Energy          =    -196.4042876153679629 [Eh]
	 Singles Energy            =      -0.0000000000000000 [Eh]
	 Same-Spin Energy          =      -0.2079016631518625 [Eh]
	 Opposite-Spin Energy      =      -0.7931019983935912 [Eh]
	 Correlation Energy        =      -1.0010036615454536 [Eh]
	 Total Energy              =    -197.4052912769134025 [Eh]
	 SCS Total Energy          =    -197.4253105678242264 [Eh]
    Molecular point group: c1
  Basis Set: AUG-CC-PVQZ
    Blend: AUG-CC-PVQZ
  Basis Set: (AUG-CC-PVQZ AUX)
    Blend: AUG-CC-PVQZ-JKFIT
  @DF-RHF Final Energy:  -196.41610834180992
    Total Energy =                       -196.4161083418099167
  Basis Set: (AUG-CC-PVQZ AUX)
  @DF-RHF Final Energy:  -196.40434488090401
    Total Energy =                       -196.4043448809040058
  @DF-RHF Final Energy:  -196.41613069407720
    Total Energy =                       -196.4161306940771965
  @DF-RHF Final Energy:  -247.10298561906507
    Total Energy =                       -247.1029856190650662
  @DF-RHF Final Energy:  -247.11826581488327
    Total Energy =                       -247.1182658148832729
  @DF-RHF Final Energy:  -247.10274336112991
    Total Energy =                       -247.1027433611299102
  @DF-RHF Final Energy:  -247.11819667930615
    Total Energy =                       -247.1181966793061520
  Multiplicity = 1
  @DF-RHF Final Energy:  -443.50142397718287
    Total Energy =                       -443.5014239771828670
	 Singles Energy            =      -0.0000000000000000 [Eh]
	 Same-Spin Energy          =      -0.4612117468489256 [Eh]
	 Opposite-Spin Energy      =      -1.6145117578176034 [Eh]
	 Correlation Energy        =      -2.0757235046665290 [Eh]
	 Total Energy              =    -445.5771474818494085 [Eh]
	 SCS Total Energy          =    -445.5925753355136294 [Eh]
    Molecular point group: c1

    Geometry (in Angstrom), charge = 0, multiplicity = 1:

       Center              X                  Y                   Z               Mass
    ------------   -----------------  -----------------  -----------------  -----------------
         C            1.372501711535     1.021159968460    -1.688629433973    12.000000000000
         H            0.952486711535     2.022732968460    -1.626337433973     1.007825032230
         H            1.947732711535     0.935198968460    -2.608736433973     1.007825032230
         H            2.052012711535     0.860507968460    -0.856502433973     1.007825032230
         C            0.327047711535    -0.068964031540    -1.671255433973    12.000000000000
         O            0.619131711535    -1.243798031540    -1.488173433973    15.994914619570
         N           -0.949718288465     0.353569968460    -1.885539433973    14.003074004430
         H           -1.104361288465     1.330707968460    -2.053342433973     1.007825032230
         C           -2.059543288465    -0.568686031540    -1.979301433973    12.000000000000
         H           -1.669045288465    -1.558113031540    -1.762270433973     1.007825032230
         H           -2.834281288465    -0.322697031540    -1.255793433973     1.007825032230
         H           -2.490660288465    -0.570242031540    -2.979393433973     1.007825032230
         C            2.654466711535     0.466871968460     2.117636566027    12.000000000000
         H            2.771305711535     1.221287968460     1.338891566027     1.007825032230
         H            2.568355711535     0.991757968460     3.069292566027     1.007825032230
         H            3.566557711535    -0.127370031540     2.144444566027     1.007825032230
         C            1.426194711535    -0.396516031540     1.860084566027    12.000000000000
         H            1.331624711535    -1.141970031540     2.653135566027     1.007825032230
         H            1.542614711535    -0.949980031540     0.926240566027     1.007825032230
         C            0.143656711535     0.422097968460     1.794783566027    12.000000000000
         H            0.032085711535     0.999832968460     2.717866566027     1.007825032230
         H            0.222890711535     1.154912968460     0.985130566027     1.007825032230
         C           -1.100700288465    -0.428237031540     1.577903566027    12.000000000000
         H           -1.191501288465    -1.142723031540     2.399320566027     1.007825032230
         H           -0.972893288465    -1.017175031540     0.667688566027     1.007825032230
         C           -2.367538288465     0.412054968460     1.487788566027    12.000000000000
         H           -2.300625288465     1.119105968460     0.660019566027     1.007825032230
         H           -3.252880288465    -0.203963031540     1.333955566027     1.007825032230
         H           -2.517894288465     0.988265968460     2.401008566027     1.007825032230

  Charge       = 0
  Multiplicity = 1
  Basis Set: AUG-CC-PVQZ
    Blend: AUG-CC-PVQZ
  Basis Set: (AUG-CC-PVQZ AUX)
    Blend: AUG-CC-PVQZ-JKFIT

    Orbital Energies [Eh]
    ---------------------

    Doubly Occupied:

       1A    -20.510795     2A    -15.585941     3A    -11.348832
       4A    -11.255045     5A    -11.234902     6A    -11.205973
       7A    -11.205362     8A    -11.204067     9A    -11.202307
      10A    -11.200728    11A     -1.376483    12A     -1.231874
      13A     -1.076006    14A     -1.020835    15A     -1.010529
      16A     -0.933452    17A     -0.915853    18A     -0.815447
      19A     -0.791375    20A     -0.779566    21A     -0.692642
      22A     -0.656625    23A     -0.654389    24A     -0.623461
      25A     -0.599807    26A     -0.594739    27A     -0.584473
      28A     -0.576736    29A     -0.556607    30A     -0.549996
      31A     -0.545996    32A     -0.544963    33A     -0.524707
      34A     -0.507043    35A     -0.490259    36A     -0.471335
      37A     -0.456324    38A     -0.452555    39A     -0.441941
      40A     -0.423422    41A     -0.393231

  @DF-RHF Final Energy:  -443.52850167275608

   => Energetics <=

    Nuclear Repulsion Energy =            579.7988292533934782
    One-Electron Energy =               -1752.1614025534684060
    Two-Electron Energy =                 728.8340716273188491
    Total Energy =                       -443.5285016727560787

  Dipole Moment: [D]
     X:    -1.6006      Y:     3.1976      Z:    -0.9759     Total:     3.7066

  Basis Set: (AUG-CC-PVQZ AUX)
    Blend: AUG-CC-PVQZ-RI
	 Reference Energy          =    -443.5285016727560787 [Eh]
	 Singles Energy            =      -0.0000000000000000 [Eh]
	 Same-Spin Energy          =      -0.4875964324725374 [Eh]
	 Opposite-Spin Energy      =      -1.7970391003893291 [Eh]
	 Correlation Energy        =      -2.2846355328618664 [Eh]
	 Total Energy              =    -445.8131372056179202 [Eh]

	 ================> DF-SCS-MP2 Energies <==================
	-----------------------------------------------------------
	 SCS Same-Spin Scale       =       0.3333333333333333 [-]
	 SCS Opposite-Spin Scale   =       1.2000000000000000 [-]
	 SCS Same-Spin Energy      =      -0.1625321441575124 [Eh]
	 SCS Opposite-Spin Energy  =      -2.1564469204671948 [Eh]
	 SCS Correlation Energy    =      -2.3189790646247070 [Eh]
	 SCS Total Energy          =    -445.8474807373808062 [Eh]
	-----------------------------------------------------------

*** Psi4 exiting successfully. Buy a developer a beer!
