                               Psi4 1.4a2.dev224

  ==> Input File <==

--------------------------------------------------------------------------
#Generated by lconvert.py for cbs job

memory 40 GB

molecule  {
0 1
  C        1.3721910     1.0124770     0.9708250
  H        0.9521760     2.0140500     1.0331170
  H        1.9474220     0.9265160     0.0507180
  H        2.0517020     0.8518250     1.8029520
  C        0.3267370    -0.0776470     0.9881990
  O        0.6188210    -1.2524810     1.1712810
  N       -0.9500290     0.3448870     0.7739150
  H       -1.1046720     1.3220250     0.6061120
  C       -2.0598540    -0.5773690     0.6801530
  H       -1.6693560    -1.5667960     0.8971840
  H       -2.8345920    -0.3313800     1.4036610
  H       -2.4909710    -0.5789250    -0.3199390
--
0 1
  C        2.6433550     0.4506290     4.6505690
  H        2.7601940     1.2050450     3.8718250
  H        2.5572450     0.9755160     5.6022250
  H        3.5554470    -0.1436130     4.6773770
  C        1.4150830    -0.4127580     4.3930180
  H        1.3205140    -1.1582120     5.1860690
  H        1.5315030    -0.9662230     3.4591740
  C        0.1325450     0.4058560     4.3277160
  H        0.0209750     0.9835910     5.2508000
  H        0.2117790     1.1386710     3.5180640
  C       -1.1118110    -0.4444800     4.1108370
  H       -1.2026130    -1.1589660     4.9322540
  H       -0.9840040    -1.0334170     3.2006220
  C       -2.3786500     0.3958120     4.0207220
  H       -2.3117360     1.1028630     3.1929530
  H       -3.2639920    -0.2202060     3.8668890
  H       -2.5290060     0.9720230     4.9339410
units angstrom
no_reorient
symmetry c1
}

set {
scf_type DF
mp2_type DF
e_convergence 7
reference rhf
}

energy('mp2/aug-cc-pv[tq]z', bsse_type='cp')
--------------------------------------------------------------------------

    Molecular point group: c1
  Charge       = 0
  Multiplicity = 1
  Basis Set: AUG-CC-PVTZ
    Blend: AUG-CC-PVTZ
  Basis Set: (AUG-CC-PVTZ AUX)
    Blend: AUG-CC-PVTZ-JKFIT
  @DF-RHF Final Energy:  -196.40428761758230
    Total Energy =                       -196.4042876175822983
  Basis Set: (AUG-CC-PVTZ AUX)
    Blend: AUG-CC-PVTZ-RI
	 Reference Energy          =    -196.4042876175822983 [Eh]
	 Singles Energy            =      -0.0000000000000000 [Eh]
	 Same-Spin Energy          =      -0.2079016650019070 [Eh]
	 Opposite-Spin Energy      =      -0.7931019959193544 [Eh]
	 Correlation Energy        =      -1.0010036609212614 [Eh]
	 Total Energy              =    -197.4052912785035687 [Eh]
	 SCS Total Energy          =    -197.4253105676861537 [Eh]
    Molecular point group: c1
  Basis Set: AUG-CC-PVQZ
    Blend: AUG-CC-PVQZ
  Basis Set: (AUG-CC-PVQZ AUX)
    Blend: AUG-CC-PVQZ-JKFIT
  @DF-RHF Final Energy:  -196.41610834383459
    Total Energy =                       -196.4161083438345941
  Basis Set: (AUG-CC-PVQZ AUX)
  @DF-RHF Final Energy:  -196.40435352252769
    Total Energy =                       -196.4043535225276855
  @DF-RHF Final Energy:  -196.41613302047261
    Total Energy =                       -196.4161330204726141
  @DF-RHF Final Energy:  -247.10300921294595
    Total Energy =                       -247.1030092129459490
  @DF-RHF Final Energy:  -247.11827245320626
    Total Energy =                       -247.1182724532062593
  @DF-RHF Final Energy:  -247.10274336078680
    Total Energy =                       -247.1027433607868034
  @DF-RHF Final Energy:  -247.11819667815092
    Total Energy =                       -247.1181966781509232
  Multiplicity = 1
  @DF-RHF Final Energy:  -443.49812447148099
    Total Energy =                       -443.4981244714809918
	 Singles Energy            =      -0.0000000000000000 [Eh]
	 Same-Spin Energy          =      -0.4625927811852319 [Eh]
	 Opposite-Spin Energy      =      -1.6164824148766059 [Eh]
	 Correlation Energy        =      -2.0790751960618379 [Eh]
	 Total Energy              =    -445.5771996675428568 [Eh]
	 SCS Total Energy          =    -445.5921009630613412 [Eh]
    Molecular point group: c1

    Geometry (in Angstrom), charge = 0, multiplicity = 1:

       Center              X                  Y                   Z               Mass
    ------------   -----------------  -----------------  -----------------  -----------------
         C            1.377866410581     1.024914797072    -1.625786657377    12.000000000000
         H            0.957851410581     2.026487797072    -1.563494657377     1.007825032230
         H            1.953097410581     0.938953797072    -2.545893657377     1.007825032230
         H            2.057377410581     0.864262797072    -0.793659657377     1.007825032230
         C            0.332412410581    -0.065209202928    -1.608412657377    12.000000000000
         O            0.624496410581    -1.240043202928    -1.425330657377    15.994914619570
         N           -0.944353589419     0.357324797072    -1.822696657377    14.003074004430
         H           -1.098996589419     1.334462797072    -1.990499657377     1.007825032230
         C           -2.054178589419    -0.564931202928    -1.916458657377    12.000000000000
         H           -1.663680589419    -1.554358202928    -1.699427657377     1.007825032230
         H           -2.828916589419    -0.318942202928    -1.192950657377     1.007825032230
         H           -2.485295589419    -0.566487202928    -2.916550657377     1.007825032230
         C            2.649030410581     0.463066797072     2.053957342623    12.000000000000
         H            2.765869410581     1.217482797072     1.275213342623     1.007825032230
         H            2.562920410581     0.987953797072     3.005613342623     1.007825032230
         H            3.561122410581    -0.131175202928     2.080765342623     1.007825032230
         C            1.420758410581    -0.400320202928     1.796406342623    12.000000000000
         H            1.326189410581    -1.145774202928     2.589457342623     1.007825032230
         H            1.537178410581    -0.953785202928     0.862562342623     1.007825032230
         C            0.138220410581     0.418293797072     1.731104342623    12.000000000000
         H            0.026650410581     0.996028797072     2.654188342623     1.007825032230
         H            0.217454410581     1.151108797072     0.921452342623     1.007825032230
         C           -1.106135589419    -0.432042202928     1.514225342623    12.000000000000
         H           -1.196937589419    -1.146528202928     2.335642342623     1.007825032230
         H           -0.978328589419    -1.020979202928     0.604010342623     1.007825032230
         C           -2.372974589419     0.408249797072     1.424110342623    12.000000000000
         H           -2.306060589419     1.115300797072     0.596341342623     1.007825032230
         H           -3.258316589419    -0.207768202928     1.270277342623     1.007825032230
         H           -2.523330589419     0.984460797072     2.337329342623     1.007825032230

  Charge       = 0
  Multiplicity = 1
  Basis Set: AUG-CC-PVQZ
    Blend: AUG-CC-PVQZ
  Basis Set: (AUG-CC-PVQZ AUX)
    Blend: AUG-CC-PVQZ-JKFIT

    Orbital Energies [Eh]
    ---------------------

    Doubly Occupied:

       1A    -20.510915     2A    -15.585881     3A    -11.348990
       4A    -11.254713     5A    -11.234655     6A    -11.205873
       7A    -11.204983     8A    -11.203417     9A    -11.202003
      10A    -11.199510    11A     -1.377017    12A     -1.232102
      13A     -1.075770    14A     -1.021291    15A     -1.010065
      16A     -0.933626    17A     -0.915732    18A     -0.815342
      19A     -0.791561    20A     -0.779279    21A     -0.692822
      22A     -0.660084    23A     -0.654795    24A     -0.620944
      25A     -0.601607    26A     -0.594646    27A     -0.584696
      28A     -0.574336    29A     -0.556665    30A     -0.549933
      31A     -0.546196    32A     -0.544866    33A     -0.525252
      34A     -0.506666    35A     -0.489974    36A     -0.471150
      37A     -0.455868    38A     -0.451761    39A     -0.441621
      40A     -0.423549    41A     -0.392957

  @DF-RHF Final Energy:  -443.52518501740900

   => Energetics <=

    Nuclear Repulsion Energy =            585.7154477174505018
    One-Electron Energy =               -1763.9950327873252718
    Two-Electron Energy =                 734.7544000524658259
    Total Energy =                       -443.5251850174090578

  Dipole Moment: [D]
     X:    -1.5953      Y:     3.1720      Z:    -0.9884     Total:     3.6856

  Basis Set: (AUG-CC-PVQZ AUX)
    Blend: AUG-CC-PVQZ-RI
	 Reference Energy          =    -443.5251850174090009 [Eh]
	 Singles Energy            =      -0.0000000000000000 [Eh]
	 Same-Spin Energy          =      -0.4889610379337911 [Eh]
	 Opposite-Spin Energy      =      -1.7987162236544414 [Eh]
	 Correlation Energy        =      -2.2876772615882324 [Eh]
	 Total Energy              =    -445.8128622789972155 [Eh]

	 ================> DF-SCS-MP2 Energies <==================
	-----------------------------------------------------------
	 SCS Same-Spin Scale       =       0.3333333333333333 [-]
	 SCS Opposite-Spin Scale   =       1.2000000000000000 [-]
	 SCS Same-Spin Energy      =      -0.1629870126445970 [Eh]
	 SCS Opposite-Spin Energy  =      -2.1584594683853298 [Eh]
	 SCS Correlation Energy    =      -2.3214464810299269 [Eh]
	 SCS Total Energy          =    -445.8466314984389101 [Eh]
	-----------------------------------------------------------

*** Psi4 exiting successfully. Buy a developer a beer!
