                               Psi4 1.4a2.dev224

  ==> Input File <==

--------------------------------------------------------------------------
#Generated by lconvert.py for cbs job

memory 40 GB

molecule  {
0 1
  C        1.3721910     1.0124770     0.9708250
  H        0.9521760     2.0140500     1.0331170
  H        1.9474220     0.9265160     0.0507180
  H        2.0517020     0.8518250     1.8029520
  C        0.3267370    -0.0776470     0.9881990
  O        0.6188210    -1.2524810     1.1712810
  N       -0.9500290     0.3448870     0.7739150
  H       -1.1046720     1.3220250     0.6061120
  C       -2.0598540    -0.5773690     0.6801530
  H       -1.6693560    -1.5667960     0.8971840
  H       -2.8345920    -0.3313800     1.4036610
  H       -2.4909710    -0.5789250    -0.3199390
--
0 1
  C        2.5996030     0.4200050     4.1380450
  H        2.7164420     1.1744210     3.3593000
  H        2.5134930     0.9448910     5.0897010
  H        3.5116950    -0.1742370     4.1648530
  C        1.3713310    -0.4433820     3.8804940
  H        1.2767620    -1.1888360     4.6735440
  H        1.4877510    -0.9968470     2.9466500
  C        0.0887930     0.3752320     3.8151920
  H       -0.0227770     0.9529660     4.7382760
  H        0.1680270     1.1080460     3.0055400
  C       -1.1555630    -0.4751040     3.5983120
  H       -1.2463650    -1.1895900     4.4197300
  H       -1.0277560    -1.0640410     2.6880980
  C       -2.4224020     0.3651880     3.5081980
  H       -2.3554890     1.0722390     2.6804280
  H       -3.3077440    -0.2508300     3.3543650
  H       -2.5727580     0.9413990     4.4214170
units angstrom
no_reorient
symmetry c1
}

set {
scf_type DF
mp2_type DF
e_convergence 7
reference rhf
}

energy('mp2/aug-cc-pv[tq]z', bsse_type='cp')
--------------------------------------------------------------------------

    Molecular point group: c1
  Charge       = 0
  Multiplicity = 1
  Basis Set: AUG-CC-PVTZ
    Blend: AUG-CC-PVTZ
  Basis Set: (AUG-CC-PVTZ AUX)
    Blend: AUG-CC-PVTZ-JKFIT
  @DF-RHF Final Energy:  -196.40428762937543
    Total Energy =                       -196.4042876293754318
  Basis Set: (AUG-CC-PVTZ AUX)
    Blend: AUG-CC-PVTZ-RI
	 Reference Energy          =    -196.4042876293754318 [Eh]
	 Singles Energy            =      -0.0000000000000000 [Eh]
	 Same-Spin Energy          =      -0.2079016636793445 [Eh]
	 Opposite-Spin Energy      =      -0.7931019897174636 [Eh]
	 Correlation Energy        =      -1.0010036533968081 [Eh]
	 Total Energy              =    -197.4052912827722537 [Eh]
	 SCS Total Energy          =    -197.4253105715961567 [Eh]
    Molecular point group: c1
  Basis Set: AUG-CC-PVQZ
    Blend: AUG-CC-PVQZ
  Basis Set: (AUG-CC-PVQZ AUX)
    Blend: AUG-CC-PVQZ-JKFIT
  @DF-RHF Final Energy:  -196.41610835807938
    Total Energy =                       -196.4161083580793843
  Basis Set: (AUG-CC-PVQZ AUX)
  @DF-RHF Final Energy:  -196.40440301500001
    Total Energy =                       -196.4044030150000140
  @DF-RHF Final Energy:  -196.41614491992195
    Total Energy =                       -196.4161449199219476
  @DF-RHF Final Energy:  -247.10313516758401
    Total Energy =                       -247.1031351675840142
  @DF-RHF Final Energy:  -247.11830092479360
    Total Energy =                       -247.1183009247936297
  @DF-RHF Final Energy:  -247.10274336155035
    Total Energy =                       -247.1027433615503242
  @DF-RHF Final Energy:  -247.11819667912377
    Total Energy =                       -247.1181966791237983
  @DF-RHF Final Energy:  -443.45809235994528
    Total Energy =                       -443.4580923599453399
  @DF-RHF Final Energy:  -443.48508211130417
    Total Energy =                       -443.4850821113042230
*** Psi4 exiting successfully. Buy a developer a beer!
                               Psi4 1.4a2.dev224
  @DF-RHF Final Energy:  -196.40428761875108
    Total Energy =                       -196.4042876187510842
  @DF-RHF Final Energy:  -196.41610834599999
    Total Energy =                       -196.4161083459999873
  @DF-RHF Final Energy:  -196.40437582423010
    Total Energy =                       -196.4043758242301010
  @DF-RHF Final Energy:  -196.41613827997995
    Total Energy =                       -196.4161382799799469
  @DF-RHF Final Energy:  -247.10306525643119
    Total Energy =                       -247.1030652564311936
  @DF-RHF Final Energy:  -247.11828609602068
    Total Energy =                       -247.1182860960206540
  @DF-RHF Final Energy:  -247.10274336120000
    Total Energy =                       -247.1027433611999982
  @DF-RHF Final Energy:  -247.11819667891638
    Total Energy =                       -247.1181966789163766
  @DF-RHF Final Energy:  -443.48570209943392
    Total Energy =                       -443.4857020994338654
  @DF-RHF Final Energy:  -443.51272515214441
    Total Energy =                       -443.5127251521444123
*** Psi4 exiting successfully. Buy a developer a beer!
                               Psi4 1.4a2.dev224
                               Psi4 1.4a2.dev224
                               Psi4 1.4a2.dev224
                               Psi4 1.4a2.dev224
                               Psi4 1.4a2.dev224
                               Psi4 1.4a2.dev224
                               Psi4 1.4a2.dev224
  @DF-RHF Final Energy:  -196.40428780854467
    Total Energy =                       -196.4042878085446659
  @DF-RHF Final Energy:  -196.41610855258341
    Total Energy =                       -196.4161085525834096
  @DF-RHF Final Energy:  -196.40430086770354
    Total Energy =                       -196.4043008677035402
  @DF-RHF Final Energy:  -196.41611559005074
    Total Energy =                       -196.4161155900507367
  @DF-RHF Final Energy:  -247.10280512280261
    Total Energy =                       -247.1028051228026357
  @DF-RHF Final Energy:  -247.11821859052279
    Total Energy =                       -247.1182185905228152
  @DF-RHF Final Energy:  -247.10274359243175
    Total Energy =                       -247.1027435924317501
  @DF-RHF Final Energy:  -247.11819693177790
    Total Energy =                       -247.1181969317779021
  @DF-RHF Final Energy:  -443.50728555562711
    Total Energy =                       -443.5072855556270497
  @DF-RHF Final Energy:  -443.53451370880003
    Total Energy =                       -443.5345137087999774
*** Psi4 exiting successfully. Buy a developer a beer!
                               Psi4 1.4a2.dev224
  @DF-RHF Final Energy:  -196.40428756652483
    Total Energy =                       -196.4042875665248289
  @DF-RHF Final Energy:  -196.41610828767566
    Total Energy =                       -196.4161082876756552
  @DF-RHF Final Energy:  -196.40429464296045
    Total Energy =                       -196.4042946429604513
  @DF-RHF Final Energy:  -196.41611265749748
    Total Energy =                       -196.4161126574974787
  @DF-RHF Final Energy:  -247.10277254655173
    Total Energy =                       -247.1027725465517051
  @DF-RHF Final Energy:  -247.11820929267247
    Total Energy =                       -247.1182092926724749
  @DF-RHF Final Energy:  -247.10274359297270
    Total Energy =                       -247.1027435929727289
  @DF-RHF Final Energy:  -247.11819693220849
    Total Energy =                       -247.1181969322084910
  Multiplicity = 1
  @DF-RHF Final Energy:  -443.50717230163434
    Total Energy =                       -443.5071723016343412
	 Singles Energy            =      -0.0000000000000000 [Eh]
	 Same-Spin Energy          =      -0.4546810061025686 [Eh]
	 Opposite-Spin Energy      =      -1.6037441808177721 [Eh]
	 Correlation Energy        =      -2.0584251869203407 [Eh]
	 Total Energy              =    -445.5655974885546584 [Eh]
	 SCS Total Energy          =    -445.5832256539831633 [Eh]
    Molecular point group: c1

    Geometry (in Angstrom), charge = 0, multiplicity = 1:

       Center              X                  Y                   Z               Mass
    ------------   -----------------  -----------------  -----------------  -----------------
         C            1.269066758843     0.948765806244    -2.900267501676    12.000000000000
         H            0.849056758843     1.950335806244    -2.837977501676     1.007825032230
         H            1.844296758843     0.862805806244    -3.820377501676     1.007825032230
         H            1.948576758843     0.788115806244    -2.068147501676     1.007825032230
         C            0.223616758843    -0.141364193756    -2.882897501676    12.000000000000
         O            0.515696758843    -1.316194193756    -2.699817501676    15.994914619570
         N           -1.053153241157     0.281175806244    -3.097177501676    14.003074004430
         H           -1.207793241157     1.258315806244    -3.264987501676     1.007825032230
         C           -2.162973241157    -0.641084193756    -3.190947501676    12.000000000000
         H           -1.772483241157    -1.630514193756    -2.973917501676     1.007825032230
         H           -2.937713241157    -0.395094193756    -2.467437501676     1.007825032230
         H           -2.594093241157    -0.642644193756    -4.191037501676     1.007825032230
         C            2.759276758843     0.540225806244     3.345392498324    12.000000000000
         H            2.876116758843     1.294645806244     2.566642498324     1.007825032230
         H            2.673166758843     1.065115806244     4.297052498324     1.007825032230
         H            3.671366758843    -0.054014193756     3.372202498324     1.007825032230
         C            1.531006758843    -0.323154193756     3.087842498324    12.000000000000
         H            1.436436758843    -1.068614193756     3.880892498324     1.007825032230
         H            1.647426758843    -0.876624193756     2.154002498324     1.007825032230
         C            0.248466758843     0.495455806244     3.022542498324    12.000000000000
         H            0.136896758843     1.073195806244     3.945622498324     1.007825032230
         H            0.327696758843     1.228275806244     2.212892498324     1.007825032230
         C           -0.995893241157    -0.354874193756     2.805662498324    12.000000000000
         H           -1.086693241157    -1.069364193756     3.627072498324     1.007825032230
         H           -0.868083241157    -0.943814193756     1.895442498324     1.007825032230
         C           -2.262733241157     0.485415806244     2.715542498324    12.000000000000
         H           -2.195813241157     1.192465806244     1.887772498324     1.007825032230
         H           -3.148073241157    -0.130604193756     2.561712498324     1.007825032230
         H           -2.413083241157     1.061625806244     3.628762498324     1.007825032230

  Charge       = 0
  Multiplicity = 1
  Basis Set: AUG-CC-PVQZ
    Blend: AUG-CC-PVQZ
  Basis Set: (AUG-CC-PVQZ AUX)
    Blend: AUG-CC-PVQZ-JKFIT

    Orbital Energies [Eh]
    ---------------------

    Doubly Occupied:

       1A    -20.508895     2A    -15.584879     3A    -11.347029
       4A    -11.255189     5A    -11.234653     6A    -11.209028
       7A    -11.208523     8A    -11.207306     9A    -11.205753
      10A    -11.204195    11A     -1.373567    12A     -1.230211
      13A     -1.078970    14A     -1.019112    15A     -1.013215
      16A     -0.932396    17A     -0.917051    18A     -0.817923
      19A     -0.789729    20A     -0.782846    21A     -0.691206
      22A     -0.652698    23A     -0.645374    24A     -0.634027
      25A     -0.596539    26A     -0.591062    27A     -0.588438
      28A     -0.581170    29A     -0.555624    30A     -0.552228
      31A     -0.546045    32A     -0.544383    33A     -0.524044
      34A     -0.505397    35A     -0.493126    36A     -0.474192
      37A     -0.460034    38A     -0.457217    39A     -0.444507
      40A     -0.421349    41A     -0.392300

  @DF-RHF Final Energy:  -443.53442722587039

   => Energetics <=

    Nuclear Repulsion Energy =            504.8170440618940233
    One-Electron Energy =               -1602.1600711270245938
    Two-Electron Energy =                 653.8085998392602960
    Total Energy =                       -443.5344272258703313

  Dipole Moment: [D]
     X:    -1.6571      Y:     3.4671      Z:    -0.8596     Total:     3.9377

  Basis Set: (AUG-CC-PVQZ AUX)
    Blend: AUG-CC-PVQZ-RI
	 Reference Energy          =    -443.5344272258703882 [Eh]
	 Singles Energy            =      -0.0000000000000000 [Eh]
	 Same-Spin Energy          =      -0.4813052424651239 [Eh]
	 Opposite-Spin Energy      =      -1.7891066679696255 [Eh]
	 Correlation Energy        =      -2.2704119104347495 [Eh]
	 Total Energy              =    -445.8048391363051337 [Eh]

	 ================> DF-SCS-MP2 Energies <==================
	-----------------------------------------------------------
	 SCS Same-Spin Scale       =       0.3333333333333333 [-]
	 SCS Opposite-Spin Scale   =       1.2000000000000000 [-]
	 SCS Same-Spin Energy      =      -0.1604350808217080 [Eh]
	 SCS Opposite-Spin Energy  =      -2.1469280015635506 [Eh]
	 SCS Correlation Energy    =      -2.3073630823852587 [Eh]
	 SCS Total Energy          =    -445.8417903082556677 [Eh]
	-----------------------------------------------------------

*** Psi4 exiting successfully. Buy a developer a beer!
