                               Psi4 1.4a2.dev224

  ==> Input File <==

--------------------------------------------------------------------------
#Generated by lconvert.py for cbs job

memory 40 GB

molecule  {
0 1
  C        0.7291890     1.1131010     0.3267280
  H        1.3032160     2.0142220     0.1591600
  C        1.3750870    -0.1193660     0.4127770
  H        2.4505150    -0.1746240     0.3133070
  C        0.6350400    -1.2805530     0.6293850
  H        1.1363340    -2.2360170     0.7002170
  C       -0.7509860    -1.2096540     0.7578900
  H       -1.3245260    -2.1114130     0.9241990
  C       -1.3970340     0.0226710     0.6730900
  H       -2.4724250     0.0784880     0.7739980
  C       -0.6568970     1.1842960     0.4583390
  H       -1.1578280     2.1405870     0.3950960
--
0 1
  C        0.1896430     0.1991000     4.3558460
  H        0.3117700     0.4245840     3.3054200
  C       -0.9014380    -0.5557980     4.7831820
  H       -1.6219430    -0.9123120     4.0594880
  C       -1.0621380    -0.8499240     6.1361320
  H       -1.9092460    -1.4358920     6.4663800
  C       -0.1302560    -0.3888700     7.0646260
  H       -0.2541490    -0.6168360     8.1146340
  C        0.9613300     0.3662320     6.6393860
  H        1.6844490     0.7240650     7.3597690
  C        1.1201330     0.6597170     5.2858950
  H        1.9673910     1.2457920     4.9558470
units angstrom
no_reorient
symmetry c1
}

set {
scf_type DF
mp2_type DF
e_convergence 7
reference rhf
}

energy('mp2/aug-cc-pv[tq]z', bsse_type='cp')
--------------------------------------------------------------------------

    Molecular point group: c1
  Charge       = 0
  Multiplicity = 1
  Basis Set: AUG-CC-PVTZ
    Blend: AUG-CC-PVTZ
  Basis Set: (AUG-CC-PVTZ AUX)
    Blend: AUG-CC-PVTZ-JKFIT
  @DF-RHF Final Energy:  -230.78122953333221
    Total Energy =                       -230.7812295333322368
  Basis Set: (AUG-CC-PVTZ AUX)
    Blend: AUG-CC-PVTZ-RI
	 Reference Energy          =    -230.7812295333322083 [Eh]
	 Singles Energy            =      -0.0000000000000000 [Eh]
	 Same-Spin Energy          =      -0.2553783486256503 [Eh]
	 Opposite-Spin Energy      =      -0.8183285379443652 [Eh]
	 Correlation Energy        =      -1.0737068865700155 [Eh]
	 Total Energy              =    -231.8549364199022307 [Eh]
	 SCS Total Energy          =    -231.8483498950739943 [Eh]
    Molecular point group: c1
  Basis Set: AUG-CC-PVQZ
    Blend: AUG-CC-PVQZ
  Basis Set: (AUG-CC-PVQZ AUX)
    Blend: AUG-CC-PVQZ-JKFIT
  @DF-RHF Final Energy:  -230.79440359339907
    Total Energy =                       -230.7944035933990676
  Basis Set: (AUG-CC-PVQZ AUX)
  @DF-RHF Final Energy:  -230.78130124573391
    Total Energy =                       -230.7813012457339141
  @DF-RHF Final Energy:  -230.79442421370240
    Total Energy =                       -230.7944242137024276
  @DF-RHF Final Energy:  -230.78141922463649
    Total Energy =                       -230.7814192246365224
  @DF-RHF Final Energy:  -230.79444884788896
    Total Energy =                       -230.7944488478889298
  @DF-RHF Final Energy:  -230.78123448090622
    Total Energy =                       -230.7812344809062211
  @DF-RHF Final Energy:  -230.79440840048227
    Total Energy =                       -230.7944084004822685
  Multiplicity = 1
  @DF-RHF Final Energy:  -461.56224063218269
    Total Energy =                       -461.5622406321826929
	 Singles Energy            =      -0.0000000000000000 [Eh]
	 Same-Spin Energy          =      -0.5138305530825755 [Eh]
	 Opposite-Spin Energy      =      -1.6428173101483150 [Eh]
	 Correlation Energy        =      -2.1566478632308907 [Eh]
	 Total Energy              =    -463.7188884954135801 [Eh]
	 SCS Total Energy          =    -463.7048982553881729 [Eh]
    Molecular point group: c1

    Geometry (in Angstrom), charge = 0, multiplicity = 1:

       Center              X                  Y                   Z               Mass
    ------------   -----------------  -----------------  -----------------  -----------------
         C            0.719870746107     1.184690321945    -2.800239035900    12.000000000000
         H            1.293897746107     2.085811321945    -2.967807035900     1.007825032230
         C            1.365768746107    -0.047776678055    -2.714190035900    12.000000000000
         H            2.441196746107    -0.103034678055    -2.813660035900     1.007825032230
         C            0.625721746107    -1.208963678055    -2.497582035900    12.000000000000
         H            1.127015746107    -2.164427678055    -2.426750035900     1.007825032230
         C           -0.760304253893    -1.138064678055    -2.369077035900    12.000000000000
         H           -1.333844253893    -2.039823678055    -2.202768035900     1.007825032230
         C           -1.406352253893     0.094260321945    -2.453877035900    12.000000000000
         H           -2.481743253893     0.150077321945    -2.352969035900     1.007825032230
         C           -0.666215253893     1.255885321945    -2.668628035900    12.000000000000
         H           -1.167146253893     2.212176321945    -2.731871035900     1.007825032230
         C            0.180324746107     0.270689321945     1.228878964100    12.000000000000
         H            0.302451746107     0.496173321945     0.178452964100     1.007825032230
         C           -0.910756253893    -0.484208678055     1.656214964100    12.000000000000
         H           -1.631261253893    -0.840722678055     0.932520964100     1.007825032230
         C           -1.071456253893    -0.778334678055     3.009164964100    12.000000000000
         H           -1.918564253893    -1.364302678055     3.339412964100     1.007825032230
         C           -0.139574253893    -0.317280678055     3.937658964100    12.000000000000
         H           -0.263467253893    -0.545246678055     4.987666964100     1.007825032230
         C            0.952011746107     0.437821321945     3.512418964100    12.000000000000
         H            1.675130746107     0.795654321945     4.232801964100     1.007825032230
         C            1.110814746107     0.731306321945     2.158927964100    12.000000000000
         H            1.958072746107     1.317381321945     1.828879964100     1.007825032230

  Charge       = 0
  Multiplicity = 1
  Basis Set: AUG-CC-PVQZ
    Blend: AUG-CC-PVQZ
  Basis Set: (AUG-CC-PVQZ AUX)
    Blend: AUG-CC-PVQZ-JKFIT

    Orbital Energies [Eh]
    ---------------------

    Doubly Occupied:

       1A    -11.238873     2A    -11.238329     3A    -11.238187
       4A    -11.237069     5A    -11.236985     6A    -11.236365
       7A    -11.229137     8A    -11.228522     9A    -11.227557
      10A    -11.226860    11A    -11.226408    12A    -11.224264
      13A     -1.154082    14A     -1.143311    15A     -1.018421
      16A     -1.018208    17A     -1.007952    18A     -1.007550
      19A     -0.827684    20A     -0.827570    21A     -0.817475
      22A     -0.816998    23A     -0.713357    24A     -0.703120
      25A     -0.647600    26A     -0.637466    27A     -0.622795
      28A     -0.612405    29A     -0.591869    30A     -0.591603
      31A     -0.581933    32A     -0.581683    33A     -0.507766
      34A     -0.498551    35A     -0.498451    36A     -0.495985
      37A     -0.488193    38A     -0.485766    39A     -0.342286
      40A     -0.341467    41A     -0.330853    42A     -0.328481

  @DF-RHF Final Energy:  -461.58839292853929

   => Energetics <=

    Nuclear Repulsion Energy =            583.6823190464941717
    One-Electron Energy =               -1780.4825448380236139
    Two-Electron Energy =                 735.2118328629902635
    Total Energy =                       -461.5883929285392924

  Dipole Moment: [D]
     X:     0.0309      Y:    -0.0159      Z:    -0.4257     Total:     0.4271

  Basis Set: (AUG-CC-PVQZ AUX)
    Blend: AUG-CC-PVQZ-RI
	 Reference Energy          =    -461.5883929285392924 [Eh]
	 Singles Energy            =      -0.0000000000000000 [Eh]
	 Same-Spin Energy          =      -0.5427553674391661 [Eh]
	 Opposite-Spin Energy      =      -1.8400402121476311 [Eh]
	 Correlation Energy        =      -2.3827955795867970 [Eh]
	 Total Energy              =    -463.9711885081260903 [Eh]

	 ================> DF-SCS-MP2 Energies <==================
	-----------------------------------------------------------
	 SCS Same-Spin Scale       =       0.3333333333333333 [-]
	 SCS Opposite-Spin Scale   =       1.2000000000000000 [-]
	 SCS Same-Spin Energy      =      -0.1809184558130554 [Eh]
	 SCS Opposite-Spin Energy  =      -2.2080482545771574 [Eh]
	 SCS Correlation Energy    =      -2.3889667103902128 [Eh]
	 SCS Total Energy          =    -463.9773596389294994 [Eh]
	-----------------------------------------------------------

*** Psi4 exiting successfully. Buy a developer a beer!
