                               Psi4 1.4a2.dev224

  ==> Input File <==

--------------------------------------------------------------------------
#Generated by lconvert.py for cbs job

memory 40 GB

molecule  {
0 1
  C        0.7291890     1.1131010     0.3267280
  H        1.3032160     2.0142220     0.1591600
  C        1.3750870    -0.1193660     0.4127770
  H        2.4505150    -0.1746240     0.3133070
  C        0.6350400    -1.2805530     0.6293850
  H        1.1363340    -2.2360170     0.7002170
  C       -0.7509860    -1.2096540     0.7578900
  H       -1.3245260    -2.1114130     0.9241990
  C       -1.3970340     0.0226710     0.6730900
  H       -2.4724250     0.0784880     0.7739980
  C       -0.6568970     1.1842960     0.4583390
  H       -1.1578280     2.1405870     0.3950960
--
0 1
  C        0.0759690     0.0325380     3.3827740
  H        0.1980950     0.2580210     2.3323480
  C       -1.0151130    -0.7223610     3.8101110
  H       -1.7356180    -1.0788750     3.0864160
  C       -1.1758130    -1.0164860     5.1630610
  H       -2.0229210    -1.6024540     5.4933080
  C       -0.2439300    -0.5554330     6.0915550
  H       -0.3678240    -0.7833990     7.1415620
  C        0.8476550     0.1996700     5.6663150
  H        1.5707740     0.5575030     6.3866970
  C        1.0064590     0.4931550     4.3128230
  H        1.8537160     1.0792290     3.9827760
units angstrom
no_reorient
symmetry c1
}

set {
scf_type DF
mp2_type DF
e_convergence 7
reference rhf
}

energy('mp2/aug-cc-pv[tq]z', bsse_type='cp')
--------------------------------------------------------------------------

    Molecular point group: c1
  Charge       = 0
  Multiplicity = 1
  Basis Set: AUG-CC-PVTZ
    Blend: AUG-CC-PVTZ
  Basis Set: (AUG-CC-PVTZ AUX)
    Blend: AUG-CC-PVTZ-JKFIT
  @DF-RHF Final Energy:  -230.78122951511091
    Total Energy =                       -230.7812295151109083
  Basis Set: (AUG-CC-PVTZ AUX)
    Blend: AUG-CC-PVTZ-RI
	 Reference Energy          =    -230.7812295151109083 [Eh]
	 Singles Energy            =      -0.0000000000000000 [Eh]
	 Same-Spin Energy          =      -0.2553783442260465 [Eh]
	 Opposite-Spin Energy      =      -0.8183285487896276 [Eh]
	 Correlation Energy        =      -1.0737068930156741 [Eh]
	 Total Energy              =    -231.8549364081265765 [Eh]
	 SCS Total Energy          =    -231.8483498884004632 [Eh]
    Molecular point group: c1
  Basis Set: AUG-CC-PVQZ
    Blend: AUG-CC-PVQZ
  Basis Set: (AUG-CC-PVQZ AUX)
    Blend: AUG-CC-PVQZ-JKFIT
  @DF-RHF Final Energy:  -230.79440357526704
    Total Energy =                       -230.7944035752670402
  Basis Set: (AUG-CC-PVQZ AUX)
  @DF-RHF Final Energy:  -230.78141094693990
    Total Energy =                       -230.7814109469399000
  @DF-RHF Final Energy:  -230.79444937327847
    Total Energy =                       -230.7944493732784963
  @DF-RHF Final Energy:  -230.78159600745246
    Total Energy =                       -230.7815960074524355
  @DF-RHF Final Energy:  -230.79448606029027
    Total Energy =                       -230.7944860602902963
  @DF-RHF Final Energy:  -230.78123448381209
    Total Energy =                       -230.7812344838120566
  @DF-RHF Final Energy:  -230.79440839996926
    Total Energy =                       -230.7944083999692566
  Multiplicity = 1
  @DF-RHF Final Energy:  -461.53578422227559
    Total Energy =                       -461.5357842222755380
	 Singles Energy            =      -0.0000000000000000 [Eh]
	 Same-Spin Energy          =      -0.5226914883486100 [Eh]
	 Opposite-Spin Energy      =      -1.6566418647403429 [Eh]
	 Correlation Energy        =      -2.1793333530889529 [Eh]
	 Total Energy              =    -463.7151175753645589 [Eh]
	 SCS Total Energy          =    -463.6979849560802336 [Eh]
    Molecular point group: c1

    Geometry (in Angstrom), charge = 0, multiplicity = 1:

       Center              X                  Y                   Z               Mass
    ------------   -----------------  -----------------  -----------------  -----------------
         C            0.776708015476     1.267971501524    -2.313703349863    12.000000000000
         H            1.350735015476     2.169092501524    -2.481271349863     1.007825032230
         C            1.422606015476     0.035504501524    -2.227654349863    12.000000000000
         H            2.498034015476    -0.019753498476    -2.327124349863     1.007825032230
         C            0.682559015476    -1.125682498476    -2.011046349863    12.000000000000
         H            1.183853015476    -2.081146498476    -1.940214349863     1.007825032230
         C           -0.703466984524    -1.054783498476    -1.882541349863    12.000000000000
         H           -1.277006984524    -1.956542498476    -1.716232349863     1.007825032230
         C           -1.349514984524     0.177541501524    -1.967341349863    12.000000000000
         H           -2.424905984524     0.233358501524    -1.866433349863     1.007825032230
         C           -0.609377984524     1.339166501524    -2.182092349863    12.000000000000
         H           -1.110308984524     2.295457501524    -2.245335349863     1.007825032230
         C            0.123488015476     0.187408501524     0.742342650137    12.000000000000
         H            0.245614015476     0.412891501524    -0.308083349863     1.007825032230
         C           -0.967593984524    -0.567490498476     1.169679650137    12.000000000000
         H           -1.688098984524    -0.924004498476     0.445984650137     1.007825032230
         C           -1.128293984524    -0.861615498476     2.522629650137    12.000000000000
         H           -1.975401984524    -1.447583498476     2.852876650137     1.007825032230
         C           -0.196410984524    -0.400562498476     3.451123650137    12.000000000000
         H           -0.320304984524    -0.628528498476     4.501130650137     1.007825032230
         C            0.895174015476     0.354540501524     3.025883650137    12.000000000000
         H            1.618293015476     0.712373501524     3.746265650137     1.007825032230
         C            1.053978015476     0.648025501524     1.672391650137    12.000000000000
         H            1.901235015476     1.234099501524     1.342344650137     1.007825032230

  Charge       = 0
  Multiplicity = 1
  Basis Set: AUG-CC-PVQZ
    Blend: AUG-CC-PVQZ
  Basis Set: (AUG-CC-PVQZ AUX)
    Blend: AUG-CC-PVQZ-JKFIT

    Orbital Energies [Eh]
    ---------------------

    Doubly Occupied:

       1A    -11.240821     2A    -11.240101     3A    -11.239978
       4A    -11.238893     5A    -11.238768     6A    -11.238048
       7A    -11.224385     8A    -11.224079     9A    -11.221770
      10A    -11.219915    11A    -11.218625    12A    -11.212289
      13A     -1.161285    14A     -1.137009    15A     -1.023395
      16A     -1.021849    17A     -1.002488    18A     -1.001670
      19A     -0.831280    20A     -0.830565    21A     -0.813253
      22A     -0.812101    23A     -0.718705    24A     -0.700857
      25A     -0.650258    26A     -0.635266    27A     -0.625278
      28A     -0.607265    29A     -0.596299    30A     -0.594795
      31A     -0.587530    32A     -0.576744    33A     -0.507975
      34A     -0.501414    35A     -0.500947    36A     -0.491320
      37A     -0.482999    38A     -0.461258    39A     -0.354929
      40A     -0.345621    41A     -0.326286    42A     -0.314472

  @DF-RHF Final Energy:  -461.56170725281254

   => Energetics <=

    Nuclear Repulsion Energy =            621.7683373840397962
    One-Electron Energy =               -1856.7145053501874372
    Two-Electron Energy =                 773.3844607133351019
    Total Energy =                       -461.5617072528125391

  Dipole Moment: [D]
     X:     0.0418      Y:     0.0050      Z:    -0.7486     Total:     0.7498

  Basis Set: (AUG-CC-PVQZ AUX)
    Blend: AUG-CC-PVQZ-RI
	 Reference Energy          =    -461.5617072528125391 [Eh]
	 Singles Energy            =      -0.0000000000000000 [Eh]
	 Same-Spin Energy          =      -0.5514080082938784 [Eh]
	 Opposite-Spin Energy      =      -1.8512185186570451 [Eh]
	 Correlation Energy        =      -2.4026265269509235 [Eh]
	 Total Energy              =    -463.9643337797634786 [Eh]

	 ================> DF-SCS-MP2 Energies <==================
	-----------------------------------------------------------
	 SCS Same-Spin Scale       =       0.3333333333333333 [-]
	 SCS Opposite-Spin Scale   =       1.2000000000000000 [-]
	 SCS Same-Spin Energy      =      -0.1838026694312928 [Eh]
	 SCS Opposite-Spin Energy  =      -2.2214622223884541 [Eh]
	 SCS Correlation Energy    =      -2.4052648918197468 [Eh]
	 SCS Total Energy          =    -463.9669721446322797 [Eh]
	-----------------------------------------------------------

*** Psi4 exiting successfully. Buy a developer a beer!
