                               Psi4 1.4a2.dev224

  ==> Input File <==

--------------------------------------------------------------------------
#Generated by lconvert.py for cbs job

memory 40 GB

molecule  {
0 1
  C        0.7291890     1.1131010     0.3267280
  H        1.3032160     2.0142220     0.1591600
  C        1.3750870    -0.1193660     0.4127770
  H        2.4505150    -0.1746240     0.3133070
  C        0.6350400    -1.2805530     0.6293850
  H        1.1363340    -2.2360170     0.7002170
  C       -0.7509860    -1.2096540     0.7578900
  H       -1.3245260    -2.1114130     0.9241990
  C       -1.3970340     0.0226710     0.6730900
  H       -2.4724250     0.0784880     0.7739980
  C       -0.6568970     1.1842960     0.4583390
  H       -1.1578280     2.1405870     0.3950960
--
0 1
  C        0.0330290    -0.0303790     3.0152060
  H        0.1551550     0.1951040     1.9647800
  C       -1.0580530    -0.7852780     3.4425430
  H       -1.7785570    -1.1417920     2.7188480
  C       -1.2187530    -1.0794030     4.7954930
  H       -2.0658600    -1.6653720     5.1257400
  C       -0.2868700    -0.6183500     5.7239870
  H       -0.4107630    -0.8463160     6.7739940
  C        0.8047150     0.1367520     5.2987470
  H        1.5278340     0.4945850     6.0191290
  C        0.9635190     0.4302370     3.9452550
  H        1.8107770     1.0163120     3.6152080
units angstrom
no_reorient
symmetry c1
}

set {
scf_type DF
mp2_type DF
e_convergence 7
reference rhf
}

energy('mp2/aug-cc-pv[tq]z', bsse_type='cp')
--------------------------------------------------------------------------

    Molecular point group: c1
  Charge       = 0
  Multiplicity = 1
  Basis Set: AUG-CC-PVTZ
    Blend: AUG-CC-PVTZ
  Basis Set: (AUG-CC-PVTZ AUX)
    Blend: AUG-CC-PVTZ-JKFIT
  @DF-RHF Final Energy:  -230.78122953036103
    Total Energy =                       -230.7812295303610313
  Basis Set: (AUG-CC-PVTZ AUX)
    Blend: AUG-CC-PVTZ-RI
	 Reference Energy          =    -230.7812295303610313 [Eh]
	 Singles Energy            =      -0.0000000000000000 [Eh]
	 Same-Spin Energy          =      -0.2553783445837692 [Eh]
	 Opposite-Spin Energy      =      -0.8183285404864082 [Eh]
	 Correlation Energy        =      -1.0737068850701774 [Eh]
	 Total Energy              =    -231.8549364154312116 [Eh]
	 SCS Total Energy          =    -231.8483498938059881 [Eh]
    Molecular point group: c1
  Basis Set: AUG-CC-PVQZ
    Blend: AUG-CC-PVQZ
  Basis Set: (AUG-CC-PVQZ AUX)
    Blend: AUG-CC-PVQZ-JKFIT
  @DF-RHF Final Energy:  -230.79440358605498
    Total Energy =                       -230.7944035860550116
  Basis Set: (AUG-CC-PVQZ AUX)
  @DF-RHF Final Energy:  -230.78149338364599
    Total Energy =                       -230.7814933836459659
  @DF-RHF Final Energy:  -230.79446415547963
    Total Energy =                       -230.7944641554796021
  @DF-RHF Final Energy:  -230.78168912230058
    Total Energy =                       -230.7816891223005769
  @DF-RHF Final Energy:  -230.79449923068915
    Total Energy =                       -230.7944992306891550
  @DF-RHF Final Energy:  -230.78123448074922
    Total Energy =                       -230.7812344807492195
  @DF-RHF Final Energy:  -230.79440839813302
    Total Energy =                       -230.7944083981330436
  @DF-RHF Final Energy:  -461.48514435871175
    Total Energy =                       -461.4851443587117501
  @DF-RHF Final Energy:  -461.51094415005343
    Total Energy =                       -461.5109441500534331
*** Psi4 exiting successfully. Buy a developer a beer!
                               Psi4 1.4a2.dev224
  @DF-RHF Final Energy:  -230.78122951511091
    Total Energy =                       -230.7812295151109083
  @DF-RHF Final Energy:  -230.79440357526704
    Total Energy =                       -230.7944035752670402
  @DF-RHF Final Energy:  -230.78141094693990
    Total Energy =                       -230.7814109469399000
  @DF-RHF Final Energy:  -230.79444937327847
    Total Energy =                       -230.7944493732784963
  @DF-RHF Final Energy:  -230.78159600745246
    Total Energy =                       -230.7815960074524355
  @DF-RHF Final Energy:  -230.79448606029027
    Total Energy =                       -230.7944860602902963
  @DF-RHF Final Energy:  -230.78123448381209
    Total Energy =                       -230.7812344838120566
  @DF-RHF Final Energy:  -230.79440839996926
    Total Energy =                       -230.7944083999692566
  @DF-RHF Final Energy:  -461.53578422227559
    Total Energy =                       -461.5357842222755380
  @DF-RHF Final Energy:  -461.56170725281254
    Total Energy =                       -461.5617072528125391
*** Psi4 exiting successfully. Buy a developer a beer!
                               Psi4 1.4a2.dev224
                               Psi4 1.4a2.dev224
                               Psi4 1.4a2.dev224
                               Psi4 1.4a2.dev224
                               Psi4 1.4a2.dev224
                               Psi4 1.4a2.dev224
                               Psi4 1.4a2.dev224
  @DF-RHF Final Energy:  -230.78122950703442
    Total Energy =                       -230.7812295070344248
  @DF-RHF Final Energy:  -230.79440356486876
    Total Energy =                       -230.7944035648687304
  @DF-RHF Final Energy:  -230.78124654131119
    Total Energy =                       -230.7812465413111909
  @DF-RHF Final Energy:  -230.79440929843852
    Total Energy =                       -230.7944092984385520
  @DF-RHF Final Energy:  -230.78127498407039
    Total Energy =                       -230.7812749840703646
  @DF-RHF Final Energy:  -230.79441916972235
    Total Energy =                       -230.7944191697223459
  @DF-RHF Final Energy:  -230.78123443323057
    Total Energy =                       -230.7812344332305656
  @DF-RHF Final Energy:  -230.79440835357957
    Total Energy =                       -230.7944083535795698
  @DF-RHF Final Energy:  -461.56279261416614
    Total Energy =                       -461.5627926141661419
  @DF-RHF Final Energy:  -461.58909642493313
    Total Energy =                       -461.5890964249331319
*** Psi4 exiting successfully. Buy a developer a beer!
                               Psi4 1.4a2.dev224
  @DF-RHF Final Energy:  -230.78122942157694
    Total Energy =                       -230.7812294215769384
  @DF-RHF Final Energy:  -230.79440347455005
    Total Energy =                       -230.7944034745500517
  @DF-RHF Final Energy:  -230.78123671232018
    Total Energy =                       -230.7812367123202080
  @DF-RHF Final Energy:  -230.79440624625926
    Total Energy =                       -230.7944062462592569
  @DF-RHF Final Energy:  -230.78125320847212
    Total Energy =                       -230.7812532084720942
  @DF-RHF Final Energy:  -230.79441446107751
    Total Energy =                       -230.7944144610775083
  @DF-RHF Final Energy:  -230.78123443605577
    Total Energy =                       -230.7812344360557972
  @DF-RHF Final Energy:  -230.79440835359537
    Total Energy =                       -230.7944083535953723
  Multiplicity = 1
  @DF-RHF Final Energy:  -461.56262373075725
    Total Energy =                       -461.5626237307573092
	 Singles Energy            =      -0.0000000000000000 [Eh]
	 Same-Spin Energy          =      -0.5108854335982568 [Eh]
	 Opposite-Spin Energy      =      -1.6370127976522437 [Eh]
	 Correlation Energy        =      -2.1478982312505006 [Eh]
	 Total Energy              =    -463.7105219620077605 [Eh]
	 SCS Total Energy          =    -463.6973342324727128 [Eh]
    Molecular point group: c1

    Geometry (in Angstrom), charge = 0, multiplicity = 1:

       Center              X                  Y                   Z               Mass
    ------------   -----------------  -----------------  -----------------  -----------------
         C            0.548112732592     0.933020399423    -4.270509811124    12.000000000000
         H            1.122142732592     1.834140399423    -4.438079811124     1.007825032230
         C            1.194012732592    -0.299449600577    -4.184459811124    12.000000000000
         H            2.269442732592    -0.354699600577    -4.283929811124     1.007825032230
         C            0.453962732592    -1.460629600577    -3.967859811124    12.000000000000
         H            0.955252732592    -2.416099600577    -3.897019811124     1.007825032230
         C           -0.932067267408    -1.389729600577    -3.839349811124    12.000000000000
         H           -1.505607267408    -2.291489600577    -3.673039811124     1.007825032230
         C           -1.578107267408    -0.157409600577    -3.924149811124    12.000000000000
         H           -2.653497267408    -0.101589600577    -3.823239811124     1.007825032230
         C           -0.837977267408     1.004220399423    -4.138899811124    12.000000000000
         H           -1.338907267408     1.960510399423    -4.202139811124     1.007825032230
         C            0.352082732592     0.522360399423     2.699150188876    12.000000000000
         H            0.474212732592     0.747840399423     1.648720188876     1.007825032230
         C           -0.738997267408    -0.232539600577     3.126490188876    12.000000000000
         H           -1.459497267408    -0.589059600577     2.402790188876     1.007825032230
         C           -0.899697267408    -0.526669600577     4.479440188876    12.000000000000
         H           -1.746807267408    -1.112639600577     4.809680188876     1.007825032230
         C            0.032182732592    -0.065609600577     5.407930188876    12.000000000000
         H           -0.091707267408    -0.293579600577     6.457940188876     1.007825032230
         C            1.123772732592     0.689490399423     4.982690188876    12.000000000000
         H            1.846892732592     1.047320399423     5.703070188876     1.007825032230
         C            1.282572732592     0.982970399423     3.629200188876    12.000000000000
         H            2.129832732592     1.569050399423     3.299150188876     1.007825032230

  Charge       = 0
  Multiplicity = 1
  Basis Set: AUG-CC-PVQZ
    Blend: AUG-CC-PVQZ
  Basis Set: (AUG-CC-PVQZ AUX)
    Blend: AUG-CC-PVQZ-JKFIT

    Orbital Energies [Eh]
    ---------------------

    Doubly Occupied:

       1A    -11.236151     2A    -11.235591     3A    -11.235544
       4A    -11.234345     5A    -11.234305     6A    -11.233709
       7A    -11.233567     8A    -11.232990     9A    -11.232822
      10A    -11.231709    11A    -11.231677    12A    -11.230973
      13A     -1.150866    14A     -1.148275    15A     -1.015394
      16A     -1.015330    17A     -1.012878    18A     -1.012596
      19A     -0.824930    20A     -0.824837    21A     -0.822370
      22A     -0.822095    23A     -0.710586    24A     -0.707934
      25A     -0.645090    26A     -0.642369    27A     -0.620022
      28A     -0.617429    29A     -0.589034    30A     -0.588989
      31A     -0.586538    32A     -0.586158    33A     -0.503390
      34A     -0.500769    35A     -0.495938    36A     -0.495830
      37A     -0.493610    38A     -0.492835    39A     -0.337810
      40A     -0.337798    41A     -0.335196    42A     -0.335156

  @DF-RHF Final Energy:  -461.58895329311520

   => Energetics <=

    Nuclear Repulsion Energy =            521.0083734299213347
    One-Electron Energy =               -1655.0438075444931201
    Two-Electron Energy =                 672.4464808214564755
    Total Energy =                       -461.5889532931151962

  Dipole Moment: [D]
     X:     0.0049      Y:    -0.0085      Z:    -0.0780     Total:     0.0786

  Basis Set: (AUG-CC-PVQZ AUX)
    Blend: AUG-CC-PVQZ-RI
	 Reference Energy          =    -461.5889532931151962 [Eh]
	 Singles Energy            =      -0.0000000000000000 [Eh]
	 Same-Spin Energy          =      -0.5399947580401455 [Eh]
	 Opposite-Spin Energy      =      -1.8364888440367042 [Eh]
	 Correlation Energy        =      -2.3764836020768496 [Eh]
	 Total Energy              =    -463.9654368951920560 [Eh]

	 ================> DF-SCS-MP2 Energies <==================
	-----------------------------------------------------------
	 SCS Same-Spin Scale       =       0.3333333333333333 [-]
	 SCS Opposite-Spin Scale   =       1.2000000000000000 [-]
	 SCS Same-Spin Energy      =      -0.1799982526800485 [Eh]
	 SCS Opposite-Spin Energy  =      -2.2037866128440449 [Eh]
	 SCS Correlation Energy    =      -2.3837848655240932 [Eh]
	 SCS Total Energy          =    -463.9727381586392880 [Eh]
	-----------------------------------------------------------

*** Psi4 exiting successfully. Buy a developer a beer!
