                               Psi4 1.4a2.dev224

  ==> Input File <==

--------------------------------------------------------------------------
#Generated by lconvert.py for cbs job

memory 40 GB

molecule  {
0 1
  C        0.7291890     1.1131010     0.3267280
  H        1.3032160     2.0142220     0.1591600
  C        1.3750870    -0.1193660     0.4127770
  H        2.4505150    -0.1746240     0.3133070
  C        0.6350400    -1.2805530     0.6293850
  H        1.1363340    -2.2360170     0.7002170
  C       -0.7509860    -1.2096540     0.7578900
  H       -1.3245260    -2.1114130     0.9241990
  C       -1.3970340     0.0226710     0.6730900
  H       -2.4724250     0.0784880     0.7739980
  C       -0.6568970     1.1842960     0.4583390
  H       -1.1578280     2.1405870     0.3950960
--
0 1
  C        0.1155470     0.0905310     3.7215720
  H        0.2376740     0.3160140     2.6711460
  C       -0.9755340    -0.6643680     4.1489080
  H       -1.6960390    -1.0208820     3.4252140
  C       -1.1362340    -0.9584930     5.5018580
  H       -1.9833420    -1.5444620     5.8321060
  C       -0.2043520    -0.4974400     6.4303520
  H       -0.3282450    -0.7254060     7.4803600
  C        0.8872330     0.2576620     6.0051120
  H        1.6103520     0.6154950     6.7254950
  C        1.0460370     0.5511470     4.6516210
  H        1.8932950     1.1372220     4.3215730
units angstrom
no_reorient
symmetry c1
}

set {
scf_type DF
mp2_type DF
e_convergence 7
reference rhf
}

energy('mp2/aug-cc-pv[tq]z', bsse_type='cp')
--------------------------------------------------------------------------

    Molecular point group: c1
  Charge       = 0
  Multiplicity = 1
  Basis Set: AUG-CC-PVTZ
    Blend: AUG-CC-PVTZ
  Basis Set: (AUG-CC-PVTZ AUX)
    Blend: AUG-CC-PVTZ-JKFIT
  @DF-RHF Final Energy:  -230.78122955510582
    Total Energy =                       -230.7812295551058241
  Basis Set: (AUG-CC-PVTZ AUX)
    Blend: AUG-CC-PVTZ-RI
	 Reference Energy          =    -230.7812295551058241 [Eh]
	 Singles Energy            =      -0.0000000000000000 [Eh]
	 Same-Spin Energy          =      -0.2553783489659784 [Eh]
	 Opposite-Spin Energy      =      -0.8183285281729985 [Eh]
	 Correlation Energy        =      -1.0737068771389771 [Eh]
	 Total Energy              =    -231.8549364322448127 [Eh]
	 SCS Total Energy          =    -231.8483499052354091 [Eh]
    Molecular point group: c1
  Basis Set: AUG-CC-PVQZ
    Blend: AUG-CC-PVQZ
  Basis Set: (AUG-CC-PVQZ AUX)
    Blend: AUG-CC-PVQZ-JKFIT
  @DF-RHF Final Energy:  -230.79440361426103
    Total Energy =                       -230.7944036142610003
  Basis Set: (AUG-CC-PVQZ AUX)
  @DF-RHF Final Energy:  -230.78135781287043
    Total Energy =                       -230.7813578128704535
  @DF-RHF Final Energy:  -230.79443830548837
    Total Energy =                       -230.7944383054883701
  @DF-RHF Final Energy:  -230.78152642447878
    Total Energy =                       -230.7815264244787841
  @DF-RHF Final Energy:  -230.79447223300491
    Total Energy =                       -230.7944722330049103
  @DF-RHF Final Energy:  -230.78123448044661
    Total Energy =                       -230.7812344804465852
  @DF-RHF Final Energy:  -230.79440839936905
    Total Energy =                       -230.7944083993690469
  Multiplicity = 1
  @DF-RHF Final Energy:  -461.55363338248799
    Total Energy =                       -461.5536333824879875
	 Singles Energy            =      -0.0000000000000000 [Eh]
	 Same-Spin Energy          =      -0.5181428192946205 [Eh]
	 Opposite-Spin Energy      =      -1.6497668349528110 [Eh]
	 Correlation Energy        =      -2.1679096542474312 [Eh]
	 Total Energy              =    -463.7215430367353974 [Eh]
	 SCS Total Energy          =    -463.7060678575295469 [Eh]
    Molecular point group: c1

    Geometry (in Angstrom), charge = 0, multiplicity = 1:

       Center              X                  Y                   Z               Mass
    ------------   -----------------  -----------------  -----------------  -----------------
         C            0.756918829440     1.238975168191    -2.483102035900    12.000000000000
         H            1.330945829440     2.140096168191    -2.650670035900     1.007825032230
         C            1.402816829440     0.006508168191    -2.397053035900    12.000000000000
         H            2.478244829440    -0.048749831809    -2.496523035900     1.007825032230
         C            0.662769829440    -1.154678831809    -2.180445035900    12.000000000000
         H            1.164063829440    -2.110142831809    -2.109613035900     1.007825032230
         C           -0.723256170560    -1.083779831809    -2.051940035900    12.000000000000
         H           -1.296796170560    -1.985538831809    -1.885631035900     1.007825032230
         C           -1.369304170560     0.148545168191    -2.136740035900    12.000000000000
         H           -2.444695170560     0.204362168191    -2.035832035900     1.007825032230
         C           -0.629167170560     1.310170168191    -2.351491035900    12.000000000000
         H           -1.130098170560     2.266461168191    -2.414734035900     1.007825032230
         C            0.143276829440     0.216405168191     0.911741964100    12.000000000000
         H            0.265403829440     0.441888168191    -0.138684035900     1.007825032230
         C           -0.947804170560    -0.538493831809     1.339077964100    12.000000000000
         H           -1.668309170560    -0.895007831809     0.615383964100     1.007825032230
         C           -1.108504170560    -0.832618831809     2.692027964100    12.000000000000
         H           -1.955612170560    -1.418587831809     3.022275964100     1.007825032230
         C           -0.176622170560    -0.371565831809     3.620521964100    12.000000000000
         H           -0.300515170560    -0.599531831809     4.670529964100     1.007825032230
         C            0.914962829440     0.383536168191     3.195281964100    12.000000000000
         H            1.638081829440     0.741369168191     3.915664964100     1.007825032230
         C            1.073766829440     0.677021168191     1.841790964100    12.000000000000
         H            1.921024829440     1.263096168191     1.511742964100     1.007825032230

  Charge       = 0
  Multiplicity = 1
  Basis Set: AUG-CC-PVQZ
    Blend: AUG-CC-PVQZ
  Basis Set: (AUG-CC-PVQZ AUX)
    Blend: AUG-CC-PVQZ-JKFIT

    Orbital Energies [Eh]
    ---------------------

    Doubly Occupied:

       1A    -11.240084     2A    -11.239470     3A    -11.239354
       4A    -11.238221     5A    -11.238181     6A    -11.237479
       7A    -11.226367     8A    -11.225906     9A    -11.224395
      10A    -11.223189    11A    -11.222322    12A    -11.218188
      13A     -1.157073    14A     -1.139905    15A     -1.020726
      16A     -1.020055    17A     -1.004922    18A     -1.004200
      19A     -0.829394    20A     -0.829230    21A     -0.814599
      22A     -0.814179    23A     -0.715542    24A     -0.701260
      25A     -0.649039    26A     -0.635613    27A     -0.624249
      28A     -0.609294    29A     -0.593910    30A     -0.593220
      31A     -0.583742    32A     -0.578909    33A     -0.509434
      34A     -0.500112    35A     -0.499823    36A     -0.493140
      37A     -0.485273    38A     -0.474510    39A     -0.348415
      40A     -0.344007    41A     -0.328203    42A     -0.321387

  @DF-RHF Final Energy:  -461.57965920363711

   => Energetics <=

    Nuclear Repulsion Energy =            606.8884159978583739
    One-Electron Energy =               -1826.9430965320650557
    Two-Electron Energy =                 758.4750213305695752
    Total Energy =                       -461.5796592036371067

  Dipole Moment: [D]
     X:     0.0414      Y:    -0.0071      Z:    -0.6235     Total:     0.6249

  Basis Set: (AUG-CC-PVQZ AUX)
    Blend: AUG-CC-PVQZ-RI
	 Reference Energy          =    -461.5796592036371067 [Eh]
	 Singles Energy            =      -0.0000000000000000 [Eh]
	 Same-Spin Energy          =      -0.5469383936936139 [Eh]
	 Opposite-Spin Energy      =      -1.8453792534100413 [Eh]
	 Correlation Energy        =      -2.3923176471036554 [Eh]
	 Total Energy              =    -463.9719768507407593 [Eh]

	 ================> DF-SCS-MP2 Energies <==================
	-----------------------------------------------------------
	 SCS Same-Spin Scale       =       0.3333333333333333 [-]
	 SCS Opposite-Spin Scale   =       1.2000000000000000 [-]
	 SCS Same-Spin Energy      =      -0.1823127978978713 [Eh]
	 SCS Opposite-Spin Energy  =      -2.2144551040920493 [Eh]
	 SCS Correlation Energy    =      -2.3967679019899206 [Eh]
	 SCS Total Energy          =    -463.9764271056270104 [Eh]
	-----------------------------------------------------------

*** Psi4 exiting successfully. Buy a developer a beer!
