                               Psi4 1.4a2.dev224

  ==> Input File <==

--------------------------------------------------------------------------
#Generated by lconvert.py for cbs job

memory 40 GB

molecule  {
0 1
  C        0.7291890     1.1131010     0.3267280
  H        1.3032160     2.0142220     0.1591600
  C        1.3750870    -0.1193660     0.4127770
  H        2.4505150    -0.1746240     0.3133070
  C        0.6350400    -1.2805530     0.6293850
  H        1.1363340    -2.2360170     0.7002170
  C       -0.7509860    -1.2096540     0.7578900
  H       -1.3245260    -2.1114130     0.9241990
  C       -1.3970340     0.0226710     0.6730900
  H       -2.4724250     0.0784880     0.7739980
  C       -0.6568970     1.1842960     0.4583390
  H       -1.1578280     2.1405870     0.3950960
--
0 1
  C        0.1532040     0.1457070     4.0439200
  H        0.2753300     0.3711910     2.9934930
  C       -0.9378780    -0.6091910     4.4712560
  H       -1.6583820    -0.9657050     3.7475620
  C       -1.0985780    -0.9033170     5.8242060
  H       -1.9456850    -1.4892850     6.1544540
  C       -0.1666950    -0.4422630     6.7527000
  H       -0.2905880    -0.6702290     7.8027080
  C        0.9248900     0.3128390     6.3274600
  H        1.6480090     0.6706720     7.0478430
  C        1.0836940     0.6063240     4.9739690
  H        1.9309520     1.1923990     4.6439210
units angstrom
no_reorient
symmetry c1
}

set {
scf_type DF
mp2_type DF
e_convergence 7
reference rhf
}

energy('mp2/aug-cc-pv[tq]z', bsse_type='cp')
--------------------------------------------------------------------------

    Molecular point group: c1
  Charge       = 0
  Multiplicity = 1
  Basis Set: AUG-CC-PVTZ
    Blend: AUG-CC-PVTZ
  Basis Set: (AUG-CC-PVTZ AUX)
    Blend: AUG-CC-PVTZ-JKFIT
  @DF-RHF Final Energy:  -230.78122952270988
    Total Energy =                       -230.7812295227098502
  Basis Set: (AUG-CC-PVTZ AUX)
    Blend: AUG-CC-PVTZ-RI
	 Reference Energy          =    -230.7812295227098787 [Eh]
	 Singles Energy            =      -0.0000000000000000 [Eh]
	 Same-Spin Energy          =      -0.2553783477741288 [Eh]
	 Opposite-Spin Energy      =      -0.8183285432132892 [Eh]
	 Correlation Energy        =      -1.0737068909874181 [Eh]
	 Total Energy              =    -231.8549364136972883 [Eh]
	 SCS Total Energy          =    -231.8483498904905389 [Eh]
    Molecular point group: c1
  Basis Set: AUG-CC-PVQZ
    Blend: AUG-CC-PVQZ
  Basis Set: (AUG-CC-PVQZ AUX)
    Blend: AUG-CC-PVQZ-JKFIT
  @DF-RHF Final Energy:  -230.79440358525329
    Total Energy =                       -230.7944035852532920
  Basis Set: (AUG-CC-PVQZ AUX)
  @DF-RHF Final Energy:  -230.78132374897896
    Total Energy =                       -230.7813237489789344
  @DF-RHF Final Energy:  -230.79443003387024
    Total Energy =                       -230.7944300338702419
  @DF-RHF Final Energy:  -230.78146488265349
    Total Energy =                       -230.7814648826534949
  @DF-RHF Final Energy:  -230.79445921815184
    Total Energy =                       -230.7944592181518146
  @DF-RHF Final Energy:  -230.78123447924906
    Total Energy =                       -230.7812344792490649
  @DF-RHF Final Energy:  -230.79440839903415
    Total Energy =                       -230.7944083990341824
  Multiplicity = 1
  @DF-RHF Final Energy:  -461.56002094457295
    Total Energy =                       -461.5600209445728979
	 Singles Energy            =      -0.0000000000000000 [Eh]
	 Same-Spin Energy          =      -0.5154621019842018 [Eh]
	 Opposite-Spin Energy      =      -1.6455642060930611 [Eh]
	 Correlation Energy        =      -2.1610263080772629 [Eh]
	 Total Energy              =    -463.7210472526502372 [Eh]
	 SCS Total Energy          =    -463.7065186925460125 [Eh]
    Molecular point group: c1

    Geometry (in Angstrom), charge = 0, multiplicity = 1:

       Center              X                  Y                   Z               Mass
    ------------   -----------------  -----------------  -----------------  -----------------
         C            0.738090489650     1.211386821945    -2.644276029443    12.000000000000
         H            1.312117489650     2.112507821945    -2.811844029443     1.007825032230
         C            1.383988489650    -0.021080178055    -2.558227029443    12.000000000000
         H            2.459416489650    -0.076338178055    -2.657697029443     1.007825032230
         C            0.643941489650    -1.182267178055    -2.341619029443    12.000000000000
         H            1.145235489650    -2.137731178055    -2.270787029443     1.007825032230
         C           -0.742084510350    -1.111368178055    -2.213114029443    12.000000000000
         H           -1.315624510350    -2.013127178055    -2.046805029443     1.007825032230
         C           -1.388132510350     0.120956821945    -2.297914029443    12.000000000000
         H           -2.463523510350     0.176773821945    -2.197006029443     1.007825032230
         C           -0.647995510350     1.282581821945    -2.512665029443    12.000000000000
         H           -1.148926510350     2.238872821945    -2.575908029443     1.007825032230
         C            0.162105489650     0.243992821945     1.072915970557    12.000000000000
         H            0.284231489650     0.469476821945     0.022488970557     1.007825032230
         C           -0.928976510350    -0.510905178055     1.500251970557    12.000000000000
         H           -1.649480510350    -0.867419178055     0.776557970557     1.007825032230
         C           -1.089676510350    -0.805031178055     2.853201970557    12.000000000000
         H           -1.936783510350    -1.390999178055     3.183449970557     1.007825032230
         C           -0.157793510350    -0.343977178055     3.781695970557    12.000000000000
         H           -0.281686510350    -0.571943178055     4.831703970557     1.007825032230
         C            0.933791489650     0.411124821945     3.356455970557    12.000000000000
         H            1.656910489650     0.768957821945     4.076838970557     1.007825032230
         C            1.092595489650     0.704609821945     2.002964970557    12.000000000000
         H            1.939853489650     1.290684821945     1.672916970557     1.007825032230

  Charge       = 0
  Multiplicity = 1
  Basis Set: AUG-CC-PVQZ
    Blend: AUG-CC-PVQZ
  Basis Set: (AUG-CC-PVQZ AUX)
    Blend: AUG-CC-PVQZ-JKFIT

    Orbital Energies [Eh]
    ---------------------

    Doubly Occupied:

       1A    -11.239451     2A    -11.238889     3A    -11.238748
       4A    -11.237627     5A    -11.237563     6A    -11.236912
       7A    -11.227934     8A    -11.227370     9A    -11.226202
      10A    -11.225358    11A    -11.224738    12A    -11.221868
      13A     -1.155167    14A     -1.141884    15A     -1.019328
      16A     -1.018971    17A     -1.006661    18A     -1.006092
      19A     -0.828382    20A     -0.828288    21A     -0.816184
      22A     -0.815711    23A     -0.714170    24A     -0.702133
      25A     -0.648222    26A     -0.636473    27A     -0.623449
      28A     -0.611033    29A     -0.592680    30A     -0.592275
      31A     -0.582053    32A     -0.580486    33A     -0.508941
      34A     -0.499227    35A     -0.499053    36A     -0.494717
      37A     -0.486932    38A     -0.481701    39A     -0.344575
      40A     -0.342577    41A     -0.329697    42A     -0.325711

  @DF-RHF Final Energy:  -461.58612261253910

   => Energetics <=

    Nuclear Repulsion Energy =            594.4193977062486738
    One-Electron Energy =               -1801.9801656028848811
    Two-Electron Energy =                 745.9746452840970505
    Total Energy =                       -461.5861226125391568

  Dipole Moment: [D]
     X:     0.0365      Y:    -0.0133      Z:    -0.5154     Total:     0.5168

  Basis Set: (AUG-CC-PVQZ AUX)
    Blend: AUG-CC-PVQZ-RI
	 Reference Energy          =    -461.5861226125390999 [Eh]
	 Singles Energy            =      -0.0000000000000000 [Eh]
	 Same-Spin Energy          =      -0.5443287552971465 [Eh]
	 Opposite-Spin Energy      =      -1.8420455862827181 [Eh]
	 Correlation Energy        =      -2.3863743415798648 [Eh]
	 Total Energy              =    -463.9724969541189807 [Eh]

	 ================> DF-SCS-MP2 Energies <==================
	-----------------------------------------------------------
	 SCS Same-Spin Scale       =       0.3333333333333333 [-]
	 SCS Opposite-Spin Scale   =       1.2000000000000000 [-]
	 SCS Same-Spin Energy      =      -0.1814429184323822 [Eh]
	 SCS Opposite-Spin Energy  =      -2.2104547035392614 [Eh]
	 SCS Correlation Energy    =      -2.3918976219716437 [Eh]
	 SCS Total Energy          =    -463.9780202345107227 [Eh]
	-----------------------------------------------------------

*** Psi4 exiting successfully. Buy a developer a beer!
