                               Psi4 1.4a2.dev224

  ==> Input File <==

--------------------------------------------------------------------------
#Generated by lconvert.py for cbs job

memory 40 GB

molecule  {
0 1
  C        0.7291890     1.1131010     0.3267280
  H        1.3032160     2.0142220     0.1591600
  C        1.3750870    -0.1193660     0.4127770
  H        2.4505150    -0.1746240     0.3133070
  C        0.6350400    -1.2805530     0.6293850
  H        1.1363340    -2.2360170     0.7002170
  C       -0.7509860    -1.2096540     0.7578900
  H       -1.3245260    -2.1114130     0.9241990
  C       -1.3970340     0.0226710     0.6730900
  H       -2.4724250     0.0784880     0.7739980
  C       -0.6568970     1.1842960     0.4583390
  H       -1.1578280     2.1405870     0.3950960
--
0 1
  C        0.1345730     0.1184080     3.8844330
  H        0.2566990     0.3438910     2.8340060
  C       -0.9565090    -0.6364910     4.3117690
  H       -1.6770130    -0.9930050     3.5880750
  C       -1.1172090    -0.9306160     5.6647190
  H       -1.9643160    -1.5165850     5.9949670
  C       -0.1853260    -0.4695630     6.5932130
  H       -0.3092200    -0.6975290     7.6432210
  C        0.9062590     0.2855390     6.1679730
  H        1.6293780     0.6433720     6.8883550
  C        1.0650630     0.5790240     4.8144820
  H        1.9123210     1.1650990     4.4844340
units angstrom
no_reorient
symmetry c1
}

set {
scf_type DF
mp2_type DF
e_convergence 7
reference rhf
}

energy('mp2/aug-cc-pv[tq]z', bsse_type='cp')
--------------------------------------------------------------------------

    Molecular point group: c1
  Charge       = 0
  Multiplicity = 1
  Basis Set: AUG-CC-PVTZ
    Blend: AUG-CC-PVTZ
  Basis Set: (AUG-CC-PVTZ AUX)
    Blend: AUG-CC-PVTZ-JKFIT
  @DF-RHF Final Energy:  -230.78122953345735
    Total Energy =                       -230.7812295334573491
  Basis Set: (AUG-CC-PVTZ AUX)
    Blend: AUG-CC-PVTZ-RI
	 Reference Energy          =    -230.7812295334573491 [Eh]
	 Singles Energy            =      -0.0000000000000000 [Eh]
	 Same-Spin Energy          =      -0.2553783474162264 [Eh]
	 Opposite-Spin Energy      =      -0.8183285379764820 [Eh]
	 Correlation Energy        =      -1.0737068853927085 [Eh]
	 Total Energy              =    -231.8549364188500590 [Eh]
	 SCS Total Energy          =    -231.8483498948345414 [Eh]
    Molecular point group: c1
  Basis Set: AUG-CC-PVQZ
    Blend: AUG-CC-PVQZ
  Basis Set: (AUG-CC-PVQZ AUX)
    Blend: AUG-CC-PVQZ-JKFIT
  @DF-RHF Final Energy:  -230.79440359412638
    Total Energy =                       -230.7944035941263792
  Basis Set: (AUG-CC-PVQZ AUX)
  @DF-RHF Final Energy:  -230.78133886662894
    Total Energy =                       -230.7813388666289143
  @DF-RHF Final Energy:  -230.79443382681427
    Total Energy =                       -230.7944338268142701
  @DF-RHF Final Energy:  -230.78149396340217
    Total Energy =                       -230.7814939634021698
  @DF-RHF Final Energy:  -230.79446531357200
    Total Energy =                       -230.7944653135720046
  @DF-RHF Final Energy:  -230.78123447969722
    Total Energy =                       -230.7812344796972184
  @DF-RHF Final Energy:  -230.79440839796663
    Total Energy =                       -230.7944083979666061
  Multiplicity = 1
  @DF-RHF Final Energy:  -461.55763778617370
    Total Energy =                       -461.5576377861737001
	 Singles Energy            =      -0.0000000000000000 [Eh]
	 Same-Spin Energy          =      -0.5166321650526140 [Eh]
	 Opposite-Spin Energy      =      -1.6474276513920785 [Eh]
	 Correlation Energy        =      -2.1640598164446923 [Eh]
	 Total Energy              =    -463.7216976026184057 [Eh]
	 SCS Total Energy          =    -463.7067616895283777 [Eh]
    Molecular point group: c1

    Geometry (in Angstrom), charge = 0, multiplicity = 1:

       Center              X                  Y                   Z               Mass
    ------------   -----------------  -----------------  -----------------  -----------------
         C            0.747405996107     1.225036668191    -2.564532522986    12.000000000000
         H            1.321432996107     2.126157668191    -2.732100522986     1.007825032230
         C            1.393303996107    -0.007430331809    -2.478483522986    12.000000000000
         H            2.468731996107    -0.062688331809    -2.577953522986     1.007825032230
         C            0.653256996107    -1.168617331809    -2.261875522986    12.000000000000
         H            1.154550996107    -2.124081331809    -2.191043522986     1.007825032230
         C           -0.732769003893    -1.097718331809    -2.133370522986    12.000000000000
         H           -1.306309003893    -1.999477331809    -1.967061522986     1.007825032230
         C           -1.378817003893     0.134606668191    -2.218170522986    12.000000000000
         H           -2.454208003893     0.190423668191    -2.117262522986     1.007825032230
         C           -0.638680003893     1.296231668191    -2.432921522986    12.000000000000
         H           -1.139611003893     2.252522668191    -2.496164522986     1.007825032230
         C            0.152789996107     0.230343668191     0.993172477014    12.000000000000
         H            0.274915996107     0.455826668191    -0.057254522986     1.007825032230
         C           -0.938292003893    -0.524555331809     1.420508477014    12.000000000000
         H           -1.658796003893    -0.881069331809     0.696814477014     1.007825032230
         C           -1.098992003893    -0.818680331809     2.773458477014    12.000000000000
         H           -1.946099003893    -1.404649331809     3.103706477014     1.007825032230
         C           -0.167109003893    -0.357627331809     3.701952477014    12.000000000000
         H           -0.291003003893    -0.585593331809     4.751960477014     1.007825032230
         C            0.924475996107     0.397474668191     3.276712477014    12.000000000000
         H            1.647594996107     0.755307668191     3.997094477014     1.007825032230
         C            1.083279996107     0.690959668191     1.923221477014    12.000000000000
         H            1.930537996107     1.277034668191     1.593173477014     1.007825032230

  Charge       = 0
  Multiplicity = 1
  Basis Set: AUG-CC-PVQZ
    Blend: AUG-CC-PVQZ
  Basis Set: (AUG-CC-PVQZ AUX)
    Blend: AUG-CC-PVQZ-JKFIT

    Orbital Energies [Eh]
    ---------------------

    Doubly Occupied:

       1A    -11.239759     2A    -11.239178     3A    -11.239046
       4A    -11.237917     5A    -11.237872     6A    -11.237195
       7A    -11.227202     8A    -11.226682     9A    -11.225372
      10A    -11.224379    11A    -11.223650    12A    -11.220237
      13A     -1.155963    14A     -1.140982    15A     -1.019936
      16A     -1.019456    17A     -1.005861    18A     -1.005210
      19A     -0.828824    20A     -0.828728    21A     -0.815422
      22A     -0.814980    23A     -0.714744    24A     -0.701663
      25A     -0.648598    26A     -0.636006    27A     -0.623826
      28A     -0.610212    29A     -0.593216    30A     -0.592699
      31A     -0.582634    32A     -0.579756    33A     -0.509346
      34A     -0.499634    35A     -0.499410    36A     -0.493968
      37A     -0.486164    38A     -0.478635    39A     -0.346243
      40A     -0.343251    41A     -0.328999    42A     -0.323796

  @DF-RHF Final Energy:  -461.58370494004072

   => Energetics <=

    Nuclear Repulsion Energy =            600.4000258430758095
    One-Electron Energy =               -1813.9541508496008646
    Two-Electron Energy =                 751.9704200664843938
    Total Energy =                       -461.5837049400406613

  Dipole Moment: [D]
     X:     0.0392      Y:    -0.0108      Z:    -0.5670     Total:     0.5685

  Basis Set: (AUG-CC-PVQZ AUX)
    Blend: AUG-CC-PVQZ-RI
	 Reference Energy          =    -461.5837049400407182 [Eh]
	 Singles Energy            =      -0.0000000000000000 [Eh]
	 Same-Spin Energy          =      -0.5454643618372652 [Eh]
	 Opposite-Spin Energy      =      -1.8434909386949347 [Eh]
	 Correlation Energy        =      -2.3889553005322002 [Eh]
	 Total Energy              =    -463.9726602405729068 [Eh]

	 ================> DF-SCS-MP2 Energies <==================
	-----------------------------------------------------------
	 SCS Same-Spin Scale       =       0.3333333333333333 [-]
	 SCS Opposite-Spin Scale   =       1.2000000000000000 [-]
	 SCS Same-Spin Energy      =      -0.1818214539457551 [Eh]
	 SCS Opposite-Spin Energy  =      -2.2121891264339215 [Eh]
	 SCS Correlation Energy    =      -2.3940105803796765 [Eh]
	 SCS Total Energy          =    -463.9777155204204178 [Eh]
	-----------------------------------------------------------

*** Psi4 exiting successfully. Buy a developer a beer!
