                               Psi4 1.4a2.dev224

  ==> Input File <==

--------------------------------------------------------------------------
#Generated by lconvert.py for cbs job

memory 20 GB

molecule  {
0 1
  C       0.729190    1.113100    0.326730
  H       1.303220    2.014220    0.159160
  C       1.375090   -0.119370    0.412780
  H       2.450520   -0.174620    0.313310
  C       0.635040   -1.280550    0.629380
  H       1.136330   -2.236020    0.700220
  C      -0.750990   -1.209650    0.757890
  H      -1.324530   -2.111410    0.924200
  C      -1.397030    0.022670    0.673090
  H      -2.472420    0.078490    0.774000
  C      -0.656900    1.184300    0.458340
  H      -1.157830    2.140590    0.395100
--
0 1
  C       0.404340    0.513680    6.193690
  H       0.526470    0.739170    5.143260
  C      -0.686740   -0.241210    6.621020
  H      -1.407240   -0.597730    5.897330
  C      -0.847440   -0.535340    7.973970
  H      -1.694550   -1.121310    8.304220
  C       0.084440   -0.074290    8.902470
  H      -0.039450   -0.302250    9.952470
  C       1.176030    0.680820    8.477230
  H       1.899150    1.038650    9.197610
  C       1.334830    0.974300    7.123730
  H       2.182090    1.560380    6.793690
units angstrom
no_reorient
symmetry c1
}

set {
scf_type DF
mp2_type DF
e_convergence 7
reference rhf
}

energy('mp2/aug-cc-pv[tq]z', bsse_type='cp')
--------------------------------------------------------------------------

    Molecular point group: c1
  Charge       = 0
  Multiplicity = 1
  Basis Set: AUG-CC-PVTZ
    Blend: AUG-CC-PVTZ
  Basis Set: (AUG-CC-PVTZ AUX)
    Blend: AUG-CC-PVTZ-JKFIT
  @DF-RHF Final Energy:  -230.78122950703442
    Total Energy =                       -230.7812295070344248
  Basis Set: (AUG-CC-PVTZ AUX)
    Blend: AUG-CC-PVTZ-RI
	 Reference Energy          =    -230.7812295070344248 [Eh]
	 Singles Energy            =      -0.0000000000000000 [Eh]
	 Same-Spin Energy          =      -0.2553783405132727 [Eh]
	 Opposite-Spin Energy      =      -0.8183285620669800 [Eh]
	 Correlation Energy        =      -1.0737069025802528 [Eh]
	 Total Energy              =    -231.8549364096146803 [Eh]
	 SCS Total Energy          =    -231.8483498950192256 [Eh]
    Molecular point group: c1
  Basis Set: AUG-CC-PVQZ
    Blend: AUG-CC-PVQZ
  Basis Set: (AUG-CC-PVQZ AUX)
    Blend: AUG-CC-PVQZ-JKFIT
  @DF-RHF Final Energy:  -230.79440356486876
    Total Energy =                       -230.7944035648687304
  Basis Set: (AUG-CC-PVQZ AUX)
  @DF-RHF Final Energy:  -230.78124654131119
    Total Energy =                       -230.7812465413111909
  @DF-RHF Final Energy:  -230.79440929843852
    Total Energy =                       -230.7944092984385520
  @DF-RHF Final Energy:  -230.78127498407039
    Total Energy =                       -230.7812749840703646
  @DF-RHF Final Energy:  -230.79441916972235
    Total Energy =                       -230.7944191697223459
  @DF-RHF Final Energy:  -230.78123443323057
    Total Energy =                       -230.7812344332305656
  @DF-RHF Final Energy:  -230.79440835357957
    Total Energy =                       -230.7944083535795698
  Multiplicity = 1
  @DF-RHF Final Energy:  -461.56279261416614
    Total Energy =                       -461.5627926141661419
	 Singles Energy            =      -0.0000000000000000 [Eh]
	 Same-Spin Energy          =      -0.5111122777015351 [Eh]
	 Opposite-Spin Energy      =      -1.6374747544132040 [Eh]
	 Correlation Energy        =      -2.1485870321147393 [Eh]
	 Total Energy              =    -463.7113796462808750 [Eh]
	 SCS Total Energy          =    -463.6981330786958324 [Eh]
    Molecular point group: c1

    Geometry (in Angstrom), charge = 0, multiplicity = 1:

       Center              X                  Y                   Z               Mass
    ------------   -----------------  -----------------  -----------------  -----------------
         C            0.612522732592     1.027396936959    -3.719157440255    12.000000000000
         H            1.186552732592     1.928516936959    -3.886727440255     1.007825032230
         C            1.258422732592    -0.205073063041    -3.633107440255    12.000000000000
         H            2.333852732592    -0.260323063041    -3.732577440255     1.007825032230
         C            0.518372732592    -1.366253063041    -3.416507440255    12.000000000000
         H            1.019662732592    -2.321723063041    -3.345667440255     1.007825032230
         C           -0.867657267408    -1.295353063041    -3.287997440255    12.000000000000
         H           -1.441197267408    -2.197113063041    -3.121687440255     1.007825032230
         C           -1.513697267408    -0.063033063041    -3.372797440255    12.000000000000
         H           -2.589087267408    -0.007213063041    -3.271887440255     1.007825032230
         C           -0.773567267408     1.098596936959    -3.587547440255    12.000000000000
         H           -1.274497267408     2.054886936959    -3.650787440255     1.007825032230
         C            0.287672732592     0.427976936959     2.147802559745    12.000000000000
         H            0.409802732592     0.653466936959     1.097372559745     1.007825032230
         C           -0.803407267408    -0.326913063041     2.575132559745    12.000000000000
         H           -1.523907267408    -0.683433063041     1.851442559745     1.007825032230
         C           -0.964107267408    -0.621043063041     3.928082559745    12.000000000000
         H           -1.811217267408    -1.207013063041     4.258332559745     1.007825032230
         C           -0.032227267408    -0.159993063041     4.856582559745    12.000000000000
         H           -0.156117267408    -0.387953063041     5.906582559745     1.007825032230
         C            1.059362732592     0.595116936959     4.431342559745    12.000000000000
         H            1.782482732592     0.952946936959     5.151722559745     1.007825032230
         C            1.218162732592     0.888596936959     3.077842559745    12.000000000000
         H            2.065422732592     1.474676936959     2.747802559745     1.007825032230

  Charge       = 0
  Multiplicity = 1
  Basis Set: AUG-CC-PVQZ
    Blend: AUG-CC-PVQZ
  Basis Set: (AUG-CC-PVQZ AUX)
    Blend: AUG-CC-PVQZ-JKFIT

    Orbital Energies [Eh]
    ---------------------

    Doubly Occupied:

       1A    -11.236687     2A    -11.236133     3A    -11.236066
       4A    -11.234885     5A    -11.234832     6A    -11.234237
       7A    -11.232688     8A    -11.232089     9A    -11.231778
      10A    -11.230764    11A    -11.230739    12A    -11.229858
      13A     -1.151431    14A     -1.147325    15A     -1.015923
      16A     -1.015893    17A     -1.011865    18A     -1.011691
      19A     -0.825459    20A     -0.825359    21A     -0.821415
      22A     -0.821109    23A     -0.711106    24A     -0.706958
      25A     -0.645582    26A     -0.641376    27A     -0.620558
      28A     -0.616465    29A     -0.589531    30A     -0.589524
      31A     -0.585471    32A     -0.585264    33A     -0.504006
      34A     -0.499841    35A     -0.496432    36A     -0.496354
      37A     -0.492538    38A     -0.491921    39A     -0.338426
      40A     -0.338359    41A     -0.334321    42A     -0.334148

  @DF-RHF Final Energy:  -461.58909642493313

   => Energetics <=

    Nuclear Repulsion Energy =            538.6350108851074765
    One-Electron Energy =               -1690.3154213587586128
    Two-Electron Energy =                 690.0913140487180044
    Total Energy =                       -461.5890964249331319

  Dipole Moment: [D]
     X:     0.0093      Y:    -0.0119      Z:    -0.1405     Total:     0.1413

  Basis Set: (AUG-CC-PVQZ AUX)
    Blend: AUG-CC-PVQZ-RI
	 Reference Energy          =    -461.5890964249331319 [Eh]
	 Singles Energy            =      -0.0000000000000000 [Eh]
	 Same-Spin Energy          =      -0.5402003332372188 [Eh]
	 Opposite-Spin Energy      =      -1.8367729406943285 [Eh]
	 Correlation Energy        =      -2.3769732739315472 [Eh]
	 Total Energy              =    -463.9660696988646578 [Eh]

	 ================> DF-SCS-MP2 Energies <==================
	-----------------------------------------------------------
	 SCS Same-Spin Scale       =       0.3333333333333333 [-]
	 SCS Opposite-Spin Scale   =       1.2000000000000000 [-]
	 SCS Same-Spin Energy      =      -0.1800667777457396 [Eh]
	 SCS Opposite-Spin Energy  =      -2.2041275288331943 [Eh]
	 SCS Correlation Energy    =      -2.3841943065789337 [Eh]
	 SCS Total Energy          =    -463.9732907315120656 [Eh]
	-----------------------------------------------------------

*** Psi4 exiting successfully. Buy a developer a beer!
