                               Psi4 1.4a2.dev224

  ==> Input File <==

--------------------------------------------------------------------------
#Generated by lconvert.py for cbs job

memory 40 GB

molecule  {
0 1
  C        0.7291890     1.1131010     0.3267280
  H        1.3032160     2.0142220     0.1591600
  C        1.3750870    -0.1193660     0.4127770
  H        2.4505150    -0.1746240     0.3133070
  C        0.6350400    -1.2805530     0.6293850
  H        1.1363340    -2.2360170     0.7002170
  C       -0.7509860    -1.2096540     0.7578900
  H       -1.3245260    -2.1114130     0.9241990
  C       -1.3970340     0.0226710     0.6730900
  H       -2.4724250     0.0784880     0.7739980
  C       -0.6568970     1.1842960     0.4583390
  H       -1.1578280     2.1405870     0.3950960
--
0 1
  C        0.1715550     0.1725960     4.2010040
  H        0.2936810     0.3980790     3.1505780
  C       -0.9195270    -0.5823030     4.6283400
  H       -1.6400310    -0.9388170     3.9046460
  C       -1.0802270    -0.8764280     5.9812910
  H       -1.9273340    -1.4623970     6.3115380
  C       -0.1483440    -0.4153750     6.9097850
  H       -0.2722380    -0.6433410     7.9597920
  C        0.9432410     0.3397270     6.4845440
  H        1.6663600     0.6975610     7.2049270
  C        1.1020450     0.6332120     5.1310530
  H        1.9493030     1.2192870     4.8010060
units angstrom
no_reorient
symmetry c1
}

set {
scf_type DF
mp2_type DF
e_convergence 7
reference rhf
}

energy('mp2/aug-cc-pv[tq]z', bsse_type='cp')
--------------------------------------------------------------------------

    Molecular point group: c1
  Charge       = 0
  Multiplicity = 1
  Basis Set: AUG-CC-PVTZ
    Blend: AUG-CC-PVTZ
  Basis Set: (AUG-CC-PVTZ AUX)
    Blend: AUG-CC-PVTZ-JKFIT
  @DF-RHF Final Energy:  -230.78122952505635
    Total Energy =                       -230.7812295250563466
  Basis Set: (AUG-CC-PVTZ AUX)
    Blend: AUG-CC-PVTZ-RI
	 Reference Energy          =    -230.7812295250563466 [Eh]
	 Singles Energy            =      -0.0000000000000000 [Eh]
	 Same-Spin Energy          =      -0.2553783451040262 [Eh]
	 Opposite-Spin Energy      =      -0.8183285428234695 [Eh]
	 Correlation Energy        =      -1.0737068879274956 [Eh]
	 Total Energy              =    -231.8549364129838466 [Eh]
	 SCS Total Energy          =    -231.8483498914791880 [Eh]
    Molecular point group: c1
  Basis Set: AUG-CC-PVQZ
    Blend: AUG-CC-PVQZ
  Basis Set: (AUG-CC-PVQZ AUX)
    Blend: AUG-CC-PVQZ-JKFIT
  @DF-RHF Final Energy:  -230.79440358448483
    Total Energy =                       -230.7944035844848258
  Basis Set: (AUG-CC-PVQZ AUX)
  @DF-RHF Final Energy:  -230.78131144015131
    Total Energy =                       -230.7813114401513417
  @DF-RHF Final Energy:  -230.79442685625509
    Total Energy =                       -230.7944268562550860
  @DF-RHF Final Energy:  -230.78144012179655
    Total Energy =                       -230.7814401217965496
  @DF-RHF Final Energy:  -230.79445393232879
    Total Energy =                       -230.7944539323287927
  @DF-RHF Final Energy:  -230.78123448127525
    Total Energy =                       -230.7812344812752485
  @DF-RHF Final Energy:  -230.79440839973657
    Total Energy =                       -230.7944083997365396
  Multiplicity = 1
  @DF-RHF Final Energy:  -461.56142758740134
    Total Energy =                       -461.5614275874013401
	 Singles Energy            =      -0.0000000000000000 [Eh]
	 Same-Spin Energy          =      -0.5145475640217576 [Eh]
	 Opposite-Spin Energy      =      -1.6440535095946420 [Eh]
	 Correlation Energy        =      -2.1586010736163996 [Eh]
	 Total Energy              =    -463.7200286610177500 [Eh]
	 SCS Total Energy          =    -463.7058076535888063 [Eh]
    Molecular point group: c1

    Geometry (in Angstrom), charge = 0, multiplicity = 1:

       Center              X                  Y                   Z               Mass
    ------------   -----------------  -----------------  -----------------  -----------------
         C            0.728914996107     1.197942661735    -2.722818196110    12.000000000000
         H            1.302941996107     2.099063661735    -2.890386196110     1.007825032230
         C            1.374812996107    -0.034524338265    -2.636769196110    12.000000000000
         H            2.450240996107    -0.089782338265    -2.736239196110     1.007825032230
         C            0.634765996107    -1.195711338265    -2.420161196110    12.000000000000
         H            1.136059996107    -2.151175338265    -2.349329196110     1.007825032230
         C           -0.751260003893    -1.124812338265    -2.291656196110    12.000000000000
         H           -1.324800003893    -2.026571338265    -2.125347196110     1.007825032230
         C           -1.397308003893     0.107512661735    -2.376456196110    12.000000000000
         H           -2.472699003893     0.163329661735    -2.275548196110     1.007825032230
         C           -0.657171003893     1.269137661735    -2.591207196110    12.000000000000
         H           -1.158102003893     2.225428661735    -2.654450196110     1.007825032230
         C            0.171280996107     0.257437661735     1.151457803890    12.000000000000
         H            0.293406996107     0.482920661735     0.101031803890     1.007825032230
         C           -0.919801003893    -0.497461338265     1.578793803890    12.000000000000
         H           -1.640305003893    -0.853975338265     0.855099803890     1.007825032230
         C           -1.080501003893    -0.791586338265     2.931744803890    12.000000000000
         H           -1.927608003893    -1.377555338265     3.261991803890     1.007825032230
         C           -0.148618003893    -0.330533338265     3.860238803890    12.000000000000
         H           -0.272512003893    -0.558499338265     4.910245803890     1.007825032230
         C            0.942966996107     0.424568661735     3.434997803890    12.000000000000
         H            1.666085996107     0.782402661735     4.155380803890     1.007825032230
         C            1.101770996107     0.718053661735     2.081506803890    12.000000000000
         H            1.949028996107     1.304128661735     1.751459803890     1.007825032230

  Charge       = 0
  Multiplicity = 1
  Basis Set: AUG-CC-PVQZ
    Blend: AUG-CC-PVQZ
  Basis Set: (AUG-CC-PVQZ AUX)
    Blend: AUG-CC-PVQZ-JKFIT

    Orbital Energies [Eh]
    ---------------------

    Doubly Occupied:

       1A    -11.239155     2A    -11.238605     3A    -11.238461
       4A    -11.237343     5A    -11.237267     6A    -11.236634
       7A    -11.228576     8A    -11.227980     9A    -11.226923
      10A    -11.226174    11A    -11.225646    12A    -11.223185
      13A     -1.154563    14A     -1.142652    15A     -1.018835
      16A     -1.018561    17A     -1.007352    18A     -1.006867
      19A     -0.828011    20A     -0.827905    21A     -0.816868
      22A     -0.816384    23A     -0.713724    24A     -0.702628
      25A     -0.647893    26A     -0.636970    27A     -0.623107
      28A     -0.611762    29A     -0.592241    30A     -0.591915
      31A     -0.581863    32A     -0.581123    33A     -0.508377
      34A     -0.498870    35A     -0.498737    36A     -0.495388
      37A     -0.487603    38A     -0.484011    39A     -0.343286
      40A     -0.341985    41A     -0.330312    42A     -0.327246

  @DF-RHF Final Energy:  -461.58755737241057

   => Energetics <=

    Nuclear Repulsion Energy =            588.8617969515704544
    One-Electron Energy =               -1790.8527365947534236
    Two-Electron Energy =                 740.4033822707725676
    Total Energy =                       -461.5875573724105152

  Dipole Moment: [D]
     X:     0.0337      Y:    -0.0150      Z:    -0.4683     Total:     0.4698

  Basis Set: (AUG-CC-PVQZ AUX)
    Blend: AUG-CC-PVQZ-RI
	 Reference Energy          =    -461.5875573724105720 [Eh]
	 Singles Energy            =      -0.0000000000000000 [Eh]
	 Same-Spin Energy          =      -0.5434454675138011 [Eh]
	 Opposite-Spin Energy      =      -1.8409210561318288 [Eh]
	 Correlation Energy        =      -2.3843665236456300 [Eh]
	 Total Energy              =    -463.9719238960561825 [Eh]

	 ================> DF-SCS-MP2 Energies <==================
	-----------------------------------------------------------
	 SCS Same-Spin Scale       =       0.3333333333333333 [-]
	 SCS Opposite-Spin Scale   =       1.2000000000000000 [-]
	 SCS Same-Spin Energy      =      -0.1811484891712670 [Eh]
	 SCS Opposite-Spin Energy  =      -2.2091052673581943 [Eh]
	 SCS Correlation Energy    =      -2.3902537565294613 [Eh]
	 SCS Total Energy          =    -463.9778111289400613 [Eh]
	-----------------------------------------------------------

*** Psi4 exiting successfully. Buy a developer a beer!
