                               Psi4 1.4a2.dev224

  ==> Input File <==

--------------------------------------------------------------------------
#Generated by lconvert.py for cbs job

memory 20 GB

molecule  {
0 1
  C       0.729190    1.113100    0.326730
  H       1.303220    2.014220    0.159160
  C       1.375090   -0.119370    0.412780
  H       2.450520   -0.174620    0.313310
  C       0.635040   -1.280550    0.629380
  H       1.136330   -2.236020    0.700220
  C      -0.750990   -1.209650    0.757890
  H      -1.324530   -2.111410    0.924200
  C      -1.397030    0.022670    0.673090
  H      -2.472420    0.078490    0.774000
  C      -0.656900    1.184300    0.458340
  H      -1.157830    2.140590    0.395100
--
0 1
  C       0.275520    0.324930    5.090980
  H       0.397650    0.550420    4.040560
  C      -0.815560   -0.429960    5.518320
  H      -1.536060   -0.786480    4.794620
  C      -0.976260   -0.724090    6.871270
  H      -1.823370   -1.310060    7.201520
  C      -0.044380   -0.263040    7.799760
  H      -0.168270   -0.491000    8.849770
  C       1.047210    0.492070    7.374520
  H       1.770330    0.849900    8.094910
  C       1.206010    0.785550    6.021030
  H       2.053270    1.371630    5.690980
units angstrom
no_reorient
symmetry c1
}

set {
scf_type DF
mp2_type DF
e_convergence 7
reference rhf
}

energy('mp2/aug-cc-pv[tq]z', bsse_type='cp')
--------------------------------------------------------------------------

    Molecular point group: c1
  Charge       = 0
  Multiplicity = 1
  Basis Set: AUG-CC-PVTZ
    Blend: AUG-CC-PVTZ
  Basis Set: (AUG-CC-PVTZ AUX)
    Blend: AUG-CC-PVTZ-JKFIT
  @DF-RHF Final Energy:  -230.78122942322025
    Total Energy =                       -230.7812294232202817
  Basis Set: (AUG-CC-PVTZ AUX)
    Blend: AUG-CC-PVTZ-RI
	 Reference Energy          =    -230.7812294232202532 [Eh]
	 Singles Energy            =      -0.0000000000000000 [Eh]
	 Same-Spin Energy          =      -0.2553783672014063 [Eh]
	 Opposite-Spin Energy      =      -0.8183285937309024 [Eh]
	 Correlation Energy        =      -1.0737069609323087 [Eh]
	 Total Energy              =    -231.8549363841525519 [Eh]
	 SCS Total Energy          =    -231.8483498580978051 [Eh]
    Molecular point group: c1
  Basis Set: AUG-CC-PVQZ
    Blend: AUG-CC-PVQZ
  Basis Set: (AUG-CC-PVQZ AUX)
    Blend: AUG-CC-PVQZ-JKFIT
  @DF-RHF Final Energy:  -230.79440347786453
    Total Energy =                       -230.7944034778645346
  Basis Set: (AUG-CC-PVQZ AUX)
  @DF-RHF Final Energy:  -230.78126844505920
    Total Energy =                       -230.7812684450591973
  @DF-RHF Final Energy:  -230.79441566014424
    Total Energy =                       -230.7944156601442387
  @DF-RHF Final Energy:  -230.78133063174468
    Total Energy =                       -230.7813306317447086
  @DF-RHF Final Energy:  -230.79443041312314
    Total Energy =                       -230.7944304131231092
  @DF-RHF Final Energy:  -230.78123443333848
    Total Energy =                       -230.7812344333384544
  @DF-RHF Final Energy:  -230.79440835177837
    Total Energy =                       -230.7944083517783724
  Multiplicity = 1
  @DF-RHF Final Energy:  -461.56306928366348
    Total Energy =                       -461.5630692836634807
	 Singles Energy            =      -0.0000000000000000 [Eh]
	 Same-Spin Energy          =      -0.5119654855221424 [Eh]
	 Opposite-Spin Energy      =      -1.6392529858383136 [Eh]
	 Correlation Energy        =      -2.1512184713604561 [Eh]
	 Total Energy              =    -463.7142877550239177 [Eh]
	 SCS Total Energy          =    -463.7008280285101591 [Eh]
    Molecular point group: c1

    Geometry (in Angstrom), charge = 0, multiplicity = 1:

       Center              X                  Y                   Z               Mass
    ------------   -----------------  -----------------  -----------------  -----------------
         C            0.676932732592     1.121771936959    -3.167805004820    12.000000000000
         H            1.250962732592     2.022891936959    -3.335375004820     1.007825032230
         C            1.322832732592    -0.110698063041    -3.081755004820    12.000000000000
         H            2.398262732592    -0.165948063041    -3.181225004820     1.007825032230
         C            0.582782732592    -1.271878063041    -2.865155004820    12.000000000000
         H            1.084072732592    -2.227348063041    -2.794315004820     1.007825032230
         C           -0.803247267408    -1.200978063041    -2.736645004820    12.000000000000
         H           -1.376787267408    -2.102738063041    -2.570335004820     1.007825032230
         C           -1.449287267408     0.031341936959    -2.821445004820    12.000000000000
         H           -2.524677267408     0.087161936959    -2.720535004820     1.007825032230
         C           -0.709157267408     1.192971936959    -3.036195004820    12.000000000000
         H           -1.210087267408     2.149261936959    -3.099435004820     1.007825032230
         C            0.223262732592     0.333601936959     1.596444995180    12.000000000000
         H            0.345392732592     0.559091936959     0.546024995180     1.007825032230
         C           -0.867817267408    -0.421288063041     2.023784995180    12.000000000000
         H           -1.588317267408    -0.777808063041     1.300084995180     1.007825032230
         C           -1.028517267408    -0.715418063041     3.376734995180    12.000000000000
         H           -1.875627267408    -1.301388063041     3.706984995180     1.007825032230
         C           -0.096637267408    -0.254368063041     4.305224995180    12.000000000000
         H           -0.220527267408    -0.482328063041     5.355234995180     1.007825032230
         C            0.994952732592     0.500741936959     3.879984995180    12.000000000000
         H            1.718072732592     0.858571936959     4.600374995180     1.007825032230
         C            1.153752732592     0.794221936959     2.526494995180    12.000000000000
         H            2.001012732592     1.380301936959     2.196444995180     1.007825032230

  Charge       = 0
  Multiplicity = 1
  Basis Set: AUG-CC-PVQZ
    Blend: AUG-CC-PVQZ
  Basis Set: (AUG-CC-PVQZ AUX)
    Blend: AUG-CC-PVQZ-JKFIT

    Orbital Energies [Eh]
    ---------------------

    Doubly Occupied:

       1A    -11.237733     2A    -11.237189     3A    -11.237080
       4A    -11.235937     5A    -11.235858     6A    -11.235261
       7A    -11.231079     8A    -11.230447     9A    -11.229830
      10A    -11.229058    11A    -11.228868    12A    -11.227547
      13A     -1.152582    14A     -1.145534    15A     -1.017025
      16A     -1.016966    17A     -1.010008    18A     -1.009925
      19A     -0.826492    20A     -0.826378    21A     -0.819622
      22A     -0.819235    23A     -0.712127    24A     -0.705133
      25A     -0.646525    26A     -0.639512    27A     -0.621608
      28A     -0.614642    29A     -0.590589    30A     -0.590486
      31A     -0.583650    32A     -0.583466    33A     -0.505470
      34A     -0.498099    35A     -0.497381    36A     -0.497374
      37A     -0.490323    38A     -0.490099    39A     -0.339741
      40A     -0.339690    41A     -0.332744    42A     -0.331985

  @DF-RHF Final Energy:  -461.58931175062389

   => Energetics <=

    Nuclear Repulsion Energy =            562.5145722814945657
    One-Electron Energy =               -1738.1071895723769103
    Two-Electron Energy =                 714.0033055402584523
    Total Energy =                       -461.5893117506238923

  Dipole Moment: [D]
     X:     0.0192      Y:    -0.0159      Z:    -0.2696     Total:     0.2708

  Basis Set: (AUG-CC-PVQZ AUX)
    Blend: AUG-CC-PVQZ-RI
	 Reference Energy          =    -461.5893117506238923 [Eh]
	 Singles Energy            =      -0.0000000000000000 [Eh]
	 Same-Spin Energy          =      -0.5409773941988587 [Eh]
	 Opposite-Spin Energy      =      -1.8377697925204224 [Eh]
	 Correlation Energy        =      -2.3787471867192811 [Eh]
	 Total Energy              =    -463.9680589373431872 [Eh]

	 ================> DF-SCS-MP2 Energies <==================
	-----------------------------------------------------------
	 SCS Same-Spin Scale       =       0.3333333333333333 [-]
	 SCS Opposite-Spin Scale   =       1.2000000000000000 [-]
	 SCS Same-Spin Energy      =      -0.1803257980662862 [Eh]
	 SCS Opposite-Spin Energy  =      -2.2053237510245070 [Eh]
	 SCS Correlation Energy    =      -2.3856495490907932 [Eh]
	 SCS Total Energy          =    -463.9749612997146642 [Eh]
	-----------------------------------------------------------

*** Psi4 exiting successfully. Buy a developer a beer!
