                               Psi4 1.4a2.dev224

  ==> Input File <==

--------------------------------------------------------------------------
#Generated by lconvert.py for cbs job

memory 40 GB

molecule  {
0 1
  C        0.7291890     1.1131010     0.3267280
  H        1.3032160     2.0142220     0.1591600
  C        1.3750870    -0.1193660     0.4127770
  H        2.4505150    -0.1746240     0.3133070
  C        0.6350400    -1.2805530     0.6293850
  H        1.1363340    -2.2360170     0.7002170
  C       -0.7509860    -1.2096540     0.7578900
  H       -1.3245260    -2.1114130     0.9241990
  C       -1.3970340     0.0226710     0.6730900
  H       -2.4724250     0.0784880     0.7739980
  C       -0.6568970     1.1842960     0.4583390
  H       -1.1578280     2.1405870     0.3950960
--
0 1
  C        0.0330290    -0.0303790     3.0152060
  H        0.1551550     0.1951040     1.9647800
  C       -1.0580530    -0.7852780     3.4425430
  H       -1.7785570    -1.1417920     2.7188480
  C       -1.2187530    -1.0794030     4.7954930
  H       -2.0658600    -1.6653720     5.1257400
  C       -0.2868700    -0.6183500     5.7239870
  H       -0.4107630    -0.8463160     6.7739940
  C        0.8047150     0.1367520     5.2987470
  H        1.5278340     0.4945850     6.0191290
  C        0.9635190     0.4302370     3.9452550
  H        1.8107770     1.0163120     3.6152080
units angstrom
no_reorient
symmetry c1
}

set {
scf_type DF
mp2_type DF
e_convergence 7
reference rhf
}

energy('mp2/aug-cc-pv[tq]z', bsse_type='cp')
--------------------------------------------------------------------------

    Molecular point group: c1
  Charge       = 0
  Multiplicity = 1
  Basis Set: AUG-CC-PVTZ
    Blend: AUG-CC-PVTZ
  Basis Set: (AUG-CC-PVTZ AUX)
    Blend: AUG-CC-PVTZ-JKFIT
  @DF-RHF Final Energy:  -230.78122953036103
    Total Energy =                       -230.7812295303610313
  Basis Set: (AUG-CC-PVTZ AUX)
    Blend: AUG-CC-PVTZ-RI
	 Reference Energy          =    -230.7812295303610313 [Eh]
	 Singles Energy            =      -0.0000000000000000 [Eh]
	 Same-Spin Energy          =      -0.2553783445837692 [Eh]
	 Opposite-Spin Energy      =      -0.8183285404864082 [Eh]
	 Correlation Energy        =      -1.0737068850701774 [Eh]
	 Total Energy              =    -231.8549364154312116 [Eh]
	 SCS Total Energy          =    -231.8483498938059881 [Eh]
    Molecular point group: c1
  Basis Set: AUG-CC-PVQZ
    Blend: AUG-CC-PVQZ
  Basis Set: (AUG-CC-PVQZ AUX)
    Blend: AUG-CC-PVQZ-JKFIT
  @DF-RHF Final Energy:  -230.79440358605498
    Total Energy =                       -230.7944035860550116
  Basis Set: (AUG-CC-PVQZ AUX)
  @DF-RHF Final Energy:  -230.78149338364599
    Total Energy =                       -230.7814933836459659
  @DF-RHF Final Energy:  -230.79446415547963
    Total Energy =                       -230.7944641554796021
  @DF-RHF Final Energy:  -230.78168912230058
    Total Energy =                       -230.7816891223005769
  @DF-RHF Final Energy:  -230.79449923068915
    Total Energy =                       -230.7944992306891550
  @DF-RHF Final Energy:  -230.78123448074922
    Total Energy =                       -230.7812344807492195
  @DF-RHF Final Energy:  -230.79440839813302
    Total Energy =                       -230.7944083981330436
  Multiplicity = 1
  @DF-RHF Final Energy:  -461.48514435871175
    Total Energy =                       -461.4851443587117501
	 Singles Energy            =      -0.0000000000000000 [Eh]
	 Same-Spin Energy          =      -0.5307988719806277 [Eh]
	 Opposite-Spin Energy      =      -1.6687939324473500 [Eh]
	 Correlation Energy        =      -2.1995928044279776 [Eh]
	 Total Energy              =    -463.6847371631397436 [Eh]
	 SCS Total Energy          =    -463.6646300349754597 [Eh]
    Molecular point group: c1

    Geometry (in Angstrom), charge = 0, multiplicity = 1:

       Center              X                  Y                   Z               Mass
    ------------   -----------------  -----------------  -----------------  -----------------
         C            0.798177989650     1.299430168191    -2.129919349863    12.000000000000
         H            1.372204989650     2.200551168191    -2.297487349863     1.007825032230
         C            1.444075989650     0.066963168191    -2.043870349863    12.000000000000
         H            2.519503989650     0.011705168191    -2.143340349863     1.007825032230
         C            0.704028989650    -1.094223831809    -1.827262349863    12.000000000000
         H            1.205322989650    -2.049687831809    -1.756430349863     1.007825032230
         C           -0.681997010350    -1.023324831809    -1.698757349863    12.000000000000
         H           -1.255537010350    -1.925083831809    -1.532448349863     1.007825032230
         C           -1.328045010350     0.209000168191    -1.783557349863    12.000000000000
         H           -2.403436010350     0.264817168191    -1.682649349863     1.007825032230
         C           -0.587908010350     1.370625168191    -1.998308349863    12.000000000000
         H           -1.088839010350     2.326916168191    -2.061551349863     1.007825032230
         C            0.102017989650     0.155950168191     0.558558650137    12.000000000000
         H            0.224143989650     0.381433168191    -0.491867349863     1.007825032230
         C           -0.989064010350    -0.598948831809     0.985895650137    12.000000000000
         H           -1.709568010350    -0.955462831809     0.262200650137     1.007825032230
         C           -1.149764010350    -0.893073831809     2.338845650137    12.000000000000
         H           -1.996871010350    -1.479042831809     2.669092650137     1.007825032230
         C           -0.217881010350    -0.432020831809     3.267339650137    12.000000000000
         H           -0.341774010350    -0.659986831809     4.317346650137     1.007825032230
         C            0.873703989650     0.323081168191     2.842099650137    12.000000000000
         H            1.596822989650     0.680914168191     3.562481650137     1.007825032230
         C            1.032507989650     0.616566168191     1.488607650137    12.000000000000
         H            1.879765989650     1.202641168191     1.158560650137     1.007825032230

  Charge       = 0
  Multiplicity = 1
  Basis Set: AUG-CC-PVQZ
    Blend: AUG-CC-PVQZ
  Basis Set: (AUG-CC-PVQZ AUX)
    Blend: AUG-CC-PVQZ-JKFIT

    Orbital Energies [Eh]
    ---------------------

    Doubly Occupied:

       1A    -11.241874     2A    -11.240925     3A    -11.240751
       4A    -11.239525     5A    -11.239378     6A    -11.238657
       7A    -11.222234     8A    -11.222053     9A    -11.217654
      10A    -11.214713    11A    -11.212646    12A    -11.202880
      13A     -1.172765    14A     -1.132684    15A     -1.029853
      16A     -1.025403    17A     -0.999179    18A     -0.997798
      19A     -0.835746    20A     -0.832897    21A     -0.813997
      22A     -0.809092    23A     -0.727527    24A     -0.701073
      25A     -0.652417    26A     -0.635445    27A     -0.626462
      28A     -0.605791    29A     -0.601880    30A     -0.598000
      31A     -0.590702    32A     -0.573566    33A     -0.504756
      34A     -0.503012    35A     -0.502564    36A     -0.489907
      37A     -0.479719    38A     -0.436197    39A     -0.365909
      40A     -0.346190    41A     -0.324040    42A     -0.303025

  @DF-RHF Final Energy:  -461.51094415005343

   => Energetics <=

    Nuclear Repulsion Energy =            640.3578010970896912
    One-Electron Energy =               -1893.8357104587407775
    Two-Electron Energy =                 791.9669652115977669
    Total Energy =                       -461.5109441500534331

  Dipole Moment: [D]
     X:     0.0280      Y:     0.0226      Z:    -0.8634     Total:     0.8641

  Basis Set: (AUG-CC-PVQZ AUX)
    Blend: AUG-CC-PVQZ-RI
	 Reference Energy          =    -461.5109441500534331 [Eh]
	 Singles Energy            =      -0.0000000000000000 [Eh]
	 Same-Spin Energy          =      -0.5594362928559662 [Eh]
	 Opposite-Spin Energy      =      -1.8618799744849621 [Eh]
	 Correlation Energy        =      -2.4213162673409281 [Eh]
	 Total Energy              =    -463.9322604173943887 [Eh]

	 ================> DF-SCS-MP2 Energies <==================
	-----------------------------------------------------------
	 SCS Same-Spin Scale       =       0.3333333333333333 [-]
	 SCS Opposite-Spin Scale   =       1.2000000000000000 [-]
	 SCS Same-Spin Energy      =      -0.1864787642853221 [Eh]
	 SCS Opposite-Spin Energy  =      -2.2342559693819544 [Eh]
	 SCS Correlation Energy    =      -2.4207347336672767 [Eh]
	 SCS Total Energy          =    -463.9316788837207355 [Eh]
	-----------------------------------------------------------

*** Psi4 exiting successfully. Buy a developer a beer!
