                               Psi4 1.4a2.dev224

  ==> Input File <==

--------------------------------------------------------------------------
#Generated by lconvert.py for cbs job

memory 40 GB

molecule  {
0 1
  N        1.3227630    -0.0103760     1.0191840
  C        0.6512860    -1.1489920     0.7968010
  H        1.2004180    -2.0655280     0.9736730
  C       -0.6726810    -1.1947120     0.3666570
  H       -1.1571940    -2.1473210     0.2064640
  C       -1.3471970     0.0031340     0.1521440
  H       -2.3753570     0.0084050    -0.1822930
  C       -0.6645580     1.1940910     0.3790020
  H       -1.1426260     2.1515580     0.2287210
  C        0.6588960     1.1349790     0.8088600
  H        1.2141030     2.0459100     0.9954380
--
0 1
  N        0.4558590     0.0014150     6.7615180
  C        1.3265270    -0.0041980     5.7421050
  H        2.3743840    -0.0029490     6.0164080
  C        0.9531410    -0.0112660     4.4002770
  H        1.7006020    -0.0154300     3.6191780
  C       -0.4029070    -0.0126800     4.0878620
  H       -0.7326360    -0.0181350     3.0575800
  C       -1.3210100    -0.0069650     5.1330310
  H       -2.3854600    -0.0078140     4.9442960
  C       -0.8454070    -0.0000470     6.4419900
  H       -1.5375900     0.0045360     7.2751810
units angstrom
no_reorient
symmetry c1
}

set {
scf_type DF
mp2_type DF
e_convergence 7
reference rhf
}

energy('mp2/aug-cc-pv[tq]z', bsse_type='cp')
--------------------------------------------------------------------------

    Molecular point group: c1
  Charge       = 0
  Multiplicity = 1
  Basis Set: AUG-CC-PVTZ
    Blend: AUG-CC-PVTZ
  Basis Set: (AUG-CC-PVTZ AUX)
    Blend: AUG-CC-PVTZ-JKFIT
  @DF-RHF Final Energy:  -246.77860728584449
    Total Energy =                       -246.7786072858444868
  Basis Set: (AUG-CC-PVTZ AUX)
    Blend: AUG-CC-PVTZ-RI
	 Reference Energy          =    -246.7786072858444868 [Eh]
	 Singles Energy            =      -0.0000000000000000 [Eh]
	 Same-Spin Energy          =      -0.2687968757363511 [Eh]
	 Opposite-Spin Energy      =      -0.8388514767565634 [Eh]
	 Correlation Energy        =      -1.1076483524929146 [Eh]
	 Total Energy              =    -247.8862556383373885 [Eh]
	 SCS Total Energy          =    -247.8748280165311542 [Eh]
    Molecular point group: c1
  Basis Set: AUG-CC-PVQZ
    Blend: AUG-CC-PVQZ
  Basis Set: (AUG-CC-PVQZ AUX)
    Blend: AUG-CC-PVQZ-JKFIT
  @DF-RHF Final Energy:  -246.79274616955473
    Total Energy =                       -246.7927461695547322
  Basis Set: (AUG-CC-PVQZ AUX)
  @DF-RHF Final Energy:  -246.77869243589470
    Total Energy =                       -246.7786924358946976
  @DF-RHF Final Energy:  -246.79276981731545
    Total Energy =                       -246.7927698173154454
  @DF-RHF Final Energy:  -246.77881666210942
    Total Energy =                       -246.7788166621094206
  @DF-RHF Final Energy:  -246.79282174655748
    Total Energy =                       -246.7928217465574789
  @DF-RHF Final Energy:  -246.77863369206329
    Total Energy =                       -246.7786336920632948
  @DF-RHF Final Energy:  -246.79277351095885
    Total Energy =                       -246.7927735109588525
  Multiplicity = 1
  @DF-RHF Final Energy:  -493.55590303115468
    Total Energy =                       -493.5559030311546849
	 Singles Energy            =      -0.0000000000000000 [Eh]
	 Same-Spin Energy          =      -0.5422137139673666 [Eh]
	 Opposite-Spin Energy      =      -1.6853623231949755 [Eh]
	 Correlation Energy        =      -2.2275760371623421 [Eh]
	 Total Energy              =    -495.7834790683170354 [Eh]
	 SCS Total Energy          =    -495.7590757236444574 [Eh]
    Molecular point group: c1

    Geometry (in Angstrom), charge = 0, multiplicity = 1:

       Center              X                  Y                   Z               Mass
    ------------   -----------------  -----------------  -----------------  -----------------
         N            1.309632888417    -0.005742478191    -1.991900423365    14.003074004430
         C            0.638155888417    -1.144358478191    -2.214283423365    12.000000000000
         H            1.187287888417    -2.060894478191    -2.037411423365     1.007825032230
         C           -0.685811111583    -1.190078478191    -2.644427423365    12.000000000000
         H           -1.170324111583    -2.142687478191    -2.804620423365     1.007825032230
         C           -1.360327111583     0.007767521809    -2.858940423365    12.000000000000
         H           -2.388487111583     0.013038521809    -3.193377423365     1.007825032230
         C           -0.677688111583     1.198724521809    -2.632082423365    12.000000000000
         H           -1.155756111583     2.156191521809    -2.782363423365     1.007825032230
         C            0.645765888417     1.139612521809    -2.202224423365    12.000000000000
         H            1.200972888417     2.050543521809    -2.015646423365     1.007825032230
         N            0.442728888417     0.006048521809     3.750433576635    14.003074004430
         C            1.313396888417     0.000435521809     2.731020576635    12.000000000000
         H            2.361253888417     0.001684521809     3.005323576635     1.007825032230
         C            0.940010888417    -0.006632478191     1.389192576635    12.000000000000
         H            1.687471888417    -0.010796478191     0.608093576635     1.007825032230
         C           -0.416037111583    -0.008046478191     1.076777576635    12.000000000000
         H           -0.745766111583    -0.013501478191     0.046495576635     1.007825032230
         C           -1.334140111583    -0.002331478191     2.121946576635    12.000000000000
         H           -2.398590111583    -0.003180478191     1.933211576635     1.007825032230
         C           -0.858537111583     0.004586521809     3.430905576635    12.000000000000
         H           -1.550720111583     0.009169521809     4.264096576635     1.007825032230

  Charge       = 0
  Multiplicity = 1
  Basis Set: AUG-CC-PVQZ
    Blend: AUG-CC-PVQZ
  Basis Set: (AUG-CC-PVQZ AUX)
    Blend: AUG-CC-PVQZ-JKFIT

    Orbital Energies [Eh]
    ---------------------

    Doubly Occupied:

       1A    -15.575520     2A    -15.556702     3A    -11.284656
       4A    -11.284618     5A    -11.269736     6A    -11.266102
       7A    -11.264778     8A    -11.251471     9A    -11.251410
      10A    -11.247882    11A    -11.232844    12A    -11.228233
      13A     -1.267730    14A     -1.247555    15A     -1.100441
      16A     -1.079670    17A     -1.044095    18A     -1.024021
      19A     -0.869715    20A     -0.866298    21A     -0.849641
      22A     -0.846541    23A     -0.732560    24A     -0.713454
      25A     -0.671058    26A     -0.664238    27A     -0.651340
      28A     -0.644684    29A     -0.608623    30A     -0.591326
      31A     -0.586333    32A     -0.575132    33A     -0.543277
      34A     -0.532772    35A     -0.530175    36A     -0.510002
      37A     -0.431153    38A     -0.412316    39A     -0.394987
      40A     -0.376974    41A     -0.357262    42A     -0.338802

  @DF-RHF Final Energy:  -493.58398897154200

   => Energetics <=

    Nuclear Repulsion Energy =            602.0793285077372730
    One-Electron Energy =               -1861.7743719413233521
    Two-Electron Energy =                 766.1110544620440805
    Total Energy =                       -493.5839889715419986

  Dipole Moment: [D]
     X:    -2.7514      Y:     0.0014      Z:    -3.5478     Total:     4.4897

  Basis Set: (AUG-CC-PVQZ AUX)
    Blend: AUG-CC-PVQZ-RI
	 Reference Energy          =    -493.5839889715419986 [Eh]
	 Singles Energy            =      -0.0000000000000000 [Eh]
	 Same-Spin Energy          =      -0.5727604598273890 [Eh]
	 Opposite-Spin Energy      =      -1.8903706402327376 [Eh]
	 Correlation Energy        =      -2.4631311000601266 [Eh]
	 Total Energy              =    -496.0471200716021372 [Eh]

	 ================> DF-SCS-MP2 Energies <==================
	-----------------------------------------------------------
	 SCS Same-Spin Scale       =       0.3333333333333333 [-]
	 SCS Opposite-Spin Scale   =       1.2000000000000000 [-]
	 SCS Same-Spin Energy      =      -0.1909201532757963 [Eh]
	 SCS Opposite-Spin Energy  =      -2.2684447682792852 [Eh]
	 SCS Correlation Energy    =      -2.4593649215550815 [Eh]
	 SCS Total Energy          =    -496.0433538930971054 [Eh]
	-----------------------------------------------------------

*** Psi4 exiting successfully. Buy a developer a beer!
