                               Psi4 1.4a2.dev224

  ==> Input File <==

--------------------------------------------------------------------------
#Generated by lconvert.py for cbs job

memory 40 GB

molecule  {
0 1
  N        1.3227630    -0.0103760     1.0191840
  C        0.6512860    -1.1489920     0.7968010
  H        1.2004180    -2.0655280     0.9736730
  C       -0.6726810    -1.1947120     0.3666570
  H       -1.1571940    -2.1473210     0.2064640
  C       -1.3471970     0.0031340     0.1521440
  H       -2.3753570     0.0084050    -0.1822930
  C       -0.6645580     1.1940910     0.3790020
  H       -1.1426260     2.1515580     0.2287210
  C        0.6588960     1.1349790     0.8088600
  H        1.2141030     2.0459100     0.9954380
--
0 1
  N        0.4150560     0.0006060     6.8996200
  C        1.2857240    -0.0050070     5.8802070
  H        2.3335800    -0.0037580     6.1545100
  C        0.9123380    -0.0120750     4.5383790
  H        1.6597990    -0.0162390     3.7572790
  C       -0.4437110    -0.0134890     4.2259630
  H       -0.7734390    -0.0189440     3.1956820
  C       -1.3618140    -0.0077740     5.2711330
  H       -2.4262640    -0.0086230     5.0823970
  C       -0.8862100    -0.0008560     6.5800920
  H       -1.5783940     0.0037270     7.4132830
units angstrom
no_reorient
symmetry c1
}

set {
scf_type DF
mp2_type DF
e_convergence 7
reference rhf
}

energy('mp2/aug-cc-pv[tq]z', bsse_type='cp')
--------------------------------------------------------------------------

    Molecular point group: c1
  Charge       = 0
  Multiplicity = 1
  Basis Set: AUG-CC-PVTZ
    Blend: AUG-CC-PVTZ
  Basis Set: (AUG-CC-PVTZ AUX)
    Blend: AUG-CC-PVTZ-JKFIT
  @DF-RHF Final Energy:  -246.77860723663846
    Total Energy =                       -246.7786072366384360
  Basis Set: (AUG-CC-PVTZ AUX)
    Blend: AUG-CC-PVTZ-RI
	 Reference Energy          =    -246.7786072366384644 [Eh]
	 Singles Energy            =      -0.0000000000000000 [Eh]
	 Same-Spin Energy          =      -0.2687968764567896 [Eh]
	 Opposite-Spin Energy      =      -0.8388515003808797 [Eh]
	 Correlation Energy        =      -1.1076483768376693 [Eh]
	 Total Energy              =    -247.8862556134761235 [Eh]
	 SCS Total Energy          =    -247.8748279959144440 [Eh]
    Molecular point group: c1
  Basis Set: AUG-CC-PVQZ
    Blend: AUG-CC-PVQZ
  Basis Set: (AUG-CC-PVQZ AUX)
    Blend: AUG-CC-PVQZ-JKFIT
  @DF-RHF Final Energy:  -246.79274611795614
    Total Energy =                       -246.7927461179561419
  Basis Set: (AUG-CC-PVQZ AUX)
  @DF-RHF Final Energy:  -246.77868055206713
    Total Energy =                       -246.7786805520671578
  @DF-RHF Final Energy:  -246.79276675436523
    Total Energy =                       -246.7927667543652319
  @DF-RHF Final Energy:  -246.77880010891735
    Total Energy =                       -246.7788001089173804
  @DF-RHF Final Energy:  -246.79281646094992
    Total Energy =                       -246.7928164609498936
  @DF-RHF Final Energy:  -246.77863369481847
    Total Energy =                       -246.7786336948184953
  @DF-RHF Final Energy:  -246.79277350725940
    Total Energy =                       -246.7927735072594260
  Multiplicity = 1
  @DF-RHF Final Energy:  -493.55715218299684
    Total Energy =                       -493.5571521829969015
	 Singles Energy            =      -0.0000000000000000 [Eh]
	 Same-Spin Energy          =      -0.5413759185411975 [Eh]
	 Opposite-Spin Energy      =      -1.6841120758256427 [Eh]
	 Correlation Energy        =      -2.2254879943668402 [Eh]
	 Total Energy              =    -495.7826401773637031 [Eh]
	 SCS Total Energy          =    -495.7585453135013722 [Eh]
    Molecular point group: c1

    Geometry (in Angstrom), charge = 0, multiplicity = 1:

       Center              X                  Y                   Z               Mass
    ------------   -----------------  -----------------  -----------------  -----------------
         N            1.330034559360    -0.005337978191    -2.060951334705    14.003074004430
         C            0.658557559360    -1.143953978191    -2.283334334705    12.000000000000
         H            1.207689559360    -2.060489978191    -2.106462334705     1.007825032230
         C           -0.665409440640    -1.189673978191    -2.713478334705    12.000000000000
         H           -1.149922440640    -2.142282978191    -2.873671334705     1.007825032230
         C           -1.339925440640     0.008172021809    -2.927991334705    12.000000000000
         H           -2.368085440640     0.013443021809    -3.262428334705     1.007825032230
         C           -0.657286440640     1.199129021809    -2.701133334705    12.000000000000
         H           -1.135354440640     2.156596021809    -2.851414334705     1.007825032230
         C            0.666167559360     1.140017021809    -2.271275334705    12.000000000000
         H            1.221374559360     2.050948021809    -2.084697334705     1.007825032230
         N            0.422327559360     0.005644021809     3.819484665295    14.003074004430
         C            1.292995559360     0.000031021809     2.800071665295    12.000000000000
         H            2.340851559360     0.001280021809     3.074374665295     1.007825032230
         C            0.919609559360    -0.007036978191     1.458243665295    12.000000000000
         H            1.667070559360    -0.011200978191     0.677143665295     1.007825032230
         C           -0.436439440640    -0.008450978191     1.145827665295    12.000000000000
         H           -0.766167440640    -0.013905978191     0.115546665295     1.007825032230
         C           -1.354542440640    -0.002735978191     2.190997665295    12.000000000000
         H           -2.418992440640    -0.003584978191     2.002261665295     1.007825032230
         C           -0.878938440640     0.004182021809     3.499956665295    12.000000000000
         H           -1.571122440640     0.008765021809     4.333147665295     1.007825032230

  Charge       = 0
  Multiplicity = 1
  Basis Set: AUG-CC-PVQZ
    Blend: AUG-CC-PVQZ
  Basis Set: (AUG-CC-PVQZ AUX)
    Blend: AUG-CC-PVQZ-JKFIT

    Orbital Energies [Eh]
    ---------------------

    Doubly Occupied:

       1A    -15.575154     2A    -15.557498     3A    -11.284148
       4A    -11.284112     5A    -11.269264     6A    -11.266835
       7A    -11.265659     8A    -11.250975     9A    -11.250915
      10A    -11.249110    11A    -11.233636    12A    -11.229686
      13A     -1.266959    14A     -1.248353    15A     -1.099795
      16A     -1.080558    17A     -1.043498    18A     -1.024871
      19A     -0.869150    20A     -0.865734    21A     -0.850417
      22A     -0.847358    23A     -0.731948    24A     -0.713913
      25A     -0.670514    26A     -0.663747    27A     -0.652131
      28A     -0.645438    29A     -0.608089    30A     -0.591128
      31A     -0.586440    32A     -0.573665    33A     -0.545709
      34A     -0.533521    35A     -0.529693    36A     -0.510873
      37A     -0.430497    38A     -0.412867    39A     -0.394631
      40A     -0.376993    41A     -0.357308    42A     -0.339665

  @DF-RHF Final Energy:  -493.58525541228585

   => Energetics <=

    Nuclear Repulsion Energy =            596.9695480646907981
    One-Electron Energy =               -1851.5446897589667969
    Two-Electron Energy =                 760.9898862819901524
    Total Energy =                       -493.5852554122858464

  Dipole Moment: [D]
     X:    -2.7635      Y:     0.0014      Z:    -3.4944     Total:     4.4551

  Basis Set: (AUG-CC-PVQZ AUX)
    Blend: AUG-CC-PVQZ-RI
	 Reference Energy          =    -493.5852554122858464 [Eh]
	 Singles Energy            =      -0.0000000000000000 [Eh]
	 Same-Spin Energy          =      -0.5719410116224858 [Eh]
	 Opposite-Spin Energy      =      -1.8893580563291368 [Eh]
	 Correlation Energy        =      -2.4612990679516225 [Eh]
	 Total Energy              =    -496.0465544802374893 [Eh]

	 ================> DF-SCS-MP2 Energies <==================
	-----------------------------------------------------------
	 SCS Same-Spin Scale       =       0.3333333333333333 [-]
	 SCS Opposite-Spin Scale   =       1.2000000000000000 [-]
	 SCS Same-Spin Energy      =      -0.1906470038741619 [Eh]
	 SCS Opposite-Spin Energy  =      -2.2672296675949641 [Eh]
	 SCS Correlation Energy    =      -2.4578766714691263 [Eh]
	 SCS Total Energy          =    -496.0431320837549833 [Eh]
	-----------------------------------------------------------

*** Psi4 exiting successfully. Buy a developer a beer!
