                               Psi4 1.4a2.dev224

  ==> Input File <==

--------------------------------------------------------------------------
#Generated by lconvert.py for cbs job

memory 20 GB

molecule  {
0 1
  N       1.322760   -0.010380    1.019180
  C       0.651290   -1.148990    0.796800
  H       1.200420   -2.065530    0.973670
  C      -0.672680   -1.194710    0.366660
  H      -1.157190   -2.147320    0.206460
  C      -1.347200    0.003130    0.152140
  H      -2.375360    0.008400   -0.182290
  C      -0.664560    1.194090    0.379000
  H      -1.142630    2.151560    0.228720
  C       0.658900    1.134980    0.808860
  H       1.214100    2.045910    0.995440
--
0 1
  N       0.195000   -0.003760    7.644410
  C       1.065670   -0.009370    6.625000
  H       2.113520   -0.008120    6.899300
  C       0.692280   -0.016440    5.283170
  H       1.439740   -0.020600    4.502070
  C      -0.663770   -0.017850    4.970760
  H      -0.993500   -0.023310    3.940480
  C      -1.581870   -0.012140    6.015930
  H      -2.646320   -0.012990    5.827190
  C      -1.106270   -0.005220    7.324890
  H      -1.798450   -0.000640    8.158080
units angstrom
no_reorient
symmetry c1
}

set {
scf_type DF
mp2_type DF
e_convergence 7
reference rhf
}

energy('mp2/aug-cc-pv[tq]z', bsse_type='cp')
--------------------------------------------------------------------------

    Molecular point group: c1
  Charge       = 0
  Multiplicity = 1
  Basis Set: AUG-CC-PVTZ
    Blend: AUG-CC-PVTZ
  Basis Set: (AUG-CC-PVTZ AUX)
    Blend: AUG-CC-PVTZ-JKFIT
  @DF-RHF Final Energy:  -246.77860735001690
    Total Energy =                       -246.7786073500168982
  Basis Set: (AUG-CC-PVTZ AUX)
    Blend: AUG-CC-PVTZ-RI
	 Reference Energy          =    -246.7786073500168982 [Eh]
	 Singles Energy            =      -0.0000000000000000 [Eh]
	 Same-Spin Energy          =      -0.2687968710305635 [Eh]
	 Opposite-Spin Energy      =      -0.8388514528381226 [Eh]
	 Correlation Energy        =      -1.1076483238686861 [Eh]
	 Total Energy              =    -247.8862556738855858 [Eh]
	 SCS Total Energy          =    -247.8748280504328250 [Eh]
    Molecular point group: c1
  Basis Set: AUG-CC-PVQZ
    Blend: AUG-CC-PVQZ
  Basis Set: (AUG-CC-PVQZ AUX)
    Blend: AUG-CC-PVQZ-JKFIT
  @DF-RHF Final Energy:  -246.79274624190404
    Total Energy =                       -246.7927462419040694
  Basis Set: (AUG-CC-PVQZ AUX)
  @DF-RHF Final Energy:  -246.77864346646319
    Total Energy =                       -246.7786434664632225
  @DF-RHF Final Energy:  -246.79275765784530
    Total Energy =                       -246.7927576578452999
  @DF-RHF Final Energy:  -246.77872863030740
    Total Energy =                       -246.7787286303073984
  @DF-RHF Final Energy:  -246.79279647624739
    Total Energy =                       -246.7927964762474176
  @DF-RHF Final Energy:  -246.77863389712107
    Total Energy =                       -246.7786338971210967
  @DF-RHF Final Energy:  -246.79277372427273
    Total Energy =                       -246.7927737242727630
  Multiplicity = 1
  @DF-RHF Final Energy:  -493.55846560597377
    Total Energy =                       -493.5584656059737654
	 Singles Energy            =      -0.0000000000000000 [Eh]
	 Same-Spin Energy          =      -0.5389674434892175 [Eh]
	 Opposite-Spin Energy      =      -1.6803265111184111 [Eh]
	 Correlation Energy        =      -2.2192939546076289 [Eh]
	 Total Energy              =    -495.7777595605813872 [Eh]
	 SCS Total Energy          =    -495.7545132338122471 [Eh]
    Molecular point group: c1

    Geometry (in Angstrom), charge = 0, multiplicity = 1:

       Center              X                  Y                   Z               Mass
    ------------   -----------------  -----------------  -----------------  -----------------
         N            1.440060154830    -0.003159477995    -2.433351752384    14.003074004430
         C            0.768590154830    -1.141769477995    -2.655731752384    12.000000000000
         H            1.317720154830    -2.058309477995    -2.478861752384     1.007825032230
         C           -0.555379845170    -1.187489477995    -3.085871752384    12.000000000000
         H           -1.039889845170    -2.140099477995    -3.246071752384     1.007825032230
         C           -1.229899845170     0.010350522005    -3.300391752384    12.000000000000
         H           -2.258059845170     0.015620522005    -3.634821752384     1.007825032230
         C           -0.547259845170     1.201310522005    -3.073531752384    12.000000000000
         H           -1.025329845170     2.158780522005    -3.223811752384     1.007825032230
         C            0.776200154830     1.142200522005    -2.643671752384    12.000000000000
         H            1.331400154830     2.053130522005    -2.457091752384     1.007825032230
         N            0.312300154830     0.003460522005     4.191878247616    14.003074004430
         C            1.182970154830    -0.002149477995     3.172468247616    12.000000000000
         H            2.230820154830    -0.000899477995     3.446768247616     1.007825032230
         C            0.809580154830    -0.009219477995     1.830638247616    12.000000000000
         H            1.557040154830    -0.013379477995     1.049538247616     1.007825032230
         C           -0.546469845170    -0.010629477995     1.518228247616    12.000000000000
         H           -0.876199845170    -0.016089477995     0.487948247616     1.007825032230
         C           -1.464569845170    -0.004919477995     2.563398247616    12.000000000000
         H           -2.529019845170    -0.005769477995     2.374658247616     1.007825032230
         C           -0.988969845170     0.002000522005     3.872358247616    12.000000000000
         H           -1.681149845170     0.006580522005     4.705548247616     1.007825032230

  Charge       = 0
  Multiplicity = 1
  Basis Set: AUG-CC-PVQZ
    Blend: AUG-CC-PVQZ
  Basis Set: (AUG-CC-PVQZ AUX)
    Blend: AUG-CC-PVQZ-JKFIT

    Orbital Energies [Eh]
    ---------------------

    Doubly Occupied:

       1A    -15.572929     2A    -15.560370     3A    -11.281793
       4A    -11.281765     5A    -11.269580     6A    -11.268898
       7A    -11.266994     8A    -11.253299     9A    -11.248737
      10A    -11.248680    11A    -11.236508    12A    -11.234541
      13A     -1.263986    14A     -1.251272    15A     -1.097154
      16A     -1.083944    17A     -1.041002    18A     -1.028022
      19A     -0.866770    20A     -0.863305    21A     -0.853577
      22A     -0.850510    23A     -0.729496    24A     -0.716524
      25A     -0.668105    26A     -0.661635    27A     -0.655269
      28A     -0.648664    29A     -0.605815    30A     -0.592971
      31A     -0.584890    32A     -0.571862    33A     -0.548918
      34A     -0.536375    35A     -0.527521    36A     -0.514221
      37A     -0.427639    38A     -0.415390    39A     -0.392151
      40A     -0.378894    41A     -0.355663    42A     -0.342802

  @DF-RHF Final Energy:  -493.58664138181712

   => Energetics <=

    Nuclear Repulsion Energy =            573.3928064042701180
    One-Electron Energy =               -1804.3619931435116541
    Two-Electron Energy =                 737.3825453574245330
    Total Energy =                       -493.5866413818171168

  Dipole Moment: [D]
     X:    -2.8105      Y:     0.0011      Z:    -3.2833     Total:     4.3219

  Basis Set: (AUG-CC-PVQZ AUX)
    Blend: AUG-CC-PVQZ-RI
	 Reference Energy          =    -493.5866413818171168 [Eh]
	 Singles Energy            =      -0.0000000000000000 [Eh]
	 Same-Spin Energy          =      -0.5696108442672572 [Eh]
	 Opposite-Spin Energy      =      -1.8864727506366503 [Eh]
	 Correlation Energy        =      -2.4560835949039075 [Eh]
	 Total Energy              =    -496.0427249767210469 [Eh]

	 ================> DF-SCS-MP2 Energies <==================
	-----------------------------------------------------------
	 SCS Same-Spin Scale       =       0.3333333333333333 [-]
	 SCS Opposite-Spin Scale   =       1.2000000000000000 [-]
	 SCS Same-Spin Energy      =      -0.1898702814224190 [Eh]
	 SCS Opposite-Spin Energy  =      -2.2637673007639805 [Eh]
	 SCS Correlation Energy    =      -2.4536375821863996 [Eh]
	 SCS Total Energy          =    -496.0402789640035053 [Eh]
	-----------------------------------------------------------

*** Psi4 exiting successfully. Buy a developer a beer!
