                               Psi4 1.4a2.dev224

  ==> Input File <==

--------------------------------------------------------------------------
#Generated by lconvert.py for cbs job

memory 40 GB

molecule  {
0 1
  N        1.3227630    -0.0103760     1.0191840
  C        0.6512860    -1.1489920     0.7968010
  H        1.2004180    -2.0655280     0.9736730
  C       -0.6726810    -1.1947120     0.3666570
  H       -1.1571940    -2.1473210     0.2064640
  C       -1.3471970     0.0031340     0.1521440
  H       -2.3753570     0.0084050    -0.1822930
  C       -0.6645580     1.1940910     0.3790020
  H       -1.1426260     2.1515580     0.2287210
  C        0.6588960     1.1349790     0.8088600
  H        1.2141030     2.0459100     0.9954380
--
0 1
  N        0.7142050     0.0065380     5.8871330
  C        1.5848730     0.0009250     4.8677200
  H        2.6327290     0.0021730     5.1420220
  C        1.2114870    -0.0061430     3.5258910
  H        1.9589480    -0.0103070     2.7447920
  C       -0.1445620    -0.0075570     3.2134760
  H       -0.4742900    -0.0130130     2.1831950
  C       -1.0626650    -0.0018420     4.2586460
  H       -2.1271150    -0.0026910     4.0699100
  C       -0.5870610     0.0050760     5.5676040
  H       -1.2792450     0.0096590     6.4007960
units angstrom
no_reorient
symmetry c1
}

set {
scf_type DF
mp2_type DF
e_convergence 7
reference rhf
}

energy('mp2/aug-cc-pv[tq]z', bsse_type='cp')
--------------------------------------------------------------------------

    Molecular point group: c1
  Charge       = 0
  Multiplicity = 1
  Basis Set: AUG-CC-PVTZ
    Blend: AUG-CC-PVTZ
  Basis Set: (AUG-CC-PVTZ AUX)
    Blend: AUG-CC-PVTZ-JKFIT
  @DF-RHF Final Energy:  -246.77860723229981
    Total Energy =                       -246.7786072322998052
  Basis Set: (AUG-CC-PVTZ AUX)
    Blend: AUG-CC-PVTZ-RI
	 Reference Energy          =    -246.7786072322998052 [Eh]
	 Singles Energy            =      -0.0000000000000000 [Eh]
	 Same-Spin Energy          =      -0.2687968759914800 [Eh]
	 Opposite-Spin Energy      =      -0.8388515018126639 [Eh]
	 Correlation Energy        =      -1.1076483778041439 [Eh]
	 Total Energy              =    -247.8862556101039445 [Eh]
	 SCS Total Energy          =    -247.8748279931388367 [Eh]
    Molecular point group: c1
  Basis Set: AUG-CC-PVQZ
    Blend: AUG-CC-PVQZ
  Basis Set: (AUG-CC-PVQZ AUX)
    Blend: AUG-CC-PVQZ-JKFIT
  @DF-RHF Final Energy:  -246.79274611548760
    Total Energy =                       -246.7927461154876028
  Basis Set: (AUG-CC-PVQZ AUX)
  @DF-RHF Final Energy:  -246.77884398542099
    Total Energy =                       -246.7788439854209628
  @DF-RHF Final Energy:  -246.79279665699875
    Total Energy =                       -246.7927966569987461
  @DF-RHF Final Energy:  -246.77900955728484
    Total Energy =                       -246.7790095572848372
  @DF-RHF Final Energy:  -246.79286273554010
    Total Energy =                       -246.7928627355400977
  @DF-RHF Final Energy:  -246.77863369479897
    Total Energy =                       -246.7786336947989412
  @DF-RHF Final Energy:  -246.79277351116303
    Total Energy =                       -246.7927735111630341
  Multiplicity = 1
  @DF-RHF Final Energy:  -493.49785695772403
    Total Energy =                       -493.4978569577240251
	 Singles Energy            =      -0.0000000000000000 [Eh]
	 Same-Spin Energy          =      -0.5548198075339528 [Eh]
	 Opposite-Spin Energy      =      -1.7035110120767820 [Eh]
	 Correlation Energy        =      -2.2583308196107348 [Eh]
	 Total Energy              =    -495.7561877773347874 [Eh]
	 SCS Total Energy          =    -495.7270101080608242 [Eh]
    Molecular point group: c1

    Geometry (in Angstrom), charge = 0, multiplicity = 1:

       Center              X                  Y                   Z               Mass
    ------------   -----------------  -----------------  -----------------  -----------------
         N            1.180460059360    -0.008303965441    -1.554707676512    14.003074004430
         C            0.508983059360    -1.146919965441    -1.777090676512    12.000000000000
         H            1.058115059360    -2.063455965441    -1.600218676512     1.007825032230
         C           -0.814983940640    -1.192639965441    -2.207234676512    12.000000000000
         H           -1.299496940640    -2.145248965441    -2.367427676512     1.007825032230
         C           -1.489499940640     0.005206034559    -2.421747676512    12.000000000000
         H           -2.517659940640     0.010477034559    -2.756184676512     1.007825032230
         C           -0.806860940640     1.196163034559    -2.194889676512    12.000000000000
         H           -1.284928940640     2.153630034559    -2.345170676512     1.007825032230
         C            0.516593059360     1.137051034559    -1.765031676512    12.000000000000
         H            1.071800059360     2.047982034559    -1.578453676512     1.007825032230
         N            0.571902059360     0.008610034559     3.313241323488    14.003074004430
         C            1.442570059360     0.002997034559     2.293828323488    12.000000000000
         H            2.490426059360     0.004245034559     2.568130323488     1.007825032230
         C            1.069184059360    -0.004070965441     0.951999323488    12.000000000000
         H            1.816645059360    -0.008234965441     0.170900323488     1.007825032230
         C           -0.286864940640    -0.005484965441     0.639584323488    12.000000000000
         H           -0.616592940640    -0.010940965441    -0.390696676512     1.007825032230
         C           -1.204967940640     0.000230034559     1.684754323488    12.000000000000
         H           -2.269417940640    -0.000618965441     1.496018323488     1.007825032230
         C           -0.729363940640     0.007148034559     2.993712323488    12.000000000000
         H           -1.421547940640     0.011731034559     3.826904323488     1.007825032230

  Charge       = 0
  Multiplicity = 1
  Basis Set: AUG-CC-PVQZ
    Blend: AUG-CC-PVQZ
  Basis Set: (AUG-CC-PVQZ AUX)
    Blend: AUG-CC-PVQZ-JKFIT

    Orbital Energies [Eh]
    ---------------------

    Doubly Occupied:

       1A    -15.575281     2A    -15.547548     3A    -11.288442
       4A    -11.288392     5A    -11.272265     6A    -11.258874
       7A    -11.255587     8A    -11.255504     9A    -11.255429
      10A    -11.232174    11A    -11.223500    12A    -11.209316
      13A     -1.280758    14A     -1.238818    15A     -1.108419
      16A     -1.071337    17A     -1.050725    18A     -1.015320
      19A     -0.876390    20A     -0.872037    21A     -0.845618
      22A     -0.839409    23A     -0.742035    24A     -0.716635
      25A     -0.676083    26A     -0.669733    27A     -0.646981
      28A     -0.641826    29A     -0.614340    30A     -0.598133
      31A     -0.596580    32A     -0.573248    33A     -0.534663
      34A     -0.525507    35A     -0.505388    36A     -0.498228
      37A     -0.432520    38A     -0.412018    39A     -0.390097
      40A     -0.386036    41A     -0.345325    42A     -0.329307

  @DF-RHF Final Energy:  -493.52570106795361

   => Energetics <=

    Nuclear Repulsion Energy =            641.7355754734654738
    One-Electron Energy =               -1941.1308860731851382
    Two-Electron Energy =                 805.8696095317661729
    Total Energy =                       -493.5257010679536052

  Dipole Moment: [D]
     X:    -2.6182      Y:    -0.0010      Z:    -4.0247     Total:     4.8014

  Basis Set: (AUG-CC-PVQZ AUX)
    Blend: AUG-CC-PVQZ-RI
	 Reference Energy          =    -493.5257010679536052 [Eh]
	 Singles Energy            =      -0.0000000000000000 [Eh]
	 Same-Spin Energy          =      -0.5852655440811363 [Eh]
	 Opposite-Spin Energy      =      -1.9060429515787320 [Eh]
	 Correlation Energy        =      -2.4913084956598683 [Eh]
	 Total Energy              =    -496.0170095636134988 [Eh]

	 ================> DF-SCS-MP2 Energies <==================
	-----------------------------------------------------------
	 SCS Same-Spin Scale       =       0.3333333333333333 [-]
	 SCS Opposite-Spin Scale   =       1.2000000000000000 [-]
	 SCS Same-Spin Energy      =      -0.1950885146937121 [Eh]
	 SCS Opposite-Spin Energy  =      -2.2872515418944785 [Eh]
	 SCS Correlation Energy    =      -2.4823400565881908 [Eh]
	 SCS Total Energy          =    -496.0080411245418190 [Eh]
	-----------------------------------------------------------

*** Psi4 exiting successfully. Buy a developer a beer!
