                               Psi4 1.4a2.dev224

  ==> Input File <==

--------------------------------------------------------------------------
#Generated by lconvert.py for cbs job

memory 40 GB

molecule  {
0 1
  N        1.3227630    -0.0103760     1.0191840
  C        0.6512860    -1.1489920     0.7968010
  H        1.2004180    -2.0655280     0.9736730
  C       -0.6726810    -1.1947120     0.3666570
  H       -1.1571940    -2.1473210     0.2064640
  C       -1.3471970     0.0031340     0.1521440
  H       -2.3753570     0.0084050    -0.1822930
  C       -0.6645580     1.1940910     0.3790020
  H       -1.1426260     2.1515580     0.2287210
  C        0.6588960     1.1349790     0.8088600
  H        1.2141030     2.0459100     0.9954380
--
0 1
  N        0.7142050     0.0065380     5.8871330
  C        1.5848730     0.0009250     4.8677200
  H        2.6327290     0.0021730     5.1420220
  C        1.2114870    -0.0061430     3.5258910
  H        1.9589480    -0.0103070     2.7447920
  C       -0.1445620    -0.0075570     3.2134760
  H       -0.4742900    -0.0130130     2.1831950
  C       -1.0626650    -0.0018420     4.2586460
  H       -2.1271150    -0.0026910     4.0699100
  C       -0.5870610     0.0050760     5.5676040
  H       -1.2792450     0.0096590     6.4007960
units angstrom
no_reorient
symmetry c1
}

set {
scf_type DF
mp2_type DF
e_convergence 7
reference rhf
}

energy('mp2/aug-cc-pv[tq]z', bsse_type='cp')
--------------------------------------------------------------------------

    Molecular point group: c1
  Charge       = 0
  Multiplicity = 1
  Basis Set: AUG-CC-PVTZ
    Blend: AUG-CC-PVTZ
  Basis Set: (AUG-CC-PVTZ AUX)
    Blend: AUG-CC-PVTZ-JKFIT
  @DF-RHF Final Energy:  -246.77860723229981
    Total Energy =                       -246.7786072322998052
  Basis Set: (AUG-CC-PVTZ AUX)
    Blend: AUG-CC-PVTZ-RI
	 Reference Energy          =    -246.7786072322998052 [Eh]
	 Singles Energy            =      -0.0000000000000000 [Eh]
	 Same-Spin Energy          =      -0.2687968759914800 [Eh]
	 Opposite-Spin Energy      =      -0.8388515018126639 [Eh]
	 Correlation Energy        =      -1.1076483778041439 [Eh]
	 Total Energy              =    -247.8862556101039445 [Eh]
	 SCS Total Energy          =    -247.8748279931388367 [Eh]
    Molecular point group: c1
  Basis Set: AUG-CC-PVQZ
    Blend: AUG-CC-PVQZ
  Basis Set: (AUG-CC-PVQZ AUX)
    Blend: AUG-CC-PVQZ-JKFIT
  @DF-RHF Final Energy:  -246.79274611548760
    Total Energy =                       -246.7927461154876028
  Basis Set: (AUG-CC-PVQZ AUX)
  @DF-RHF Final Energy:  -246.77884398542099
    Total Energy =                       -246.7788439854209628
  @DF-RHF Final Energy:  -246.79279665699875
    Total Energy =                       -246.7927966569987461
  @DF-RHF Final Energy:  -246.77900955728484
    Total Energy =                       -246.7790095572848372
  @DF-RHF Final Energy:  -246.79286273554010
    Total Energy =                       -246.7928627355400977
  @DF-RHF Final Energy:  -246.77863369479897
    Total Energy =                       -246.7786336947989412
  @DF-RHF Final Energy:  -246.79277351116303
    Total Energy =                       -246.7927735111630341
  @DF-RHF Final Energy:  -493.49785695772403
    Total Energy =                       -493.4978569577240251
  @DF-RHF Final Energy:  -493.52570106795361
    Total Energy =                       -493.5257010679536052
*** Psi4 exiting successfully. Buy a developer a beer!
                               Psi4 1.4a2.dev224
  @DF-RHF Final Energy:  -246.77860725579069
    Total Energy =                       -246.7786072557906891
  @DF-RHF Final Energy:  -246.79274613773293
    Total Energy =                       -246.7927461377329337
  @DF-RHF Final Energy:  -246.77877310733729
    Total Energy =                       -246.7787731073373152
  @DF-RHF Final Energy:  -246.79278683855210
    Total Energy =                       -246.7927868385521037
  @DF-RHF Final Energy:  -246.77893228417150
    Total Energy =                       -246.7789322841715034
  @DF-RHF Final Energy:  -246.79284788797710
    Total Energy =                       -246.7928478879770751
  @DF-RHF Final Energy:  -246.77863369299186
    Total Energy =                       -246.7786336929918889
  @DF-RHF Final Energy:  -246.79277350912696
    Total Energy =                       -246.7927735091269597
  @DF-RHF Final Energy:  -493.53573115781501
    Total Energy =                       -493.5357311578150075
  @DF-RHF Final Energy:  -493.56368119096288
    Total Energy =                       -493.5636811909628250
*** Psi4 exiting successfully. Buy a developer a beer!
                               Psi4 1.4a2.dev224
                               Psi4 1.4a2.dev224
                               Psi4 1.4a2.dev224
                               Psi4 1.4a2.dev224
                               Psi4 1.4a2.dev224
                               Psi4 1.4a2.dev224
                               Psi4 1.4a2.dev224
  @DF-RHF Final Energy:  -246.77860756112753
    Total Energy =                       -246.7786075611275010
  @DF-RHF Final Energy:  -246.79274645695205
    Total Energy =                       -246.7927464569520453
  @DF-RHF Final Energy:  -246.77862501916655
    Total Energy =                       -246.7786250191665545
  @DF-RHF Final Energy:  -246.79275260169453
    Total Energy =                       -246.7927526016945308
  @DF-RHF Final Energy:  -246.77867727114023
    Total Energy =                       -246.7786772711402250
  @DF-RHF Final Energy:  -246.79278575188786
    Total Energy =                       -246.7927857518878909
  @DF-RHF Final Energy:  -246.77863389699468
    Total Energy =                       -246.7786338969946769
  @DF-RHF Final Energy:  -246.79277372477623
    Total Energy =                       -246.7927737247762252
  @DF-RHF Final Energy:  -493.55796113318218
    Total Energy =                       -493.5579611331821752
  @DF-RHF Final Energy:  -493.58619310879521
    Total Energy =                       -493.5861931087952144
*** Psi4 exiting successfully. Buy a developer a beer!
                               Psi4 1.4a2.dev224
  @DF-RHF Final Energy:  -246.77860743410938
    Total Energy =                       -246.7786074341094036
  @DF-RHF Final Energy:  -246.79274632464663
    Total Energy =                       -246.7927463246466573
  @DF-RHF Final Energy:  -246.77861567370371
    Total Energy =                       -246.7786156737037118
  @DF-RHF Final Energy:  -246.79274959618900
    Total Energy =                       -246.7927495961889690
  @DF-RHF Final Energy:  -246.77865558799834
    Total Energy =                       -246.7786555879983439
  @DF-RHF Final Energy:  -246.79278058275176
    Total Energy =                       -246.7927805827517318
  @DF-RHF Final Energy:  -246.77863390035927
    Total Energy =                       -246.7786339003592957
  @DF-RHF Final Energy:  -246.79277372476187
    Total Energy =                       -246.7927737247618438
  Multiplicity = 1
  @DF-RHF Final Energy:  -493.55764015106473
    Total Energy =                       -493.5576401510647884
	 Singles Energy            =      -0.0000000000000000 [Eh]
	 Same-Spin Energy          =      -0.5377805815196390 [Eh]
	 Opposite-Spin Energy      =      -1.6780966086246929 [Eh]
	 Correlation Energy        =      -2.2158771901443322 [Eh]
	 Total Energy              =    -495.7735173412090717 [Eh]
	 SCS Total Energy          =    -495.7506162752542309 [Eh]
    Molecular point group: c1

    Geometry (in Angstrom), charge = 0, multiplicity = 1:

       Center              X                  Y                   Z               Mass
    ------------   -----------------  -----------------  -----------------  -----------------
         N            1.709531799715     0.002186408598    -3.345389411367    14.003074004430
         C            1.038061799715    -1.136423591402    -3.567769411367    12.000000000000
         H            1.587191799715    -2.052963591402    -3.390899411367     1.007825032230
         C           -0.285908200285    -1.182143591402    -3.997909411367    12.000000000000
         H           -0.770418200285    -2.134753591402    -4.158109411367     1.007825032230
         C           -0.960428200285     0.015696408598    -4.212429411367    12.000000000000
         H           -1.988588200285     0.020966408598    -4.546859411367     1.007825032230
         C           -0.277788200285     1.206656408598    -3.985569411367    12.000000000000
         H           -0.755858200285     2.164126408598    -4.135849411367     1.007825032230
         C            1.045671799715     1.147546408598    -3.555709411367    12.000000000000
         H            1.600871799715     2.058476408598    -3.369129411367     1.007825032230
         N            0.042821799715    -0.001883591402     5.103920588633    14.003074004430
         C            0.913491799715    -0.007493591402     4.084510588633    12.000000000000
         H            1.961351799715    -0.006253591402     4.358810588633     1.007825032230
         C            0.540111799715    -0.014563591402     2.742680588633    12.000000000000
         H            1.287571799715    -0.018733591402     1.961580588633     1.007825032230
         C           -0.815938200285    -0.015983591402     2.430260588633    12.000000000000
         H           -1.145668200285    -0.021433591402     1.399980588633     1.007825032230
         C           -1.734038200285    -0.010263591402     3.475430588633    12.000000000000
         H           -2.798488200285    -0.011113591402     3.286700588633     1.007825032230
         C           -1.258438200285    -0.003343591402     4.784390588633    12.000000000000
         H           -1.950618200285     0.001236408598     5.617590588633     1.007825032230

  Charge       = 0
  Multiplicity = 1
  Basis Set: AUG-CC-PVQZ
    Blend: AUG-CC-PVQZ
  Basis Set: (AUG-CC-PVQZ AUX)
    Blend: AUG-CC-PVQZ-JKFIT

    Orbital Energies [Eh]
    ---------------------

    Doubly Occupied:

       1A    -15.569419     2A    -15.563218     3A    -11.278536
       4A    -11.278512     5A    -11.272379     6A    -11.272149
       7A    -11.263783     8A    -11.257145     9A    -11.245595
      10A    -11.245540    11A    -11.239371    12A    -11.238789
      13A     -1.260362    14A     -1.254206    15A     -1.093784
      16A     -1.087388    17A     -1.037724    18A     -1.031184
      19A     -0.863594    20A     -0.860045    21A     -0.856938
      22A     -0.853749    23A     -0.726323    24A     -0.719821
      25A     -0.664824    26A     -0.658703    27A     -0.658537
      28A     -0.652163    29A     -0.602743    30A     -0.596197
      31A     -0.581677    32A     -0.575003    33A     -0.545679
      34A     -0.539320    35A     -0.524484    36A     -0.517583
      37A     -0.424082    38A     -0.418256    39A     -0.388495
      40A     -0.382034    41A     -0.352343    42A     -0.345894

  @DF-RHF Final Energy:  -493.58589716134918

   => Energetics <=

    Nuclear Repulsion Energy =            534.5845200715780265
    One-Electron Energy =               -1726.7456801268820072
    Two-Electron Energy =                 698.5752628939548003
    Total Energy =                       -493.5858971613491804

  Dipole Moment: [D]
     X:    -2.8682      Y:     0.0003      Z:    -3.0638     Total:     4.1968

  Basis Set: (AUG-CC-PVQZ AUX)
    Blend: AUG-CC-PVQZ-RI
	 Reference Energy          =    -493.5858971613491804 [Eh]
	 Singles Energy            =      -0.0000000000000000 [Eh]
	 Same-Spin Energy          =      -0.5685084640814917 [Eh]
	 Opposite-Spin Energy      =      -1.8850792311421849 [Eh]
	 Correlation Energy        =      -2.4535876952236766 [Eh]
	 Total Energy              =    -496.0394848565728694 [Eh]

	 ================> DF-SCS-MP2 Energies <==================
	-----------------------------------------------------------
	 SCS Same-Spin Scale       =       0.3333333333333333 [-]
	 SCS Opposite-Spin Scale   =       1.2000000000000000 [-]
	 SCS Same-Spin Energy      =      -0.1895028213604972 [Eh]
	 SCS Opposite-Spin Energy  =      -2.2620950773706219 [Eh]
	 SCS Correlation Energy    =      -2.4515978987311193 [Eh]
	 SCS Total Energy          =    -496.0374950600802890 [Eh]
	-----------------------------------------------------------

*** Psi4 exiting successfully. Buy a developer a beer!
