                               Psi4 1.4a2.dev224

  ==> Input File <==

--------------------------------------------------------------------------
#Generated by lconvert.py for cbs job

memory 40 GB

molecule  {
0 1
  N        1.3227630    -0.0103760     1.0191840
  C        0.6512860    -1.1489920     0.7968010
  H        1.2004180    -2.0655280     0.9736730
  C       -0.6726810    -1.1947120     0.3666570
  H       -1.1571940    -2.1473210     0.2064640
  C       -1.3471970     0.0031340     0.1521440
  H       -2.3753570     0.0084050    -0.1822930
  C       -0.6645580     1.1940910     0.3790020
  H       -1.1426260     2.1515580     0.2287210
  C        0.6588960     1.1349790     0.8088600
  H        1.2141030     2.0459100     0.9954380
--
0 1
  N        0.6243810     0.0047560     6.1911460
  C        1.4950490    -0.0008560     5.1717330
  H        2.5429060     0.0003920     5.4460360
  C        1.1216630    -0.0079240     3.8299050
  H        1.8691240    -0.0120880     3.0488050
  C       -0.2343850    -0.0093380     3.5174900
  H       -0.5641140    -0.0147940     2.4872080
  C       -1.1524890    -0.0036230     4.5626590
  H       -2.2169390    -0.0044720     4.3739240
  C       -0.6768850     0.0032950     5.8716180
  H       -1.3690680     0.0078780     6.7048090
units angstrom
no_reorient
symmetry c1
}

set {
scf_type DF
mp2_type DF
e_convergence 7
reference rhf
}

energy('mp2/aug-cc-pv[tq]z', bsse_type='cp')
--------------------------------------------------------------------------

    Molecular point group: c1
  Charge       = 0
  Multiplicity = 1
  Basis Set: AUG-CC-PVTZ
    Blend: AUG-CC-PVTZ
  Basis Set: (AUG-CC-PVTZ AUX)
    Blend: AUG-CC-PVTZ-JKFIT
  @DF-RHF Final Energy:  -246.77860725579069
    Total Energy =                       -246.7786072557906891
  Basis Set: (AUG-CC-PVTZ AUX)
    Blend: AUG-CC-PVTZ-RI
	 Reference Energy          =    -246.7786072557906891 [Eh]
	 Singles Energy            =      -0.0000000000000000 [Eh]
	 Same-Spin Energy          =      -0.2687968758110142 [Eh]
	 Opposite-Spin Energy      =      -0.8388514900469185 [Eh]
	 Correlation Energy        =      -1.1076483658579328 [Eh]
	 Total Energy              =    -247.8862556216486155 [Eh]
	 SCS Total Energy          =    -247.8748280024506698 [Eh]
    Molecular point group: c1
  Basis Set: AUG-CC-PVQZ
    Blend: AUG-CC-PVQZ
  Basis Set: (AUG-CC-PVQZ AUX)
    Blend: AUG-CC-PVQZ-JKFIT
  @DF-RHF Final Energy:  -246.79274613773293
    Total Energy =                       -246.7927461377329337
  Basis Set: (AUG-CC-PVQZ AUX)
  @DF-RHF Final Energy:  -246.77877310733729
    Total Energy =                       -246.7787731073373152
  @DF-RHF Final Energy:  -246.79278683855210
    Total Energy =                       -246.7927868385521037
  @DF-RHF Final Energy:  -246.77893228417150
    Total Energy =                       -246.7789322841715034
  @DF-RHF Final Energy:  -246.79284788797710
    Total Energy =                       -246.7928478879770751
  @DF-RHF Final Energy:  -246.77863369299186
    Total Energy =                       -246.7786336929918889
  @DF-RHF Final Energy:  -246.79277350912696
    Total Energy =                       -246.7927735091269597
  Multiplicity = 1
  @DF-RHF Final Energy:  -493.53573115781501
    Total Energy =                       -493.5357311578150075
	 Singles Energy            =      -0.0000000000000000 [Eh]
	 Same-Spin Energy          =      -0.5484199354177114 [Eh]
	 Opposite-Spin Energy      =      -1.6943695987471177 [Eh]
	 Correlation Energy        =      -2.2427895341648290 [Eh]
	 Total Energy              =    -495.7785206919798497 [Eh]
	 SCS Total Energy          =    -495.7517813214507783 [Eh]
    Molecular point group: c1

    Geometry (in Angstrom), charge = 0, multiplicity = 1:

       Center              X                  Y                   Z               Mass
    ------------   -----------------  -----------------  -----------------  -----------------
         N            1.225371970701    -0.007413376861    -1.706714416989    14.003074004430
         C            0.553894970701    -1.146029376861    -1.929097416989    12.000000000000
         H            1.103026970701    -2.062565376861    -1.752225416989     1.007825032230
         C           -0.770072029299    -1.191749376861    -2.359241416989    12.000000000000
         H           -1.254585029299    -2.144358376861    -2.519434416989     1.007825032230
         C           -1.444588029299     0.006096623139    -2.573754416989    12.000000000000
         H           -2.472748029299     0.011367623139    -2.908191416989     1.007825032230
         C           -0.761949029299     1.197053623139    -2.346896416989    12.000000000000
         H           -1.240017029299     2.154520623139    -2.497177416989     1.007825032230
         C            0.561504970701     1.137941623139    -1.917038416989    12.000000000000
         H            1.116711970701     2.048872623139    -1.730460416989     1.007825032230
         N            0.526989970701     0.007718623139     3.465247583011    14.003074004430
         C            1.397657970701     0.002106623139     2.445834583011    12.000000000000
         H            2.445514970701     0.003354623139     2.720137583011     1.007825032230
         C            1.024271970701    -0.004961376861     1.104006583011    12.000000000000
         H            1.771732970701    -0.009125376861     0.322906583011     1.007825032230
         C           -0.331776029299    -0.006375376861     0.791591583011    12.000000000000
         H           -0.661505029299    -0.011831376861    -0.238690416989     1.007825032230
         C           -1.249880029299    -0.000660376861     1.836760583011    12.000000000000
         H           -2.314330029299    -0.001509376861     1.648025583011     1.007825032230
         C           -0.774276029299     0.006257623139     3.145719583011    12.000000000000
         H           -1.466459029299     0.010840623139     3.978910583011     1.007825032230

  Charge       = 0
  Multiplicity = 1
  Basis Set: AUG-CC-PVQZ
    Blend: AUG-CC-PVQZ
  Basis Set: (AUG-CC-PVQZ AUX)
    Blend: AUG-CC-PVQZ-JKFIT

    Orbital Energies [Eh]
    ---------------------

    Doubly Occupied:

       1A    -15.576062     2A    -15.551769     3A    -11.286979
       4A    -11.286928     5A    -11.271610     6A    -11.261923
       7A    -11.259556     8A    -11.253900     9A    -11.253829
      10A    -11.239693    11A    -11.227898    12A    -11.218426
      13A     -1.273269    14A     -1.242750    15A     -1.104359
      16A     -1.074788    17A     -1.047536    18A     -1.019077
      19A     -0.873029    20A     -0.869370    21A     -0.846245
      22A     -0.842149    23A     -0.736703    24A     -0.713570
      25A     -0.673852    26A     -0.667021    27A     -0.647729
      28A     -0.641849    29A     -0.611627    30A     -0.595115
      31A     -0.590859    32A     -0.577515    33A     -0.532743
      34A     -0.528460    35A     -0.521832    36A     -0.505585
      37A     -0.433504    38A     -0.411070    39A     -0.393090
      40A     -0.382009    41A     -0.352363    42A     -0.333608

  @DF-RHF Final Energy:  -493.56368119096288

   => Energetics <=

    Nuclear Repulsion Energy =            626.3277395213930276
    One-Electron Energy =               -1910.3203224848687114
    Two-Electron Energy =                 790.4289017725129725
    Total Energy =                       -493.5636811909628250

  Dipole Moment: [D]
     X:    -2.6794      Y:     0.0004      Z:    -3.8345     Total:     4.6779

  Basis Set: (AUG-CC-PVQZ AUX)
    Blend: AUG-CC-PVQZ-RI
	 Reference Energy          =    -493.5636811909628818 [Eh]
	 Singles Energy            =      -0.0000000000000000 [Eh]
	 Same-Spin Energy          =      -0.5788923744185462 [Eh]
	 Opposite-Spin Energy      =      -1.8979623653406905 [Eh]
	 Correlation Energy        =      -2.4768547397592369 [Eh]
	 Total Energy              =    -496.0405359307221147 [Eh]

	 ================> DF-SCS-MP2 Energies <==================
	-----------------------------------------------------------
	 SCS Same-Spin Scale       =       0.3333333333333333 [-]
	 SCS Opposite-Spin Scale   =       1.2000000000000000 [-]
	 SCS Same-Spin Energy      =      -0.1929641248061821 [Eh]
	 SCS Opposite-Spin Energy  =      -2.2775548384088284 [Eh]
	 SCS Correlation Energy    =      -2.4705189632150106 [Eh]
	 SCS Total Energy          =    -496.0342001541778814 [Eh]
	-----------------------------------------------------------

*** Psi4 exiting successfully. Buy a developer a beer!
