                               Psi4 1.4a2.dev224

  ==> Input File <==

--------------------------------------------------------------------------
#Generated by lconvert.py for cbs job

memory 40 GB

molecule  {
0 1
  N        1.3227630    -0.0103760     1.0191840
  C        0.6512860    -1.1489920     0.7968010
  H        1.2004180    -2.0655280     0.9736730
  C       -0.6726810    -1.1947120     0.3666570
  H       -1.1571940    -2.1473210     0.2064640
  C       -1.3471970     0.0031340     0.1521440
  H       -2.3753570     0.0084050    -0.1822930
  C       -0.6645580     1.1940910     0.3790020
  H       -1.1426260     2.1515580     0.2287210
  C        0.6588960     1.1349790     0.8088600
  H        1.2141030     2.0459100     0.9954380
--
0 1
  N        0.4970420     0.0022320     6.6221320
  C        1.3677100    -0.0033810     5.6027190
  H        2.4155670    -0.0021330     5.8770210
  C        0.9943250    -0.0104490     4.2608910
  H        1.7417850    -0.0146130     3.4797910
  C       -0.3617240    -0.0118630     3.9484750
  H       -0.6914530    -0.0173190     2.9181940
  C       -1.2798270    -0.0061480     4.9936450
  H       -2.3442770    -0.0069970     4.8049090
  C       -0.8042230     0.0007700     6.3026040
  H       -1.4964070     0.0053530     7.1357950
units angstrom
no_reorient
symmetry c1
}

set {
scf_type DF
mp2_type DF
e_convergence 7
reference rhf
}

energy('mp2/aug-cc-pv[tq]z', bsse_type='cp')
--------------------------------------------------------------------------

    Molecular point group: c1
  Charge       = 0
  Multiplicity = 1
  Basis Set: AUG-CC-PVTZ
    Blend: AUG-CC-PVTZ
  Basis Set: (AUG-CC-PVTZ AUX)
    Blend: AUG-CC-PVTZ-JKFIT
  @DF-RHF Final Energy:  -246.77860728097471
    Total Energy =                       -246.7786072809747111
  Basis Set: (AUG-CC-PVTZ AUX)
    Blend: AUG-CC-PVTZ-RI
	 Reference Energy          =    -246.7786072809747111 [Eh]
	 Singles Energy            =      -0.0000000000000000 [Eh]
	 Same-Spin Energy          =      -0.2687968686754904 [Eh]
	 Opposite-Spin Energy      =      -0.8388514710431477 [Eh]
	 Correlation Energy        =      -1.1076483397186381 [Eh]
	 Total Energy              =    -247.8862556206933618 [Eh]
	 SCS Total Energy          =    -247.8748280024516646 [Eh]
    Molecular point group: c1
  Basis Set: AUG-CC-PVQZ
    Blend: AUG-CC-PVQZ
  Basis Set: (AUG-CC-PVQZ AUX)
    Blend: AUG-CC-PVQZ-JKFIT
  @DF-RHF Final Energy:  -246.79274616747131
    Total Energy =                       -246.7927461674713072
  Basis Set: (AUG-CC-PVQZ AUX)
  @DF-RHF Final Energy:  -246.77870664425879
    Total Energy =                       -246.7787066442587616
  @DF-RHF Final Energy:  -246.79277339604104
    Total Energy =                       -246.7927733960410706
  @DF-RHF Final Energy:  -246.77883889607406
    Total Energy =                       -246.7788388960740349
  @DF-RHF Final Energy:  -246.79282731353302
    Total Energy =                       -246.7928273135330528
  @DF-RHF Final Energy:  -246.77863369483683
    Total Energy =                       -246.7786336948367989
  @DF-RHF Final Energy:  -246.79277351229732
    Total Energy =                       -246.7927735122973445
  Multiplicity = 1
  @DF-RHF Final Energy:  -493.55380836804909
    Total Energy =                       -493.5538083680490899
	 Singles Energy            =      -0.0000000000000000 [Eh]
	 Same-Spin Energy          =      -0.5432637479442067 [Eh]
	 Opposite-Spin Energy      =      -1.6869161051967134 [Eh]
	 Correlation Energy        =      -2.2301798531409203 [Eh]
	 Total Energy              =    -495.7839882211899862 [Eh]
	 SCS Total Energy          =    -495.7591956102665449 [Eh]
    Molecular point group: c1

    Geometry (in Angstrom), charge = 0, multiplicity = 1:

       Center              X                  Y                   Z               Mass
    ------------   -----------------  -----------------  -----------------  -----------------
         N            1.289041236599    -0.006150965441    -1.922207328330    14.003074004430
         C            0.617564236599    -1.144766965441    -2.144590328330    12.000000000000
         H            1.166696236599    -2.061302965441    -1.967718328330     1.007825032230
         C           -0.706402763401    -1.190486965441    -2.574734328330    12.000000000000
         H           -1.190915763401    -2.143095965441    -2.734927328330     1.007825032230
         C           -1.380918763401     0.007359034559    -2.789247328330    12.000000000000
         H           -2.409078763401     0.012630034559    -3.123684328330     1.007825032230
         C           -0.698279763401     1.198316034559    -2.562389328330    12.000000000000
         H           -1.176347763401     2.155783034559    -2.712670328330     1.007825032230
         C            0.625174236599     1.139204034559    -2.132531328330    12.000000000000
         H            1.180381236599     2.050135034559    -1.945953328330     1.007825032230
         N            0.463320236599     0.006457034559     3.680740671670    14.003074004430
         C            1.333988236599     0.000844034559     2.661327671670    12.000000000000
         H            2.381845236599     0.002092034559     2.935629671670     1.007825032230
         C            0.960603236599    -0.006223965441     1.319499671670    12.000000000000
         H            1.708063236599    -0.010387965441     0.538399671670     1.007825032230
         C           -0.395445763401    -0.007637965441     1.007083671670    12.000000000000
         H           -0.725174763401    -0.013093965441    -0.023197328330     1.007825032230
         C           -1.313548763401    -0.001922965441     2.052253671670    12.000000000000
         H           -2.377998763401    -0.002771965441     1.863517671670     1.007825032230
         C           -0.837944763401     0.004995034559     3.361212671670    12.000000000000
         H           -1.530128763401     0.009578034559     4.194403671670     1.007825032230

  Charge       = 0
  Multiplicity = 1
  Basis Set: AUG-CC-PVQZ
    Blend: AUG-CC-PVQZ
  Basis Set: (AUG-CC-PVQZ AUX)
    Blend: AUG-CC-PVQZ-JKFIT

    Orbital Energies [Eh]
    ---------------------

    Doubly Occupied:

       1A    -15.575829     2A    -15.555770     3A    -11.285189
       4A    -11.285148     5A    -11.270215     6A    -11.265265
       7A    -11.263760     8A    -11.252001     9A    -11.251939
      10A    -11.246409    11A    -11.231918    12A    -11.226480
      13A     -1.268644    14A     -1.246630    15A     -1.101174
      16A     -1.078666    17A     -1.044764    18A     -1.023043
      19A     -0.870349    20A     -0.866919    21A     -0.848804
      22A     -0.845622    23A     -0.733270    24A     -0.713089
      25A     -0.671646    26A     -0.664782    27A     -0.650476
      28A     -0.643902    29A     -0.609216    30A     -0.591872
      31A     -0.586176    32A     -0.576838    33A     -0.539885
      34A     -0.531942    35A     -0.530672    36A     -0.509030
      37A     -0.431838    38A     -0.411786    39A     -0.395184
      40A     -0.377293    41A     -0.356891    42A     -0.337801

  @DF-RHF Final Energy:  -493.58187044841753

   => Energetics <=

    Nuclear Repulsion Energy =            607.5145447503472269
    One-Electron Energy =               -1872.6565561885115585
    Two-Electron Energy =                 771.5601409897469694
    Total Energy =                       -493.5818704484174759

  Dipole Moment: [D]
     X:    -2.7374      Y:     0.0013      Z:    -3.6076     Total:     4.5286

  Basis Set: (AUG-CC-PVQZ AUX)
    Blend: AUG-CC-PVQZ-RI
	 Reference Energy          =    -493.5818704484175328 [Eh]
	 Singles Energy            =      -0.0000000000000000 [Eh]
	 Same-Spin Energy          =      -0.5737910250737639 [Eh]
	 Opposite-Spin Energy      =      -1.8916393964388400 [Eh]
	 Correlation Energy        =      -2.4654304215126039 [Eh]
	 Total Energy              =    -496.0473008699301545 [Eh]

	 ================> DF-SCS-MP2 Energies <==================
	-----------------------------------------------------------
	 SCS Same-Spin Scale       =       0.3333333333333333 [-]
	 SCS Opposite-Spin Scale   =       1.2000000000000000 [-]
	 SCS Same-Spin Energy      =      -0.1912636750245880 [Eh]
	 SCS Opposite-Spin Energy  =      -2.2699672757266081 [Eh]
	 SCS Correlation Energy    =      -2.4612309507511960 [Eh]
	 SCS Total Energy          =    -496.0431013991687337 [Eh]
	-----------------------------------------------------------

*** Psi4 exiting successfully. Buy a developer a beer!
