                               Psi4 1.4a2.dev224

  ==> Input File <==

--------------------------------------------------------------------------
#Generated by lconvert.py for cbs job

memory 40 GB

molecule  {
0 1
  N        1.3227630    -0.0103760     1.0191840
  C        0.6512860    -1.1489920     0.7968010
  H        1.2004180    -2.0655280     0.9736730
  C       -0.6726810    -1.1947120     0.3666570
  H       -1.1571940    -2.1473210     0.2064640
  C       -1.3471970     0.0031340     0.1521440
  H       -2.3753570     0.0084050    -0.1822930
  C       -0.6645580     1.1940910     0.3790020
  H       -1.1426260     2.1515580     0.2287210
  C        0.6588960     1.1349790     0.8088600
  H        1.2141030     2.0459100     0.9954380
--
0 1
  N        0.3746460    -0.0001950     7.0363880
  C        1.2453140    -0.0058080     6.0169750
  H        2.2931710    -0.0045600     6.2912770
  C        0.8719290    -0.0128760     4.6751470
  H        1.6193890    -0.0170400     3.8940470
  C       -0.4841200    -0.0142900     4.3627310
  H       -0.8138480    -0.0197450     3.3324500
  C       -1.4022230    -0.0085750     5.4079010
  H       -2.4666730    -0.0094240     5.2191650
  C       -0.9266190    -0.0016570     6.7168600
  H       -1.6188030     0.0029260     7.5500510
units angstrom
no_reorient
symmetry c1
}

set {
scf_type DF
mp2_type DF
e_convergence 7
reference rhf
}

energy('mp2/aug-cc-pv[tq]z', bsse_type='cp')
--------------------------------------------------------------------------

    Molecular point group: c1
  Charge       = 0
  Multiplicity = 1
  Basis Set: AUG-CC-PVTZ
    Blend: AUG-CC-PVTZ
  Basis Set: (AUG-CC-PVTZ AUX)
    Blend: AUG-CC-PVTZ-JKFIT
  @DF-RHF Final Energy:  -246.77860728346869
    Total Energy =                       -246.7786072834686593
  Basis Set: (AUG-CC-PVTZ AUX)
    Blend: AUG-CC-PVTZ-RI
	 Reference Energy          =    -246.7786072834686877 [Eh]
	 Singles Energy            =      -0.0000000000000000 [Eh]
	 Same-Spin Energy          =      -0.2687968681917657 [Eh]
	 Opposite-Spin Energy      =      -0.8388514690030828 [Eh]
	 Correlation Energy        =      -1.1076483371948485 [Eh]
	 Total Energy              =    -247.8862556206635475 [Eh]
	 SCS Total Energy          =    -247.8748280023363009 [Eh]
    Molecular point group: c1
  Basis Set: AUG-CC-PVQZ
    Blend: AUG-CC-PVQZ
  Basis Set: (AUG-CC-PVQZ AUX)
    Blend: AUG-CC-PVQZ-JKFIT
  @DF-RHF Final Energy:  -246.79274616728475
    Total Energy =                       -246.7927461672847471
  Basis Set: (AUG-CC-PVQZ AUX)
  @DF-RHF Final Energy:  -246.77867077734078
    Total Energy =                       -246.7786707773407784
  @DF-RHF Final Energy:  -246.79276433393989
    Total Energy =                       -246.7927643339398855
  @DF-RHF Final Energy:  -246.77878741415793
    Total Energy =                       -246.7787874141579323
  @DF-RHF Final Energy:  -246.79281125194791
    Total Energy =                       -246.7928112519479100
  @DF-RHF Final Energy:  -246.77863369239606
    Total Energy =                       -246.7786336923960562
  @DF-RHF Final Energy:  -246.79277351175617
    Total Energy =                       -246.7927735117561951
  Multiplicity = 1
  @DF-RHF Final Energy:  -493.55787029464597
    Total Energy =                       -493.5578702946459089
	 Singles Energy            =      -0.0000000000000000 [Eh]
	 Same-Spin Energy          =      -0.5407066302855951 [Eh]
	 Opposite-Spin Energy      =      -1.6831056252763474 [Eh]
	 Correlation Energy        =      -2.2238122555619424 [Eh]
	 Total Energy              =    -495.7816825502079041 [Eh]
	 SCS Total Energy          =    -495.7578325884061314 [Eh]
    Molecular point group: c1

    Geometry (in Angstrom), charge = 0, multiplicity = 1:

       Center              X                  Y                   Z               Mass
    ------------   -----------------  -----------------  -----------------  -----------------
         N            1.350239230224    -0.004937471816    -2.129335328330    14.003074004430
         C            0.678762230224    -1.143553471816    -2.351718328330    12.000000000000
         H            1.227894230224    -2.060089471816    -2.174846328330     1.007825032230
         C           -0.645204769776    -1.189273471816    -2.781862328330    12.000000000000
         H           -1.129717769776    -2.141882471816    -2.942055328330     1.007825032230
         C           -1.319720769776     0.008572528184    -2.996375328330    12.000000000000
         H           -2.347880769776     0.013843528184    -3.330812328330     1.007825032230
         C           -0.637081769776     1.199529528184    -2.769517328330    12.000000000000
         H           -1.115149769776     2.156996528184    -2.919798328330     1.007825032230
         C            0.686372230224     1.140417528184    -2.339659328330    12.000000000000
         H            1.241579230224     2.051348528184    -2.153081328330     1.007825032230
         N            0.402122230224     0.005243528184     3.887868671670    14.003074004430
         C            1.272790230224    -0.000369471816     2.868455671670    12.000000000000
         H            2.320647230224     0.000878528184     3.142757671670     1.007825032230
         C            0.899405230224    -0.007437471816     1.526627671670    12.000000000000
         H            1.646865230224    -0.011601471816     0.745527671670     1.007825032230
         C           -0.456643769776    -0.008851471816     1.214211671670    12.000000000000
         H           -0.786371769776    -0.014306471816     0.183930671670     1.007825032230
         C           -1.374746769776    -0.003136471816     2.259381671670    12.000000000000
         H           -2.439196769776    -0.003985471816     2.070645671670     1.007825032230
         C           -0.899142769776     0.003781528184     3.568340671670    12.000000000000
         H           -1.591326769776     0.008364528184     4.401531671670     1.007825032230

  Charge       = 0
  Multiplicity = 1
  Basis Set: AUG-CC-PVQZ
    Blend: AUG-CC-PVQZ
  Basis Set: (AUG-CC-PVQZ AUX)
    Blend: AUG-CC-PVQZ-JKFIT

    Orbital Energies [Eh]
    ---------------------

    Doubly Occupied:

       1A    -15.574756     2A    -15.558184     3A    -11.283665
       4A    -11.283631     5A    -11.268807     6A    -11.267477
       7A    -11.266424     8A    -11.250511     9A    -11.250452
      10A    -11.250143    11A    -11.234319    12A    -11.230901
      13A     -1.266288    14A     -1.249045    15A     -1.099217
      16A     -1.081343    17A     -1.042958    18A     -1.025612
      19A     -0.868638    20A     -0.865217    21A     -0.851126
      22A     -0.848085    23A     -0.731407    24A     -0.714412
      25A     -0.670009    26A     -0.663299    27A     -0.652845
      28A     -0.646143    29A     -0.607602    30A     -0.591238
      31A     -0.586350    32A     -0.572611    33A     -0.547340
      34A     -0.534184    35A     -0.529241    36A     -0.511649
      37A     -0.429883    38A     -0.413404    39A     -0.394195
      40A     -0.377215    41A     -0.357151    42A     -0.340411

  @DF-RHF Final Energy:  -493.58598610333956

   => Energetics <=

    Nuclear Repulsion Energy =            592.1604829485423807
    One-Electron Energy =               -1841.9181543272366071
    Two-Electron Energy =                 756.1716852753547755
    Total Energy =                       -493.5859861033395646

  Dipole Moment: [D]
     X:    -2.7742      Y:     0.0014      Z:    -3.4465     Total:     4.4244

  Basis Set: (AUG-CC-PVQZ AUX)
    Blend: AUG-CC-PVQZ-RI
	 Reference Energy          =    -493.5859861033395646 [Eh]
	 Singles Energy            =      -0.0000000000000000 [Eh]
	 Same-Spin Energy          =      -0.5712882646546569 [Eh]
	 Opposite-Spin Energy      =      -1.8885489754754925 [Eh]
	 Correlation Energy        =      -2.4598372401301494 [Eh]
	 Total Energy              =    -496.0458233434696922 [Eh]

	 ================> DF-SCS-MP2 Energies <==================
	-----------------------------------------------------------
	 SCS Same-Spin Scale       =       0.3333333333333333 [-]
	 SCS Opposite-Spin Scale   =       1.2000000000000000 [-]
	 SCS Same-Spin Energy      =      -0.1904294215515523 [Eh]
	 SCS Opposite-Spin Energy  =      -2.2662587705705910 [Eh]
	 SCS Correlation Energy    =      -2.4566881921221433 [Eh]
	 SCS Total Energy          =    -496.0426742954617225 [Eh]
	-----------------------------------------------------------

*** Psi4 exiting successfully. Buy a developer a beer!
