                               Psi4 1.4a2.dev224

  ==> Input File <==

--------------------------------------------------------------------------
#Generated by lconvert.py for cbs job

memory 20 GB

molecule  {
0 1
  N       1.322760   -0.010380    1.019180
  C       0.651290   -1.148990    0.796800
  H       1.200420   -2.065530    0.973670
  C      -0.672680   -1.194710    0.366660
  H      -1.157190   -2.147320    0.206460
  C      -1.347200    0.003130    0.152140
  H      -2.375360    0.008400   -0.182290
  C      -0.664560    1.194090    0.379000
  H      -1.142630    2.151560    0.228720
  C       0.658900    1.134980    0.808860
  H       1.214100    2.045910    0.995440
--
0 1
  N      -0.074470   -0.009110    8.556450
  C       0.796190   -0.014720    7.537040
  H       1.844050   -0.013470    7.811340
  C       0.422810   -0.021790    6.195210
  H       1.170270   -0.025950    5.414110
  C      -0.933240   -0.023200    5.882800
  H      -1.262970   -0.028650    4.852520
  C      -1.851340   -0.017490    6.927970
  H      -2.915790   -0.018330    6.739230
  C      -1.375740   -0.010570    8.236920
  H      -2.067920   -0.005980    9.070120
units angstrom
no_reorient
symmetry c1
}

set {
scf_type DF
mp2_type DF
e_convergence 7
reference rhf
}

energy('mp2/aug-cc-pv[tq]z', bsse_type='cp')
--------------------------------------------------------------------------

    Molecular point group: c1
  Charge       = 0
  Multiplicity = 1
  Basis Set: AUG-CC-PVTZ
    Blend: AUG-CC-PVTZ
  Basis Set: (AUG-CC-PVTZ AUX)
    Blend: AUG-CC-PVTZ-JKFIT
  @DF-RHF Final Energy:  -246.77860756112753
    Total Energy =                       -246.7786075611275010
  Basis Set: (AUG-CC-PVTZ AUX)
    Blend: AUG-CC-PVTZ-RI
	 Reference Energy          =    -246.7786075611275294 [Eh]
	 Singles Energy            =      -0.0000000000000000 [Eh]
	 Same-Spin Energy          =      -0.2687968485257243 [Eh]
	 Opposite-Spin Energy      =      -0.8388513113664342 [Eh]
	 Correlation Energy        =      -1.1076481598921586 [Eh]
	 Total Energy              =    -247.8862557210196940 [Eh]
	 SCS Total Energy          =    -247.8748280842758334 [Eh]
    Molecular point group: c1
  Basis Set: AUG-CC-PVQZ
    Blend: AUG-CC-PVQZ
  Basis Set: (AUG-CC-PVQZ AUX)
    Blend: AUG-CC-PVQZ-JKFIT
  @DF-RHF Final Energy:  -246.79274645695205
    Total Energy =                       -246.7927464569520453
  Basis Set: (AUG-CC-PVQZ AUX)
  @DF-RHF Final Energy:  -246.77862501916655
    Total Energy =                       -246.7786250191665545
  @DF-RHF Final Energy:  -246.79275260169453
    Total Energy =                       -246.7927526016945308
  @DF-RHF Final Energy:  -246.77867727114023
    Total Energy =                       -246.7786772711402250
  @DF-RHF Final Energy:  -246.79278575188786
    Total Energy =                       -246.7927857518878909
  @DF-RHF Final Energy:  -246.77863389699468
    Total Energy =                       -246.7786338969946769
  @DF-RHF Final Energy:  -246.79277372477623
    Total Energy =                       -246.7927737247762252
  Multiplicity = 1
  @DF-RHF Final Energy:  -493.55796113318218
    Total Energy =                       -493.5579611331821752
	 Singles Energy            =      -0.0000000000000000 [Eh]
	 Same-Spin Energy          =      -0.5380603046176724 [Eh]
	 Opposite-Spin Energy      =      -1.6786704364517464 [Eh]
	 Correlation Energy        =      -2.2167307410694188 [Eh]
	 Total Energy              =    -495.7746918742515732 [Eh]
	 SCS Total Energy          =    -495.7517190917968151 [Eh]
    Molecular point group: c1

    Geometry (in Angstrom), charge = 0, multiplicity = 1:

       Center              X                  Y                   Z               Mass
    ------------   -----------------  -----------------  -----------------  -----------------
         N            1.574795913918    -0.000484669252    -2.889370993296    14.003074004430
         C            0.903325913918    -1.139094669252    -3.111750993296    12.000000000000
         H            1.452455913918    -2.055634669252    -2.934880993296     1.007825032230
         C           -0.420644086082    -1.184814669252    -3.541890993296    12.000000000000
         H           -0.905154086082    -2.137424669252    -3.702090993296     1.007825032230
         C           -1.095164086082     0.013025330748    -3.756410993296    12.000000000000
         H           -2.123324086082     0.018295330748    -4.090840993296     1.007825032230
         C           -0.412524086082     1.203985330748    -3.529550993296    12.000000000000
         H           -0.890594086082     2.161455330748    -3.679830993296     1.007825032230
         C            0.910935913918     1.144875330748    -3.099690993296    12.000000000000
         H            1.466135913918     2.055805330748    -2.913110993296     1.007825032230
         N            0.177565913918     0.000785330748     4.647899006704    14.003074004430
         C            1.048225913918    -0.004824669252     3.628489006704    12.000000000000
         H            2.096085913918    -0.003574669252     3.902789006704     1.007825032230
         C            0.674845913918    -0.011894669252     2.286659006704    12.000000000000
         H            1.422305913918    -0.016054669252     1.505559006704     1.007825032230
         C           -0.681204086082    -0.013304669252     1.974249006704    12.000000000000
         H           -1.010934086082    -0.018754669252     0.943969006704     1.007825032230
         C           -1.599304086082    -0.007594669252     3.019419006704    12.000000000000
         H           -2.663754086082    -0.008434669252     2.830679006704     1.007825032230
         C           -1.123704086082    -0.000674669252     4.328369006704    12.000000000000
         H           -1.815884086082     0.003915330748     5.161569006704     1.007825032230

  Charge       = 0
  Multiplicity = 1
  Basis Set: AUG-CC-PVQZ
    Blend: AUG-CC-PVQZ
  Basis Set: (AUG-CC-PVQZ AUX)
    Blend: AUG-CC-PVQZ-JKFIT

    Orbital Energies [Eh]
    ---------------------

    Doubly Occupied:

       1A    -15.570796     2A    -15.562197     3A    -11.279812
       4A    -11.279787     5A    -11.271374     6A    -11.270983
       7A    -11.265043     8A    -11.255800     9A    -11.246840
      10A    -11.246785    11A    -11.238348    12A    -11.237321
      13A     -1.261752    14A     -1.253154    15A     -1.095093
      16A     -1.086164    17A     -1.039009    18A     -1.030056
      19A     -0.864845    20A     -0.861324    21A     -0.855737
      22A     -0.852593    23A     -0.727569    24A     -0.718627
      25A     -0.666111    26A     -0.659874    27A     -0.657370
      28A     -0.650915    29A     -0.603959    30A     -0.595026
      31A     -0.582943    32A     -0.573724    33A     -0.547100
      34A     -0.538261    35A     -0.525691    36A     -0.516390
      37A     -0.425443    38A     -0.417221    39A     -0.389899
      40A     -0.380877    41A     -0.353662    42A     -0.344792

  @DF-RHF Final Energy:  -493.58619310879521

   => Energetics <=

    Nuclear Repulsion Energy =            551.4081944355840506
    One-Electron Energy =               -1760.3882299221213543
    Two-Electron Energy =                 715.3938423777422031
    Total Energy =                       -493.5861931087952144

  Dipole Moment: [D]
     X:    -2.8455      Y:     0.0007      Z:    -3.1403     Total:     4.2378

  Basis Set: (AUG-CC-PVQZ AUX)
    Blend: AUG-CC-PVQZ-RI
	 Reference Energy          =    -493.5861931087952144 [Eh]
	 Singles Energy            =      -0.0000000000000000 [Eh]
	 Same-Spin Energy          =      -0.5687646201565327 [Eh]
	 Opposite-Spin Energy      =      -1.8854222472933131 [Eh]
	 Correlation Energy        =      -2.4541868674498457 [Eh]
	 Total Energy              =    -496.0403799762450490 [Eh]

	 ================> DF-SCS-MP2 Energies <==================
	-----------------------------------------------------------
	 SCS Same-Spin Scale       =       0.3333333333333333 [-]
	 SCS Opposite-Spin Scale   =       1.2000000000000000 [-]
	 SCS Same-Spin Energy      =      -0.1895882067188442 [Eh]
	 SCS Opposite-Spin Energy  =      -2.2625066967519758 [Eh]
	 SCS Correlation Energy    =      -2.4520949034708202 [Eh]
	 SCS Total Energy          =    -496.0382880122660367 [Eh]
	-----------------------------------------------------------

*** Psi4 exiting successfully. Buy a developer a beer!
