                               Psi4 1.4a2.dev224

  ==> Input File <==

--------------------------------------------------------------------------
#Generated by lconvert.py for cbs job

memory 40 GB

molecule  {
0 1
  N        1.3227630    -0.0103760     1.0191840
  C        0.6512860    -1.1489920     0.7968010
  H        1.2004180    -2.0655280     0.9736730
  C       -0.6726810    -1.1947120     0.3666570
  H       -1.1571940    -2.1473210     0.2064640
  C       -1.3471970     0.0031340     0.1521440
  H       -2.3753570     0.0084050    -0.1822930
  C       -0.6645580     1.1940910     0.3790020
  H       -1.1426260     2.1515580     0.2287210
  C        0.6588960     1.1349790     0.8088600
  H        1.2141030     2.0459100     0.9954380
--
0 1
  N        0.5387810     0.0030590     6.4808650
  C        1.4094490    -0.0025540     5.4614520
  H        2.4573060    -0.0013050     5.7357540
  C        1.0360630    -0.0096210     4.1196240
  H        1.7835240    -0.0137850     3.3385240
  C       -0.3199850    -0.0110350     3.8072080
  H       -0.6497140    -0.0164910     2.7769270
  C       -1.2380890    -0.0053200     4.8523780
  H       -2.3025390    -0.0061700     4.6636420
  C       -0.7624850     0.0015970     6.1613370
  H       -1.4546680     0.0061800     6.9945280
units angstrom
no_reorient
symmetry c1
}

set {
scf_type DF
mp2_type DF
e_convergence 7
reference rhf
}

energy('mp2/aug-cc-pv[tq]z', bsse_type='cp')
--------------------------------------------------------------------------

    Molecular point group: c1
  Charge       = 0
  Multiplicity = 1
  Basis Set: AUG-CC-PVTZ
    Blend: AUG-CC-PVTZ
  Basis Set: (AUG-CC-PVTZ AUX)
    Blend: AUG-CC-PVTZ-JKFIT
  @DF-RHF Final Energy:  -246.77860723883177
    Total Energy =                       -246.7786072388317962
  Basis Set: (AUG-CC-PVTZ AUX)
    Blend: AUG-CC-PVTZ-RI
	 Reference Energy          =    -246.7786072388317677 [Eh]
	 Singles Energy            =      -0.0000000000000000 [Eh]
	 Same-Spin Energy          =      -0.2687968763938364 [Eh]
	 Opposite-Spin Energy      =      -0.8388514984129356 [Eh]
	 Correlation Energy        =      -1.1076483748067720 [Eh]
	 Total Energy              =    -247.8862556136385535 [Eh]
	 SCS Total Energy          =    -247.8748279957252407 [Eh]
    Molecular point group: c1
  Basis Set: AUG-CC-PVQZ
    Blend: AUG-CC-PVQZ
  Basis Set: (AUG-CC-PVQZ AUX)
    Blend: AUG-CC-PVQZ-JKFIT
  @DF-RHF Final Energy:  -246.79274612252095
    Total Energy =                       -246.7927461225209527
  Basis Set: (AUG-CC-PVQZ AUX)
  @DF-RHF Final Energy:  -246.77872401815597
    Total Energy =                       -246.7787240181559696
  @DF-RHF Final Energy:  -246.79277751464571
    Total Energy =                       -246.7927775146457066
  @DF-RHF Final Energy:  -246.77886668642500
    Total Energy =                       -246.7788666864249763
  @DF-RHF Final Energy:  -246.79283355676569
    Total Energy =                       -246.7928335567656859
  @DF-RHF Final Energy:  -246.77863369400399
    Total Energy =                       -246.7786336940039860
  @DF-RHF Final Energy:  -246.79277351224363
    Total Energy =                       -246.7927735122436275
  Multiplicity = 1
  @DF-RHF Final Energy:  -493.55036071054781
    Total Energy =                       -493.5503607105478068
	 Singles Energy            =      -0.0000000000000000 [Eh]
	 Same-Spin Energy          =      -0.5445882718594399 [Eh]
	 Opposite-Spin Energy      =      -1.6888537161819230 [Eh]
	 Correlation Energy        =      -2.2334419880413630 [Eh]
	 Total Energy              =    -495.7838026985891702 [Eh]
	 SCS Total Energy          =    -495.7585145939192444 [Eh]
    Molecular point group: c1

    Geometry (in Angstrom), charge = 0, multiplicity = 1:

       Center              X                  Y                   Z               Mass
    ------------   -----------------  -----------------  -----------------  -----------------
         N            1.268171970701    -0.006564712293    -1.851573828330    14.003074004430
         C            0.596694970701    -1.145180712293    -2.073956828330    12.000000000000
         H            1.145826970701    -2.061716712293    -1.897084828330     1.007825032230
         C           -0.727272029299    -1.190900712293    -2.504100828330    12.000000000000
         H           -1.211785029299    -2.143509712293    -2.664293828330     1.007825032230
         C           -1.401788029299     0.006945287707    -2.718613828330    12.000000000000
         H           -2.429948029299     0.012216287707    -3.053050828330     1.007825032230
         C           -0.719149029299     1.197902287707    -2.491755828330    12.000000000000
         H           -1.197217029299     2.155369287707    -2.642036828330     1.007825032230
         C            0.604304970701     1.138790287707    -2.061897828330    12.000000000000
         H            1.159511970701     2.049721287707    -1.875319828330     1.007825032230
         N            0.484189970701     0.006870287707     3.610107171670    14.003074004430
         C            1.354857970701     0.001257287707     2.590694171670    12.000000000000
         H            2.402714970701     0.002506287707     2.864996171670     1.007825032230
         C            0.981471970701    -0.005809712293     1.248866171670    12.000000000000
         H            1.728932970701    -0.009973712293     0.467766171670     1.007825032230
         C           -0.374576029299    -0.007223712293     0.936450171670    12.000000000000
         H           -0.704305029299    -0.012679712293    -0.093830828330     1.007825032230
         C           -1.292680029299    -0.001508712293     1.981620171670    12.000000000000
         H           -2.357130029299    -0.002358712293     1.792884171670     1.007825032230
         C           -0.817076029299     0.005408287707     3.290579171670    12.000000000000
         H           -1.509259029299     0.009991287707     4.123770171670     1.007825032230

  Charge       = 0
  Multiplicity = 1
  Basis Set: AUG-CC-PVQZ
    Blend: AUG-CC-PVQZ
  Basis Set: (AUG-CC-PVQZ AUX)
    Blend: AUG-CC-PVQZ-JKFIT

    Orbital Energies [Eh]
    ---------------------

    Doubly Occupied:

       1A    -15.576048     2A    -15.554668     3A    -11.285750
       4A    -11.285706     5A    -11.270695     6A    -11.264303
       7A    -11.262575     8A    -11.252574     9A    -11.252510
      10A    -11.244617    11A    -11.230819    12A    -11.224340
      13A     -1.269775    14A     -1.245546    15A     -1.102029
      16A     -1.077529    17A     -1.045531    18A     -1.021913
      19A     -0.871079    20A     -0.867616    21A     -0.847925
      22A     -0.844588    23A     -0.734129    24A     -0.712902
      25A     -0.672293    26A     -0.665402    27A     -0.649553
      28A     -0.643123    29A     -0.609891    30A     -0.592735
      31A     -0.586492    32A     -0.578251    33A     -0.535340
      34A     -0.531462    35A     -0.530748    36A     -0.507957
      37A     -0.432518    38A     -0.411337    39A     -0.395087
      40A     -0.378119    41A     -0.356047    42A     -0.336628

  @DF-RHF Final Energy:  -493.57839205021344

   => Energetics <=

    Nuclear Repulsion Energy =            613.3299601046862790
    One-Electron Energy =               -1884.3003907581819476
    Two-Electron Energy =                 777.3920386032822307
    Total Energy =                       -493.5783920502134379

  Dipole Moment: [D]
     X:    -2.7212      Y:     0.0011      Z:    -3.6747     Total:     4.5726

  Basis Set: (AUG-CC-PVQZ AUX)
    Blend: AUG-CC-PVQZ-RI
	 Reference Energy          =    -493.5783920502134379 [Eh]
	 Singles Energy            =      -0.0000000000000000 [Eh]
	 Same-Spin Energy          =      -0.5750963050992556 [Eh]
	 Opposite-Spin Energy      =      -1.8932443047006253 [Eh]
	 Correlation Energy        =      -2.4683406097998808 [Eh]
	 Total Energy              =    -496.0467326600133333 [Eh]

	 ================> DF-SCS-MP2 Energies <==================
	-----------------------------------------------------------
	 SCS Same-Spin Scale       =       0.3333333333333333 [-]
	 SCS Opposite-Spin Scale   =       1.2000000000000000 [-]
	 SCS Same-Spin Energy      =      -0.1916987683664185 [Eh]
	 SCS Opposite-Spin Energy  =      -2.2718931656407504 [Eh]
	 SCS Correlation Energy    =      -2.4635919340071690 [Eh]
	 SCS Total Energy          =    -496.0419839842206216 [Eh]
	-----------------------------------------------------------

*** Psi4 exiting successfully. Buy a developer a beer!
