                               Psi4 1.4a2.dev224

  ==> Input File <==

--------------------------------------------------------------------------
#Generated by lconvert.py for cbs job

memory 40 GB

molecule  {
0 1
  C        0.8450770     1.0579190     0.6994550
  H        1.5064060     1.9032220     0.8333820
  C        1.3755090    -0.2174550     0.5111610
  H        2.4471840    -0.3614730     0.5028520
  C        0.5240680    -1.3070440     0.3331920
  H        0.9357270    -2.2960260     0.1849230
  C       -0.8577160    -1.1214630     0.3463840
  H       -1.5183810    -1.9664580     0.2083630
  C       -1.3880460     0.1536340     0.5376130
  H       -2.4597180     0.2974160     0.5500320
  C       -0.5366130     1.2434220     0.7127390
  H       -0.9489240     2.2328060     0.8573660
--
0 1
  N        0.0275910     0.4241490     6.4196880
  C        0.1822750     1.3621100     5.4748110
  H        0.3240450     2.3746360     5.8327130
  C        0.1680650     1.0948210     4.1083120
  H        0.2983050     1.8958460     3.3944270
  C       -0.0162730    -0.2168090     3.6830220
  H       -0.0328390    -0.4599280     2.6296740
  C       -0.1781220    -1.2018430     4.6518810
  H       -0.3246650    -2.2370540     4.3771090
  C       -0.1489190    -0.8345100     5.9949700
  H       -0.2725160    -1.5820240     6.7690710
units angstrom
no_reorient
symmetry c1
}

set {
scf_type DF
mp2_type DF
e_convergence 7
reference rhf
}

energy('mp2/aug-cc-pv[tq]z', bsse_type='cp')
--------------------------------------------------------------------------

    Molecular point group: c1
  Charge       = 0
  Multiplicity = 1
  Basis Set: AUG-CC-PVTZ
    Blend: AUG-CC-PVTZ
  Basis Set: (AUG-CC-PVTZ AUX)
    Blend: AUG-CC-PVTZ-JKFIT
  @DF-RHF Final Energy:  -246.77862528040552
    Total Energy =                       -246.7786252804055493
  Basis Set: (AUG-CC-PVTZ AUX)
    Blend: AUG-CC-PVTZ-RI
	 Reference Energy          =    -246.7786252804055209 [Eh]
	 Singles Energy            =      -0.0000000000000000 [Eh]
	 Same-Spin Energy          =      -0.2688044876758376 [Eh]
	 Opposite-Spin Energy      =      -0.8388506238194906 [Eh]
	 Correlation Energy        =      -1.1076551114953284 [Eh]
	 Total Energy              =    -247.8862803919008400 [Eh]
	 SCS Total Energy          =    -247.8748475248808631 [Eh]
    Molecular point group: c1
  Basis Set: AUG-CC-PVQZ
    Blend: AUG-CC-PVQZ
  Basis Set: (AUG-CC-PVQZ AUX)
    Blend: AUG-CC-PVQZ-JKFIT
  @DF-RHF Final Energy:  -246.79276545527523
    Total Energy =                       -246.7927654552752301
  Basis Set: (AUG-CC-PVQZ AUX)
  @DF-RHF Final Energy:  -246.77874043855991
    Total Energy =                       -246.7787404385599075
  @DF-RHF Final Energy:  -246.79279823975850
    Total Energy =                       -246.7927982397584969
  @DF-RHF Final Energy:  -230.78151380492906
    Total Energy =                       -230.7815138049290340
  @DF-RHF Final Energy:  -230.79445179137645
    Total Energy =                       -230.7944517913764457
  @DF-RHF Final Energy:  -230.78121432884754
    Total Energy =                       -230.7812143288475113
  @DF-RHF Final Energy:  -230.79438730104954
    Total Energy =                       -230.7943873010495395
  Multiplicity = 1
  @DF-RHF Final Energy:  -477.55192046165024
    Total Energy =                       -477.5519204616501838
	 Singles Energy            =      -0.0000000000000000 [Eh]
	 Same-Spin Energy          =      -0.5314631848560202 [Eh]
	 Opposite-Spin Energy      =      -1.6697441005644968 [Eh]
	 Correlation Energy        =      -2.2012072854205171 [Eh]
	 Total Energy              =    -479.7531277470707778 [Eh]
	 SCS Total Energy          =    -479.7327677772796619 [Eh]
    Molecular point group: c1

    Geometry (in Angstrom), charge = 0, multiplicity = 1:

       Center              X                  Y                   Z               Mass
    ------------   -----------------  -----------------  -----------------  -----------------
         C            0.845253410999     1.020410493595    -2.107118882425    12.000000000000
         H            1.506582410999     1.865713493595    -1.973191882425     1.007825032230
         C            1.375685410999    -0.254963506405    -2.295412882425    12.000000000000
         H            2.447360410999    -0.398981506405    -2.303721882425     1.007825032230
         C            0.524244410999    -1.344552506405    -2.473381882425    12.000000000000
         H            0.935903410999    -2.333534506405    -2.621650882425     1.007825032230
         C           -0.857539589001    -1.158971506405    -2.460189882425    12.000000000000
         H           -1.518204589001    -2.003966506405    -2.598210882425     1.007825032230
         C           -1.387869589001     0.116125493595    -2.268960882425    12.000000000000
         H           -2.459541589001     0.259907493595    -2.256541882425     1.007825032230
         C           -0.536436589001     1.205913493595    -2.093834882425    12.000000000000
         H           -0.948747589001     2.195297493595    -1.949207882425     1.007825032230
         N            0.027767410999     0.386640493595     3.613114117575    14.003074004430
         C            0.182451410999     1.324601493595     2.668237117575    12.000000000000
         H            0.324221410999     2.337127493595     3.026139117575     1.007825032230
         C            0.168241410999     1.057312493595     1.301738117575    12.000000000000
         H            0.298481410999     1.858337493595     0.587853117575     1.007825032230
         C           -0.016096589001    -0.254317506405     0.876448117575    12.000000000000
         H           -0.032662589001    -0.497436506405    -0.176899882425     1.007825032230
         C           -0.177945589001    -1.239351506405     1.845307117575    12.000000000000
         H           -0.324488589001    -2.274562506405     1.570535117575     1.007825032230
         C           -0.148742589001    -0.872018506405     3.188396117575    12.000000000000
         H           -0.272339589001    -1.619532506405     3.962497117575     1.007825032230

  Charge       = 0
  Multiplicity = 1
  Basis Set: AUG-CC-PVQZ
    Blend: AUG-CC-PVQZ
  Basis Set: (AUG-CC-PVQZ AUX)
    Blend: AUG-CC-PVQZ-JKFIT

    Orbital Energies [Eh]
    ---------------------

    Doubly Occupied:

       1A    -15.554898     2A    -11.264981     3A    -11.264790
       4A    -11.246709     5A    -11.246128     6A    -11.246107
       7A    -11.244892     8A    -11.244866     9A    -11.244255
      10A    -11.242504    11A    -11.229609    12A    -11.228534
      13A     -1.246399    14A     -1.163851    15A     -1.077513
      16A     -1.027626    17A     -1.026807    18A     -1.022718
      19A     -0.848342    20A     -0.845599    21A     -0.835857
      22A     -0.835648    23A     -0.722471    24A     -0.712467
      25A     -0.655420    26A     -0.649833    27A     -0.644428
      28A     -0.630820    29A     -0.600362    30A     -0.599784
      31A     -0.588400    32A     -0.575832    33A     -0.531672
      34A     -0.509285    35A     -0.506567    36A     -0.506321
      37A     -0.500824    38A     -0.410410    39A     -0.376509
      40A     -0.350794    41A     -0.346988    42A     -0.338102

  @DF-RHF Final Energy:  -477.57891308532885

   => Energetics <=

    Nuclear Repulsion Energy =            610.2981866328387923
    One-Electron Energy =               -1855.8623409580636689
    Two-Electron Energy =                 767.9852412398961405
    Total Energy =                       -477.5789130853288498

  Dipole Moment: [D]
     X:    -0.0469      Y:    -0.5507      Z:    -3.0386     Total:     3.0884

  Basis Set: (AUG-CC-PVQZ AUX)
    Blend: AUG-CC-PVQZ-RI
	 Reference Energy          =    -477.5789130853288498 [Eh]
	 Singles Energy            =      -0.0000000000000000 [Eh]
	 Same-Spin Energy          =      -0.5610920672447552 [Eh]
	 Opposite-Spin Energy      =      -1.8694430426650652 [Eh]
	 Correlation Energy        =      -2.4305351099098207 [Eh]
	 Total Energy              =    -480.0094481952386900 [Eh]

	 ================> DF-SCS-MP2 Energies <==================
	-----------------------------------------------------------
	 SCS Same-Spin Scale       =       0.3333333333333333 [-]
	 SCS Opposite-Spin Scale   =       1.2000000000000000 [-]
	 SCS Same-Spin Energy      =      -0.1870306890815851 [Eh]
	 SCS Opposite-Spin Energy  =      -2.2433316511980781 [Eh]
	 SCS Correlation Energy    =      -2.4303623402796632 [Eh]
	 SCS Total Energy          =    -480.0092754256085072 [Eh]
	-----------------------------------------------------------

*** Psi4 exiting successfully. Buy a developer a beer!
