                               Psi4 1.4a2.dev224

  ==> Input File <==

--------------------------------------------------------------------------
#Generated by lconvert.py for cbs job

memory 20 GB

molecule  {
0 1
  C       0.845080    1.057920    0.699460
  H       1.506410    1.903220    0.833380
  C       1.375510   -0.217460    0.511160
  H       2.447180   -0.361470    0.502850
  C       0.524070   -1.307040    0.333190
  H       0.935730   -2.296030    0.184920
  C      -0.857720   -1.121460    0.346380
  H      -1.518380   -1.966460    0.208360
  C      -1.388050    0.153630    0.537610
  H      -2.459720    0.297420    0.550030
  C      -0.536610    1.243420    0.712740
  H      -0.948920    2.232810    0.857370
--
0 1
  N      -0.003550   -0.077850    8.889550
  C       0.151140    0.860110    7.944670
  H       0.292910    1.872640    8.302580
  C       0.136930    0.592820    6.578170
  H       0.267170    1.393850    5.864290
  C      -0.047410   -0.718810    6.152880
  H      -0.063980   -0.961930    5.099540
  C      -0.209260   -1.703840    7.121740
  H      -0.355800   -2.739050    6.846970
  C      -0.180060   -1.336510    8.464830
  H      -0.303650   -2.084020    9.238930
units angstrom
no_reorient
symmetry c1
}

set {
scf_type DF
mp2_type DF
e_convergence 7
reference rhf
}

energy('mp2/aug-cc-pv[tq]z', bsse_type='cp')
--------------------------------------------------------------------------

    Molecular point group: c1
  Charge       = 0
  Multiplicity = 1
  Basis Set: AUG-CC-PVTZ
    Blend: AUG-CC-PVTZ
  Basis Set: (AUG-CC-PVTZ AUX)
    Blend: AUG-CC-PVTZ-JKFIT
  @DF-RHF Final Energy:  -246.77862517371628
    Total Energy =                       -246.7786251737163070
  Basis Set: (AUG-CC-PVTZ AUX)
    Blend: AUG-CC-PVTZ-RI
	 Reference Energy          =    -246.7786251737162786 [Eh]
	 Singles Energy            =      -0.0000000000000000 [Eh]
	 Same-Spin Energy          =      -0.2688045132689042 [Eh]
	 Opposite-Spin Energy      =      -0.8388506962787308 [Eh]
	 Correlation Energy        =      -1.1076552095476351 [Eh]
	 Total Energy              =    -247.8862803832639088 [Eh]
	 SCS Total Energy          =    -247.8748475136737284 [Eh]
    Molecular point group: c1
  Basis Set: AUG-CC-PVQZ
    Blend: AUG-CC-PVQZ
  Basis Set: (AUG-CC-PVQZ AUX)
    Blend: AUG-CC-PVQZ-JKFIT
  @DF-RHF Final Energy:  -246.79276534517786
    Total Energy =                       -246.7927653451778269
  Basis Set: (AUG-CC-PVQZ AUX)
  @DF-RHF Final Energy:  -246.77863947068971
    Total Energy =                       -246.7786394706897113
  @DF-RHF Final Energy:  -246.79277047930236
    Total Energy =                       -246.7927704793023622
  @DF-RHF Final Energy:  -230.78125579981830
    Total Energy =                       -230.7812557998183252
  @DF-RHF Final Energy:  -230.79439818848903
    Total Energy =                       -230.7943981884890263
  @DF-RHF Final Energy:  -230.78121419335446
    Total Energy =                       -230.7812141933544581
  @DF-RHF Final Energy:  -230.79438716721864
    Total Energy =                       -230.7943871672186447
  Multiplicity = 1
  @DF-RHF Final Energy:  -477.56047540076048
    Total Energy =                       -477.5604754007604242
	 Singles Energy            =      -0.0000000000000000 [Eh]
	 Same-Spin Energy          =      -0.5245203102354302 [Eh]
	 Opposite-Spin Energy      =      -1.6578998035865484 [Eh]
	 Correlation Energy        =      -2.1824201138219785 [Eh]
	 Total Energy              =    -479.7428955145824716 [Eh]
	 SCS Total Energy          =    -479.7247952684761572 [Eh]
    Molecular point group: c1

    Geometry (in Angstrom), charge = 0, multiplicity = 1:

       Center              X                  Y                   Z               Mass
    ------------   -----------------  -----------------  -----------------  -----------------
         C            0.860923832280     1.273001675710    -3.349867331002    12.000000000000
         H            1.522253832280     2.118301675710    -3.215947331002     1.007825032230
         C            1.391353832280    -0.002378324290    -3.538167331002    12.000000000000
         H            2.463023832280    -0.146388324290    -3.546477331002     1.007825032230
         C            0.539913832280    -1.091958324290    -3.716137331002    12.000000000000
         H            0.951573832280    -2.080948324290    -3.864407331002     1.007825032230
         C           -0.841876167720    -0.906378324290    -3.702947331002    12.000000000000
         H           -1.502536167720    -1.751378324290    -3.840967331002     1.007825032230
         C           -1.372206167720     0.368711675710    -3.511717331002    12.000000000000
         H           -2.443876167720     0.512501675710    -3.499297331002     1.007825032230
         C           -0.520766167720     1.458501675710    -3.336587331002    12.000000000000
         H           -0.933076167720     2.447891675710    -3.191957331002     1.007825032230
         N            0.012293832280     0.137231675710     4.840222668998    14.003074004430
         C            0.166983832280     1.075191675710     3.895342668998    12.000000000000
         H            0.308753832280     2.087721675710     4.253252668998     1.007825032230
         C            0.152773832280     0.807901675710     2.528842668998    12.000000000000
         H            0.283013832280     1.608931675710     1.814962668998     1.007825032230
         C           -0.031566167720    -0.503728324290     2.103552668998    12.000000000000
         H           -0.048136167720    -0.746848324290     1.050212668998     1.007825032230
         C           -0.193416167720    -1.488758324290     3.072412668998    12.000000000000
         H           -0.339956167720    -2.523968324290     2.797642668998     1.007825032230
         C           -0.164216167720    -1.121428324290     4.415502668998    12.000000000000
         H           -0.287806167720    -1.868938324290     5.189602668998     1.007825032230

  Charge       = 0
  Multiplicity = 1
  Basis Set: AUG-CC-PVQZ
    Blend: AUG-CC-PVQZ
  Basis Set: (AUG-CC-PVQZ AUX)
    Blend: AUG-CC-PVQZ-JKFIT

    Orbital Energies [Eh]
    ---------------------

    Doubly Occupied:

       1A    -15.562752     2A    -11.271810     3A    -11.271759
       4A    -11.256075     5A    -11.240194     6A    -11.239648
       7A    -11.239585     8A    -11.238605     9A    -11.238405
      10A    -11.238340    11A    -11.238240    12A    -11.237762
      13A     -1.253849    14A     -1.154860    15A     -1.086856
      16A     -1.030655    17A     -1.019372    18A     -1.019333
      19A     -0.856508    20A     -0.853162    21A     -0.828898
      22A     -0.828791    23A     -0.719331    24A     -0.714506
      25A     -0.657994    26A     -0.651532    27A     -0.649020
      28A     -0.623974    29A     -0.595511    30A     -0.592952
      31A     -0.592944    32A     -0.574828    33A     -0.538909
      34A     -0.516940    35A     -0.507511    36A     -0.499866
      37A     -0.499774    38A     -0.417837    39A     -0.381399
      40A     -0.345447    41A     -0.341953    42A     -0.341869

  @DF-RHF Final Energy:  -477.58774382600564

   => Energetics <=

    Nuclear Repulsion Energy =            541.6128492689795166
    One-Electron Energy =               -1718.4620493770344183
    Two-Electron Energy =                 699.2614562820492665
    Total Energy =                       -477.5877438260056351

  Dipole Moment: [D]
     X:    -0.0387      Y:    -0.5206      Z:    -2.4715     Total:     2.5260

  Basis Set: (AUG-CC-PVQZ AUX)
    Blend: AUG-CC-PVQZ-RI
	 Reference Energy          =    -477.5877438260056351 [Eh]
	 Singles Energy            =      -0.0000000000000000 [Eh]
	 Same-Spin Energy          =      -0.5544209943624723 [Eh]
	 Opposite-Spin Energy      =      -1.8610083812409728 [Eh]
	 Correlation Energy        =      -2.4154293756034448 [Eh]
	 Total Energy              =    -480.0031732016090587 [Eh]

	 ================> DF-SCS-MP2 Energies <==================
	-----------------------------------------------------------
	 SCS Same-Spin Scale       =       0.3333333333333333 [-]
	 SCS Opposite-Spin Scale   =       1.2000000000000000 [-]
	 SCS Same-Spin Energy      =      -0.1848069981208241 [Eh]
	 SCS Opposite-Spin Energy  =      -2.2332100574891673 [Eh]
	 SCS Correlation Energy    =      -2.4180170556099916 [Eh]
	 SCS Total Energy          =    -480.0057608816156289 [Eh]
	-----------------------------------------------------------

*** Psi4 exiting successfully. Buy a developer a beer!
