                               Psi4 1.4a2.dev224

  ==> Input File <==

--------------------------------------------------------------------------
#Generated by lconvert.py for cbs job

memory 40 GB

molecule  {
0 1
  C        0.8450770     1.0579190     0.6994550
  H        1.5064060     1.9032220     0.8333820
  C        1.3755090    -0.2174550     0.5111610
  H        2.4471840    -0.3614730     0.5028520
  C        0.5240680    -1.3070440     0.3331920
  H        0.9357270    -2.2960260     0.1849230
  C       -0.8577160    -1.1214630     0.3463840
  H       -1.5183810    -1.9664580     0.2083630
  C       -1.3880460     0.1536340     0.5376130
  H       -2.4597180     0.2974160     0.5500320
  C       -0.5366130     1.2434220     0.7127390
  H       -0.9489240     2.2328060     0.8573660
--
0 1
  N        0.0215650     0.3269950     6.8976900
  C        0.1762490     1.2649570     5.9528130
  H        0.3180200     2.2774830     6.3107150
  C        0.1620390     0.9976670     4.5863140
  H        0.2922790     1.7986930     3.8724280
  C       -0.0222990    -0.3139620     4.1610230
  H       -0.0388650    -0.5570810     3.1076750
  C       -0.1841480    -1.2989970     5.1298820
  H       -0.3306910    -2.3342080     4.8551110
  C       -0.1549450    -0.9316640     6.4729720
  H       -0.2785410    -1.6791780     7.2470730
units angstrom
no_reorient
symmetry c1
}

set {
scf_type DF
mp2_type DF
e_convergence 7
reference rhf
}

energy('mp2/aug-cc-pv[tq]z', bsse_type='cp')
--------------------------------------------------------------------------

    Molecular point group: c1
  Charge       = 0
  Multiplicity = 1
  Basis Set: AUG-CC-PVTZ
    Blend: AUG-CC-PVTZ
  Basis Set: (AUG-CC-PVTZ AUX)
    Blend: AUG-CC-PVTZ-JKFIT
  @DF-RHF Final Energy:  -246.77862520085407
    Total Energy =                       -246.7786252008540373
  Basis Set: (AUG-CC-PVTZ AUX)
    Blend: AUG-CC-PVTZ-RI
	 Reference Energy          =    -246.7786252008540657 [Eh]
	 Singles Energy            =      -0.0000000000000000 [Eh]
	 Same-Spin Energy          =      -0.2688044983333762 [Eh]
	 Opposite-Spin Energy      =      -0.8388506689163444 [Eh]
	 Correlation Energy        =      -1.1076551672497206 [Eh]
	 Total Energy              =    -247.8862803681037974 [Eh]
	 SCS Total Energy          =    -247.8748475029981364 [Eh]
    Molecular point group: c1
  Basis Set: AUG-CC-PVQZ
    Blend: AUG-CC-PVQZ
  Basis Set: (AUG-CC-PVQZ AUX)
    Blend: AUG-CC-PVQZ-JKFIT
  @DF-RHF Final Energy:  -246.79276537571550
    Total Energy =                       -246.7927653757154758
  Basis Set: (AUG-CC-PVQZ AUX)
  @DF-RHF Final Energy:  -246.77869916205114
    Total Energy =                       -246.7786991620511117
  @DF-RHF Final Energy:  -246.79278730038843
    Total Energy =                       -246.7927873003884542
  @DF-RHF Final Energy:  -230.78142741936409
    Total Energy =                       -230.7814274193640927
  @DF-RHF Final Energy:  -230.79443403514404
    Total Energy =                       -230.7944340351440360
  @DF-RHF Final Energy:  -230.78121433015377
    Total Energy =                       -230.7812143301537731
  @DF-RHF Final Energy:  -230.79438730473882
    Total Energy =                       -230.7943873047387910
  Multiplicity = 1
  @DF-RHF Final Energy:  -477.55966011560031
    Total Energy =                       -477.5596601156003089
	 Singles Energy            =      -0.0000000000000000 [Eh]
	 Same-Spin Energy          =      -0.5279052560949649 [Eh]
	 Opposite-Spin Energy      =      -1.6642714304128872 [Eh]
	 Correlation Energy        =      -2.1921766865078522 [Eh]
	 Total Energy              =    -479.7518368021081869 [Eh]
	 SCS Total Energy          =    -479.7327542507940734 [Eh]
    Molecular point group: c1

    Geometry (in Angstrom), charge = 0, multiplicity = 1:

       Center              X                  Y                   Z               Mass
    ------------   -----------------  -----------------  -----------------  -----------------
         C            0.848285487234     1.069295084450    -2.347633923878    12.000000000000
         H            1.509614487234     1.914598084450    -2.213706923878     1.007825032230
         C            1.378717487234    -0.206078915550    -2.535927923878    12.000000000000
         H            2.450392487234    -0.350096915550    -2.544236923878     1.007825032230
         C            0.527276487234    -1.295667915550    -2.713896923878    12.000000000000
         H            0.938935487234    -2.284649915550    -2.862165923878     1.007825032230
         C           -0.854507512766    -1.110086915550    -2.700704923878    12.000000000000
         H           -1.515172512766    -1.955081915550    -2.838725923878     1.007825032230
         C           -1.384837512766     0.165010084450    -2.509475923878    12.000000000000
         H           -2.456509512766     0.308792084450    -2.497056923878     1.007825032230
         C           -0.533404512766     1.254798084450    -2.334349923878    12.000000000000
         H           -0.945715512766     2.244182084450    -2.189722923878     1.007825032230
         N            0.024773487234     0.338371084450     3.850601076122    14.003074004430
         C            0.179457487234     1.276333084450     2.905724076122    12.000000000000
         H            0.321228487234     2.288859084450     3.263626076122     1.007825032230
         C            0.165247487234     1.009043084450     1.539225076122    12.000000000000
         H            0.295487487234     1.810069084450     0.825339076122     1.007825032230
         C           -0.019090512766    -0.302585915550     1.113934076122    12.000000000000
         H           -0.035656512766    -0.545704915550     0.060586076122     1.007825032230
         C           -0.180939512766    -1.287620915550     2.082793076122    12.000000000000
         H           -0.327482512766    -2.322831915550     1.808022076122     1.007825032230
         C           -0.151736512766    -0.920287915550     3.425883076122    12.000000000000
         H           -0.275332512766    -1.667801915550     4.199984076122     1.007825032230

  Charge       = 0
  Multiplicity = 1
  Basis Set: AUG-CC-PVQZ
    Blend: AUG-CC-PVQZ
  Basis Set: (AUG-CC-PVQZ AUX)
    Blend: AUG-CC-PVQZ-JKFIT

    Orbital Energies [Eh]
    ---------------------

    Doubly Occupied:

       1A    -15.557850     2A    -11.267326     3A    -11.267190
       4A    -11.248113     5A    -11.245001     6A    -11.244470
       7A    -11.244372     8A    -11.243227     9A    -11.243124
      10A    -11.242562    11A    -11.233006    12A    -11.232246
      13A     -1.249084    14A     -1.160489    15A     -1.080805
      16A     -1.025881    17A     -1.024535    18A     -1.024441
      19A     -0.850836    20A     -0.848078    21A     -0.833786
      22A     -0.833657    23A     -0.719498    24A     -0.714097
      25A     -0.653546    26A     -0.652634    27A     -0.646617
      28A     -0.628905    29A     -0.597978    30A     -0.597659
      31A     -0.590769    32A     -0.571009    33A     -0.534166
      34A     -0.512089    35A     -0.509336    36A     -0.504563
      37A     -0.504443    38A     -0.413073    39A     -0.376435
      40A     -0.348016    41A     -0.346858    42A     -0.340692

  @DF-RHF Final Energy:  -477.58675474084157

   => Energetics <=

    Nuclear Repulsion Energy =            592.1816861477531120
    One-Electron Energy =               -1819.6119555534796746
    Two-Electron Energy =                 749.8435146648848786
    Total Energy =                       -477.5867547408415703

  Dipole Moment: [D]
     X:    -0.0450      Y:    -0.5369      Z:    -2.8647     Total:     2.9149

  Basis Set: (AUG-CC-PVQZ AUX)
    Blend: AUG-CC-PVQZ-RI
	 Reference Energy          =    -477.5867547408415703 [Eh]
	 Singles Energy            =      -0.0000000000000000 [Eh]
	 Same-Spin Energy          =      -0.5576280723050051 [Eh]
	 Opposite-Spin Energy      =      -1.8650604932860007 [Eh]
	 Correlation Energy        =      -2.4226885655910060 [Eh]
	 Total Energy              =    -480.0094433064325585 [Eh]

	 ================> DF-SCS-MP2 Energies <==================
	-----------------------------------------------------------
	 SCS Same-Spin Scale       =       0.3333333333333333 [-]
	 SCS Opposite-Spin Scale   =       1.2000000000000000 [-]
	 SCS Same-Spin Energy      =      -0.1858760241016684 [Eh]
	 SCS Opposite-Spin Energy  =      -2.2380725919432005 [Eh]
	 SCS Correlation Energy    =      -2.4239486160448687 [Eh]
	 SCS Total Energy          =    -480.0107033568864381 [Eh]
	-----------------------------------------------------------

*** Psi4 exiting successfully. Buy a developer a beer!
