                               Psi4 1.4a2.dev224

  ==> Input File <==

--------------------------------------------------------------------------
#Generated by lconvert.py for cbs job

memory 40 GB

molecule  {
0 1
  C        0.8450770     1.0579190     0.6994550
  H        1.5064060     1.9032220     0.8333820
  C        1.3755090    -0.2174550     0.5111610
  H        2.4471840    -0.3614730     0.5028520
  C        0.5240680    -1.3070440     0.3331920
  H        0.9357270    -2.2960260     0.1849230
  C       -0.8577160    -1.1214630     0.3463840
  H       -1.5183810    -1.9664580     0.2083630
  C       -1.3880460     0.1536340     0.5376130
  H       -2.4597180     0.2974160     0.5500320
  C       -0.5366130     1.2434220     0.7127390
  H       -0.9489240     2.2328060     0.8573660
--
0 1
  N        0.0364880     0.5675940     5.7139290
  C        0.1911720     1.5055550     4.7690520
  H        0.3329430     2.5180810     5.1269540
  C        0.1769620     1.2382650     3.4025520
  H        0.3072030     2.0392910     2.6886670
  C       -0.0073760    -0.0733640     2.9772620
  H       -0.0239420    -0.3164830     1.9239140
  C       -0.1692250    -1.0583990     3.9461210
  H       -0.3157680    -2.0936090     3.6713500
  C       -0.1400220    -0.6910650     5.2892110
  H       -0.2636180    -1.4385790     6.0633120
units angstrom
no_reorient
symmetry c1
}

set {
scf_type DF
mp2_type DF
e_convergence 7
reference rhf
}

energy('mp2/aug-cc-pv[tq]z', bsse_type='cp')
--------------------------------------------------------------------------

    Molecular point group: c1
  Charge       = 0
  Multiplicity = 1
  Basis Set: AUG-CC-PVTZ
    Blend: AUG-CC-PVTZ
  Basis Set: (AUG-CC-PVTZ AUX)
    Blend: AUG-CC-PVTZ-JKFIT
  @DF-RHF Final Energy:  -246.77862523833778
    Total Energy =                       -246.7786252383377814
  Basis Set: (AUG-CC-PVTZ AUX)
    Blend: AUG-CC-PVTZ-RI
	 Reference Energy          =    -246.7786252383377814 [Eh]
	 Singles Energy            =      -0.0000000000000000 [Eh]
	 Same-Spin Energy          =      -0.2688044889638483 [Eh]
	 Opposite-Spin Energy      =      -0.8388506461510864 [Eh]
	 Correlation Energy        =      -1.1076551351149346 [Eh]
	 Total Energy              =    -247.8862803734527063 [Eh]
	 SCS Total Energy          =    -247.8748475100403539 [Eh]
    Molecular point group: c1
  Basis Set: AUG-CC-PVQZ
    Blend: AUG-CC-PVQZ
  Basis Set: (AUG-CC-PVQZ AUX)
    Blend: AUG-CC-PVQZ-JKFIT
  @DF-RHF Final Energy:  -246.79276540842216
    Total Energy =                       -246.7927654084221558
  Basis Set: (AUG-CC-PVQZ AUX)
  @DF-RHF Final Energy:  -246.77887788985811
    Total Energy =                       -246.7788778898581086
  @DF-RHF Final Energy:  -246.79282394142615
    Total Energy =                       -246.7928239414261498
  @DF-RHF Final Energy:  -230.78167270791454
    Total Energy =                       -230.7816727079145380
  @DF-RHF Final Energy:  -230.79447838230041
    Total Energy =                       -230.7944783823004400
  @DF-RHF Final Energy:  -230.78121432689287
    Total Energy =                       -230.7812143268928935
  @DF-RHF Final Energy:  -230.79438730190245
    Total Energy =                       -230.7943873019024181
  @DF-RHF Final Energy:  -477.48234750908716
    Total Energy =                       -477.4823475090871625
  @DF-RHF Final Energy:  -477.50911830049210
    Total Energy =                       -477.5091183004921049
*** Psi4 exiting successfully. Buy a developer a beer!
                               Psi4 1.4a2.dev224
  @DF-RHF Final Energy:  -246.77862519869947
    Total Energy =                       -246.7786251986994444
  @DF-RHF Final Energy:  -246.79276536574838
    Total Energy =                       -246.7927653657483802
  @DF-RHF Final Energy:  -246.77879319255004
    Total Energy =                       -246.7787931925500402
  @DF-RHF Final Energy:  -246.79280902409459
    Total Energy =                       -246.7928090240945949
  @DF-RHF Final Energy:  -230.78157892464742
    Total Energy =                       -230.7815789246474196
  @DF-RHF Final Energy:  -230.79446484516927
    Total Energy =                       -230.7944648451692728
  @DF-RHF Final Energy:  -230.78121432894801
    Total Energy =                       -230.7812143289480105
  @DF-RHF Final Energy:  -230.79438730204595
    Total Energy =                       -230.7943873020459478
  @DF-RHF Final Energy:  -477.53383804500584
    Total Energy =                       -477.5338380450058366
  @DF-RHF Final Energy:  -477.56073091153200
    Total Energy =                       -477.5607309115320049
*** Psi4 exiting successfully. Buy a developer a beer!
                               Psi4 1.4a2.dev224
                               Psi4 1.4a2.dev224
                               Psi4 1.4a2.dev224
                               Psi4 1.4a2.dev224
                               Psi4 1.4a2.dev224
                               Psi4 1.4a2.dev224
                               Psi4 1.4a2.dev224
  @DF-RHF Final Energy:  -246.77862517371628
    Total Energy =                       -246.7786251737163070
  @DF-RHF Final Energy:  -246.79276534517786
    Total Energy =                       -246.7927653451778269
  @DF-RHF Final Energy:  -246.77863947068971
    Total Energy =                       -246.7786394706897113
  @DF-RHF Final Energy:  -246.79277047930236
    Total Energy =                       -246.7927704793023622
  @DF-RHF Final Energy:  -230.78125579981830
    Total Energy =                       -230.7812557998183252
  @DF-RHF Final Energy:  -230.79439818848903
    Total Energy =                       -230.7943981884890263
  @DF-RHF Final Energy:  -230.78121419335446
    Total Energy =                       -230.7812141933544581
  @DF-RHF Final Energy:  -230.79438716721864
    Total Energy =                       -230.7943871672186447
  @DF-RHF Final Energy:  -477.56047540076048
    Total Energy =                       -477.5604754007604242
  @DF-RHF Final Energy:  -477.58774382600564
    Total Energy =                       -477.5877438260056351
*** Psi4 exiting successfully. Buy a developer a beer!
                               Psi4 1.4a2.dev224
  @DF-RHF Final Energy:  -246.77862539998844
    Total Energy =                       -246.7786253999884138
  @DF-RHF Final Energy:  -246.79276558116322
    Total Energy =                       -246.7927655811632235
  @DF-RHF Final Energy:  -246.77863100002361
    Total Energy =                       -246.7786310000236085
  @DF-RHF Final Energy:  -246.79276794806214
    Total Energy =                       -246.7927679480621350
  @DF-RHF Final Energy:  -230.78123459104378
    Total Energy =                       -230.7812345910438125
  @DF-RHF Final Energy:  -230.79439339705766
    Total Energy =                       -230.7943933970576609
  @DF-RHF Final Energy:  -230.78121419421251
    Total Energy =                       -230.7812141942125095
  @DF-RHF Final Energy:  -230.79438716605330
    Total Energy =                       -230.7943871660532977
  Multiplicity = 1
  @DF-RHF Final Energy:  -477.56018303185965
    Total Energy =                       -477.5601830318596512
	 Singles Energy            =      -0.0000000000000000 [Eh]
	 Same-Spin Energy          =      -0.5243035118397150 [Eh]
	 Opposite-Spin Energy      =      -1.6574831869229065 [Eh]
	 Correlation Energy        =      -2.1817866987626218 [Eh]
	 Total Energy              =    -479.7419697306222588 [Eh]
	 SCS Total Energy          =    -479.7239306934470164 [Eh]
    Molecular point group: c1

    Geometry (in Angstrom), charge = 0, multiplicity = 1:

       Center              X                  Y                   Z               Mass
    ------------   -----------------  -----------------  -----------------  -----------------
         C            0.867916145014     1.385756544416    -3.904621403958    12.000000000000
         H            1.529246145014     2.231056544416    -3.770701403958     1.007825032230
         C            1.398346145014     0.110376544416    -4.092921403958    12.000000000000
         H            2.470016145014    -0.033633455584    -4.101231403958     1.007825032230
         C            0.546906145014    -0.979203455584    -4.270891403958    12.000000000000
         H            0.958566145014    -1.968193455584    -4.419161403958     1.007825032230
         C           -0.834883854986    -0.793623455584    -4.257701403958    12.000000000000
         H           -1.495543854986    -1.638623455584    -4.395721403958     1.007825032230
         C           -1.365213854986     0.481466544416    -4.066471403958    12.000000000000
         H           -2.436883854986     0.625256544416    -4.054051403958     1.007825032230
         C           -0.513773854986     1.571256544416    -3.891341403958    12.000000000000
         H           -0.926083854986     2.560646544416    -3.746711403958     1.007825032230
         N            0.005396145014     0.025896544416     5.387988596042    14.003074004430
         C            0.160076145014     0.963856544416     4.443118596042    12.000000000000
         H            0.301846145014     1.976386544416     4.801018596042     1.007825032230
         C            0.145866145014     0.696566544416     3.076618596042    12.000000000000
         H            0.276106145014     1.497596544416     2.362728596042     1.007825032230
         C           -0.038473854986    -0.615063455584     2.651318596042    12.000000000000
         H           -0.055033854986    -0.858183455584     1.597978596042     1.007825032230
         C           -0.200323854986    -1.600093455584     3.620178596042    12.000000000000
         H           -0.346863854986    -2.635303455584     3.345408596042     1.007825032230
         C           -0.171113854986    -1.232763455584     4.963268596042    12.000000000000
         H           -0.294713854986    -1.980273455584     5.737368596042     1.007825032230

  Charge       = 0
  Multiplicity = 1
  Basis Set: AUG-CC-PVQZ
    Blend: AUG-CC-PVQZ
  Basis Set: (AUG-CC-PVQZ AUX)
    Blend: AUG-CC-PVQZ-JKFIT

    Orbital Energies [Eh]
    ---------------------

    Doubly Occupied:

       1A    -15.563708     2A    -11.272738     3A    -11.272706
       4A    -11.257470     5A    -11.239684     6A    -11.239404
       7A    -11.238902     8A    -11.238347     9A    -11.238302
      10A    -11.237105    11A    -11.237057    12A    -11.236471
      13A     -1.254807    14A     -1.153513    15A     -1.088040
      16A     -1.031655    17A     -1.018074    18A     -1.018001
      19A     -0.857663    20A     -0.854198    21A     -0.827614
      22A     -0.827515    23A     -0.720480    24A     -0.713237
      25A     -0.659067    26A     -0.652583    27A     -0.647798
      28A     -0.622675    29A     -0.596500    30A     -0.591712
      31A     -0.591660    32A     -0.576225    33A     -0.539880
      34A     -0.517968    35A     -0.506100    36A     -0.498632
      37A     -0.498508    38A     -0.418787    39A     -0.382549
      40A     -0.346395    41A     -0.340542    42A     -0.340531

  @DF-RHF Final Energy:  -477.58747670524434

   => Energetics <=

    Nuclear Repulsion Energy =            523.8836536453499093
    One-Electron Energy =               -1683.0126332044433184
    Two-Electron Energy =                 681.5415028538490105
    Total Energy =                       -477.5874767052442849

  Dipole Moment: [D]
     X:    -0.0375      Y:    -0.5211      Z:    -2.3921     Total:     2.4485

  Basis Set: (AUG-CC-PVQZ AUX)
    Blend: AUG-CC-PVQZ-RI
	 Reference Energy          =    -477.5874767052443417 [Eh]
	 Singles Energy            =      -0.0000000000000000 [Eh]
	 Same-Spin Energy          =      -0.5542235036798742 [Eh]
	 Opposite-Spin Energy      =      -1.8607389142592483 [Eh]
	 Correlation Energy        =      -2.4149624179391225 [Eh]
	 Total Energy              =    -480.0024391231834784 [Eh]

	 ================> DF-SCS-MP2 Energies <==================
	-----------------------------------------------------------
	 SCS Same-Spin Scale       =       0.3333333333333333 [-]
	 SCS Opposite-Spin Scale   =       1.2000000000000000 [-]
	 SCS Same-Spin Energy      =      -0.1847411678932914 [Eh]
	 SCS Opposite-Spin Energy  =      -2.2328866971110979 [Eh]
	 SCS Correlation Energy    =      -2.4176278650043894 [Eh]
	 SCS Total Energy          =    -480.0051045702487045 [Eh]
	-----------------------------------------------------------

*** Psi4 exiting successfully. Buy a developer a beer!
