                               Psi4 1.4a2.dev224

  ==> Input File <==

--------------------------------------------------------------------------
#Generated by lconvert.py for cbs job

memory 40 GB

molecule  {
0 1
  C        0.8450770     1.0579190     0.6994550
  H        1.5064060     1.9032220     0.8333820
  C        1.3755090    -0.2174550     0.5111610
  H        2.4471840    -0.3614730     0.5028520
  C        0.5240680    -1.3070440     0.3331920
  H        0.9357270    -2.2960260     0.1849230
  C       -0.8577160    -1.1214630     0.3463840
  H       -1.5183810    -1.9664580     0.2083630
  C       -1.3880460     0.1536340     0.5376130
  H       -2.4597180     0.2974160     0.5500320
  C       -0.5366130     1.2434220     0.7127390
  H       -0.9489240     2.2328060     0.8573660
--
0 1
  N        0.0235390     0.3588230     6.7410950
  C        0.1782230     1.2967850     5.7962180
  H        0.3199940     2.3093110     6.1541200
  C        0.1640140     1.0294950     4.4297190
  H        0.2942540     1.8305210     3.7158330
  C       -0.0203250    -0.2821350     4.0044280
  H       -0.0368910    -0.5252530     2.9510810
  C       -0.1821740    -1.2671690     4.9732880
  H       -0.3287170    -2.3023800     4.6985160
  C       -0.1529710    -0.8998360     6.3163770
  H       -0.2765670    -1.6473500     7.0904780
units angstrom
no_reorient
symmetry c1
}

set {
scf_type DF
mp2_type DF
e_convergence 7
reference rhf
}

energy('mp2/aug-cc-pv[tq]z', bsse_type='cp')
--------------------------------------------------------------------------

    Molecular point group: c1
  Charge       = 0
  Multiplicity = 1
  Basis Set: AUG-CC-PVTZ
    Blend: AUG-CC-PVTZ
  Basis Set: (AUG-CC-PVTZ AUX)
    Blend: AUG-CC-PVTZ-JKFIT
  @DF-RHF Final Energy:  -246.77862520772175
    Total Energy =                       -246.7786252077217455
  Basis Set: (AUG-CC-PVTZ AUX)
    Blend: AUG-CC-PVTZ-RI
	 Reference Energy          =    -246.7786252077217455 [Eh]
	 Singles Energy            =      -0.0000000000000000 [Eh]
	 Same-Spin Energy          =      -0.2688044971918360 [Eh]
	 Opposite-Spin Energy      =      -0.8388506653544386 [Eh]
	 Correlation Energy        =      -1.1076551625462747 [Eh]
	 Total Energy              =    -247.8862803702680253 [Eh]
	 SCS Total Energy          =    -247.8748475052110223 [Eh]
    Molecular point group: c1
  Basis Set: AUG-CC-PVQZ
    Blend: AUG-CC-PVQZ
  Basis Set: (AUG-CC-PVQZ AUX)
    Blend: AUG-CC-PVQZ-JKFIT
  @DF-RHF Final Energy:  -246.79276538144694
    Total Energy =                       -246.7927653814469409
  Basis Set: (AUG-CC-PVQZ AUX)
  @DF-RHF Final Energy:  -246.77870935518092
    Total Energy =                       -246.7787093551809221
  @DF-RHF Final Energy:  -246.79279031092142
    Total Energy =                       -246.7927903109214185
  @DF-RHF Final Energy:  -230.78145296847356
    Total Energy =                       -230.7814529684735589
  @DF-RHF Final Energy:  -230.79443940397107
    Total Energy =                       -230.7944394039710687
  @DF-RHF Final Energy:  -230.78121432701309
    Total Energy =                       -230.7812143270131173
  @DF-RHF Final Energy:  -230.79438730323929
    Total Energy =                       -230.7943873032393185
  Multiplicity = 1
  @DF-RHF Final Energy:  -477.55829474226852
    Total Energy =                       -477.5582947422684583
	 Singles Energy            =      -0.0000000000000000 [Eh]
	 Same-Spin Energy          =      -0.5288100642052934 [Eh]
	 Opposite-Spin Energy      =      -1.6657146833098702 [Eh]
	 Correlation Energy        =      -2.1945247475151635 [Eh]
	 Total Energy              =    -479.7528194897836897 [Eh]
	 SCS Total Energy          =    -479.7334223836421074 [Eh]
    Molecular point group: c1

    Geometry (in Angstrom), charge = 0, multiplicity = 1:

       Center              X                  Y                   Z               Mass
    ------------   -----------------  -----------------  -----------------  -----------------
         C            0.847292151223     1.053280336612    -2.268840447556    12.000000000000
         H            1.508621151223     1.898583336612    -2.134913447556     1.007825032230
         C            1.377724151223    -0.222093663388    -2.457134447556    12.000000000000
         H            2.449399151223    -0.366111663388    -2.465443447556     1.007825032230
         C            0.526283151223    -1.311682663388    -2.635103447556    12.000000000000
         H            0.937942151223    -2.300664663388    -2.783372447556     1.007825032230
         C           -0.855500848777    -1.126101663388    -2.621911447556    12.000000000000
         H           -1.516165848777    -1.971096663388    -2.759932447556     1.007825032230
         C           -1.385830848777     0.148995336612    -2.430682447556    12.000000000000
         H           -2.457502848777     0.292777336612    -2.418263447556     1.007825032230
         C           -0.534397848777     1.238783336612    -2.255556447556    12.000000000000
         H           -0.946708848777     2.228167336612    -2.110929447556     1.007825032230
         N            0.025754151223     0.354184336612     3.772799552444    14.003074004430
         C            0.180438151223     1.292146336612     2.827922552444    12.000000000000
         H            0.322209151223     2.304672336612     3.185824552444     1.007825032230
         C            0.166229151223     1.024856336612     1.461423552444    12.000000000000
         H            0.296469151223     1.825882336612     0.747537552444     1.007825032230
         C           -0.018109848777    -0.286773663388     1.036132552444    12.000000000000
         H           -0.034675848777    -0.529891663388    -0.017214447556     1.007825032230
         C           -0.179958848777    -1.271807663388     2.004992552444    12.000000000000
         H           -0.326501848777    -2.307018663388     1.730220552444     1.007825032230
         C           -0.150755848777    -0.904474663388     3.348081552444    12.000000000000
         H           -0.274351848777    -1.651988663388     4.122182552444     1.007825032230

  Charge       = 0
  Multiplicity = 1
  Basis Set: AUG-CC-PVQZ
    Blend: AUG-CC-PVQZ
  Basis Set: (AUG-CC-PVQZ AUX)
    Blend: AUG-CC-PVQZ-JKFIT

    Orbital Energies [Eh]
    ---------------------

    Doubly Occupied:

       1A    -15.557028     2A    -11.266639     3A    -11.266490
       4A    -11.246614     5A    -11.245546     6A    -11.245006
       7A    -11.244923     8A    -11.243764     9A    -11.243676
      10A    -11.243106    11A    -11.232062    12A    -11.231222
      13A     -1.248318    14A     -1.161366    15A     -1.079850
      16A     -1.025837    17A     -1.025122    18A     -1.024547
      19A     -0.850044    20A     -0.847317    21A     -0.834404
      22A     -0.834271    23A     -0.720249    24A     -0.713516
      25A     -0.654108    26A     -0.651806    27A     -0.645935
      28A     -0.629502    29A     -0.598659    30A     -0.598274
      31A     -0.590063    32A     -0.571847    33A     -0.533436
      34A     -0.511301    35A     -0.507777    36A     -0.505163
      37A     -0.504991    38A     -0.412314    39A     -0.376108
      40A     -0.348863    41A     -0.347192    42A     -0.339949

  @DF-RHF Final Energy:  -477.58536200794072

   => Energetics <=

    Nuclear Repulsion Energy =            597.7663356625535016
    One-Electron Energy =               -1830.7869789480378131
    Two-Electron Energy =                 755.4352812775435950
    Total Energy =                       -477.5853620079407165

  Dipole Moment: [D]
     X:    -0.0457      Y:    -0.5408      Z:    -2.9182     Total:     2.9682

  Basis Set: (AUG-CC-PVQZ AUX)
    Blend: AUG-CC-PVQZ-RI
	 Reference Energy          =    -477.5853620079407165 [Eh]
	 Singles Energy            =      -0.0000000000000000 [Eh]
	 Same-Spin Energy          =      -0.5585045102493951 [Eh]
	 Opposite-Spin Energy      =      -1.8661647232659189 [Eh]
	 Correlation Energy        =      -2.4246692335153139 [Eh]
	 Total Energy              =    -480.0100312414560335 [Eh]

	 ================> DF-SCS-MP2 Energies <==================
	-----------------------------------------------------------
	 SCS Same-Spin Scale       =       0.3333333333333333 [-]
	 SCS Opposite-Spin Scale   =       1.2000000000000000 [-]
	 SCS Same-Spin Energy      =      -0.1861681700831317 [Eh]
	 SCS Opposite-Spin Energy  =      -2.2393976679191026 [Eh]
	 SCS Correlation Energy    =      -2.4255658380022345 [Eh]
	 SCS Total Energy          =    -480.0109278459429447 [Eh]
	-----------------------------------------------------------

*** Psi4 exiting successfully. Buy a developer a beer!
