                               Psi4 1.4a2.dev224

  ==> Input File <==

--------------------------------------------------------------------------
#Generated by lconvert.py for cbs job

memory 40 GB

molecule  {
0 1
  C        0.8450770     1.0579190     0.6994550
  H        1.5064060     1.9032220     0.8333820
  C        1.3755090    -0.2174550     0.5111610
  H        2.4471840    -0.3614730     0.5028520
  C        0.5240680    -1.3070440     0.3331920
  H        0.9357270    -2.2960260     0.1849230
  C       -0.8577160    -1.1214630     0.3463840
  H       -1.5183810    -1.9664580     0.2083630
  C       -1.3880460     0.1536340     0.5376130
  H       -2.4597180     0.2974160     0.5500320
  C       -0.5366130     1.2434220     0.7127390
  H       -0.9489240     2.2328060     0.8573660
--
0 1
  N        0.0196190     0.2956290     7.0520160
  C        0.1743030     1.2335900     6.1071390
  H        0.3160740     2.2461160     6.4650410
  C        0.1600940     0.9663010     4.7406400
  H        0.2903340     1.7673260     4.0267540
  C       -0.0242440    -0.3453290     4.3153490
  H       -0.0408110    -0.5884480     3.2620010
  C       -0.1860930    -1.3303630     5.2842080
  H       -0.3326360    -2.3655740     5.0094370
  C       -0.1568910    -0.9630300     6.6272980
  H       -0.2804870    -1.7105440     7.4013990
units angstrom
no_reorient
symmetry c1
}

set {
scf_type DF
mp2_type DF
e_convergence 7
reference rhf
}

energy('mp2/aug-cc-pv[tq]z', bsse_type='cp')
--------------------------------------------------------------------------

    Molecular point group: c1
  Charge       = 0
  Multiplicity = 1
  Basis Set: AUG-CC-PVTZ
    Blend: AUG-CC-PVTZ
  Basis Set: (AUG-CC-PVTZ AUX)
    Blend: AUG-CC-PVTZ-JKFIT
  @DF-RHF Final Energy:  -246.77862524103259
    Total Energy =                       -246.7786252410326142
  Basis Set: (AUG-CC-PVTZ AUX)
    Blend: AUG-CC-PVTZ-RI
	 Reference Energy          =    -246.7786252410325858 [Eh]
	 Singles Energy            =      -0.0000000000000000 [Eh]
	 Same-Spin Energy          =      -0.2688044909899338 [Eh]
	 Opposite-Spin Energy      =      -0.8388506437753152 [Eh]
	 Correlation Energy        =      -1.1076551347652490 [Eh]
	 Total Energy              =    -247.8862803757978384 [Eh]
	 SCS Total Energy          =    -247.8748475105596185 [Eh]
    Molecular point group: c1
  Basis Set: AUG-CC-PVQZ
    Blend: AUG-CC-PVQZ
  Basis Set: (AUG-CC-PVQZ AUX)
    Blend: AUG-CC-PVQZ-JKFIT
  @DF-RHF Final Energy:  -246.79276541573043
    Total Energy =                       -246.7927654157304005
  Basis Set: (AUG-CC-PVQZ AUX)
  @DF-RHF Final Energy:  -246.77869102372946
    Total Energy =                       -246.7786910237294933
  @DF-RHF Final Energy:  -246.79278483150080
    Total Energy =                       -246.7927848315007964
  @DF-RHF Final Energy:  -230.78140590796735
    Total Energy =                       -230.7814059079673257
  @DF-RHF Final Energy:  -230.79442873789264
    Total Energy =                       -230.7944287378926447
  @DF-RHF Final Energy:  -230.78121432727022
    Total Energy =                       -230.7812143272702201
  @DF-RHF Final Energy:  -230.79438730235347
    Total Energy =                       -230.7943873023534707
  Multiplicity = 1
  @DF-RHF Final Energy:  -477.56042306253329
    Total Energy =                       -477.5604230625333457
	 Singles Energy            =      -0.0000000000000000 [Eh]
	 Same-Spin Energy          =      -0.5271966162846659 [Eh]
	 Opposite-Spin Energy      =      -1.6630919817921419 [Eh]
	 Correlation Energy        =      -2.1902885980768079 [Eh]
	 Total Energy              =    -479.7507116606100794 [Eh]
	 SCS Total Energy          =    -479.7318656461120554 [Eh]
    Molecular point group: c1

    Geometry (in Angstrom), charge = 0, multiplicity = 1:

       Center              X                  Y                   Z               Mass
    ------------   -----------------  -----------------  -----------------  -----------------
         C            0.849264409741     1.085077617188    -2.425285795304    12.000000000000
         H            1.510593409741     1.930380617188    -2.291358795304     1.007825032230
         C            1.379696409741    -0.190296382812    -2.613579795304    12.000000000000
         H            2.451371409741    -0.334314382812    -2.621888795304     1.007825032230
         C            0.528255409741    -1.279885382812    -2.791548795304    12.000000000000
         H            0.939914409741    -2.268867382812    -2.939817795304     1.007825032230
         C           -0.853528590259    -1.094304382812    -2.778356795304    12.000000000000
         H           -1.514193590259    -1.939299382812    -2.916377795304     1.007825032230
         C           -1.383858590259     0.180792617188    -2.587127795304    12.000000000000
         H           -2.455530590259     0.324574617188    -2.574708795304     1.007825032230
         C           -0.532425590259     1.270580617188    -2.412001795304    12.000000000000
         H           -0.944736590259     2.259964617188    -2.267374795304     1.007825032230
         N            0.023806409741     0.322787617188     3.927275204696    14.003074004430
         C            0.178490409741     1.260748617188     2.982398204696    12.000000000000
         H            0.320261409741     2.273274617188     3.340300204696     1.007825032230
         C            0.164281409741     0.993459617188     1.615899204696    12.000000000000
         H            0.294521409741     1.794484617188     0.902013204696     1.007825032230
         C           -0.020056590259    -0.318170382812     1.190608204696    12.000000000000
         H           -0.036623590259    -0.561289382812     0.137260204696     1.007825032230
         C           -0.181905590259    -1.303204382812     2.159467204696    12.000000000000
         H           -0.328448590259    -2.338415382812     1.884696204696     1.007825032230
         C           -0.152703590259    -0.935871382812     3.502557204696    12.000000000000
         H           -0.276299590259    -1.683385382812     4.276658204696     1.007825032230

  Charge       = 0
  Multiplicity = 1
  Basis Set: AUG-CC-PVQZ
    Blend: AUG-CC-PVQZ
  Basis Set: (AUG-CC-PVQZ AUX)
    Blend: AUG-CC-PVQZ-JKFIT

    Orbital Energies [Eh]
    ---------------------

    Doubly Occupied:

       1A    -15.558554     2A    -11.267931     3A    -11.267807
       4A    -11.249355     5A    -11.244482     6A    -11.243955
       7A    -11.243850     8A    -11.242712     9A    -11.242601
      10A    -11.242043    11A    -11.233813    12A    -11.233116
      13A     -1.249749    14A     -1.159749    15A     -1.081642
      16A     -1.026446    17A     -1.023991    18A     -1.023833
      19A     -0.851566    20A     -0.848760    21A     -0.833222
      22A     -0.833095    23A     -0.718867    24A     -0.714680
      25A     -0.653366    26A     -0.653030    27A     -0.647241
      28A     -0.628349    29A     -0.597371    30A     -0.597106
      31A     -0.591398    32A     -0.570705    33A     -0.534810
      34A     -0.512735    35A     -0.510166    36A     -0.504014
      37A     -0.503930    38A     -0.413735    39A     -0.376891
      40A     -0.347251    41A     -0.346419    42A     -0.341339

  @DF-RHF Final Energy:  -477.58753890935213

   => Energetics <=

    Nuclear Repulsion Energy =            586.9780306924903925
    One-Electron Energy =               -1809.1997871571118139
    Two-Electron Energy =                 744.6342175552692879
    Total Energy =                       -477.5875389093521335

  Dipole Moment: [D]
     X:    -0.0443      Y:    -0.5337      Z:    -2.8155     Total:     2.8660

  Basis Set: (AUG-CC-PVQZ AUX)
    Blend: AUG-CC-PVQZ-RI
	 Reference Energy          =    -477.5875389093521335 [Eh]
	 Singles Energy            =      -0.0000000000000000 [Eh]
	 Same-Spin Energy          =      -0.5569436728407903 [Eh]
	 Opposite-Spin Energy      =      -1.8641961917923662 [Eh]
	 Correlation Energy        =      -2.4211398646331563 [Eh]
	 Total Energy              =    -480.0086787739853094 [Eh]

	 ================> DF-SCS-MP2 Energies <==================
	-----------------------------------------------------------
	 SCS Same-Spin Scale       =       0.3333333333333333 [-]
	 SCS Opposite-Spin Scale   =       1.2000000000000000 [-]
	 SCS Same-Spin Energy      =      -0.1856478909469301 [Eh]
	 SCS Opposite-Spin Energy  =      -2.2370354301508395 [Eh]
	 SCS Correlation Energy    =      -2.4226833210977694 [Eh]
	 SCS Total Energy          =    -480.0102222304499264 [Eh]
	-----------------------------------------------------------

*** Psi4 exiting successfully. Buy a developer a beer!
