                               Psi4 1.4a2.dev224

  ==> Input File <==

--------------------------------------------------------------------------
#Generated by lconvert.py for cbs job

memory 40 GB

molecule  {
0 1
  C        0.8450770     1.0579190     0.6994550
  H        1.5064060     1.9032220     0.8333820
  C        1.3755090    -0.2174550     0.5111610
  H        2.4471840    -0.3614730     0.5028520
  C        0.5240680    -1.3070440     0.3331920
  H        0.9357270    -2.2960260     0.1849230
  C       -0.8577160    -1.1214630     0.3463840
  H       -1.5183810    -1.9664580     0.2083630
  C       -1.3880460     0.1536340     0.5376130
  H       -2.4597180     0.2974160     0.5500320
  C       -0.5366130     1.2434220     0.7127390
  H       -0.9489240     2.2328060     0.8573660
--
0 1
  N        0.0255440     0.3911460     6.5820640
  C        0.1802280     1.3291080     5.6371870
  H        0.3219980     2.3416340     5.9950890
  C        0.1660180     1.0618180     4.2706880
  H        0.2962580     1.8628440     3.5568020
  C       -0.0183200    -0.2498120     3.8453970
  H       -0.0348860    -0.4929300     2.7920490
  C       -0.1801690    -1.2348460     4.8142560
  H       -0.3267120    -2.2700570     4.5394850
  C       -0.1509660    -0.8675130     6.1573460
  H       -0.2745630    -1.6150270     6.9314470
units angstrom
no_reorient
symmetry c1
}

set {
scf_type DF
mp2_type DF
e_convergence 7
reference rhf
}

energy('mp2/aug-cc-pv[tq]z', bsse_type='cp')
--------------------------------------------------------------------------

    Molecular point group: c1
  Charge       = 0
  Multiplicity = 1
  Basis Set: AUG-CC-PVTZ
    Blend: AUG-CC-PVTZ
  Basis Set: (AUG-CC-PVTZ AUX)
    Blend: AUG-CC-PVTZ-JKFIT
  @DF-RHF Final Energy:  -246.77862519752645
    Total Energy =                       -246.7786251975264804
  Basis Set: (AUG-CC-PVTZ AUX)
    Blend: AUG-CC-PVTZ-RI
	 Reference Energy          =    -246.7786251975264520 [Eh]
	 Singles Energy            =      -0.0000000000000000 [Eh]
	 Same-Spin Energy          =      -0.2688044985190198 [Eh]
	 Opposite-Spin Energy      =      -0.8388506709277352 [Eh]
	 Correlation Energy        =      -1.1076551694467551 [Eh]
	 Total Energy              =    -247.8862803669732102 [Eh]
	 SCS Total Energy          =    -247.8748475021460820 [Eh]
    Molecular point group: c1
  Basis Set: AUG-CC-PVQZ
    Blend: AUG-CC-PVQZ
  Basis Set: (AUG-CC-PVQZ AUX)
    Blend: AUG-CC-PVQZ-JKFIT
  @DF-RHF Final Energy:  -246.79276537276343
    Total Energy =                       -246.7927653727634265
  Basis Set: (AUG-CC-PVQZ AUX)
  @DF-RHF Final Energy:  -246.77872265851437
    Total Energy =                       -246.7787226585143685
  @DF-RHF Final Energy:  -246.79279390892077
    Total Energy =                       -246.7927939089207712
  @DF-RHF Final Energy:  -230.78148239300128
    Total Energy =                       -230.7814823930012835
  @DF-RHF Final Energy:  -230.79444532822600
    Total Energy =                       -230.7944453282260042
  @DF-RHF Final Energy:  -230.78121433034124
    Total Energy =                       -230.7812143303412427
  @DF-RHF Final Energy:  -230.79438730953959
    Total Energy =                       -230.7943873095395588
  Multiplicity = 1
  @DF-RHF Final Energy:  -477.55593418209821
    Total Energy =                       -477.5559341820982127
	 Singles Energy            =      -0.0000000000000000 [Eh]
	 Same-Spin Energy          =      -0.5299683999655916 [Eh]
	 Opposite-Spin Energy      =      -1.6674989604151369 [Eh]
	 Correlation Energy        =      -2.1974673603807284 [Eh]
	 Total Energy              =    -479.7534015424789686 [Eh]
	 SCS Total Energy          =    -479.7335890679182171 [Eh]
    Molecular point group: c1

    Geometry (in Angstrom), charge = 0, multiplicity = 1:

       Center              X                  Y                   Z               Mass
    ------------   -----------------  -----------------  -----------------  -----------------
         C            0.846283395453     1.037016444332    -2.188821088901    12.000000000000
         H            1.507612395453     1.882319444332    -2.054894088901     1.007825032230
         C            1.376715395453    -0.238357555668    -2.377115088901    12.000000000000
         H            2.448390395453    -0.382375555668    -2.385424088901     1.007825032230
         C            0.525274395453    -1.327946555668    -2.555084088901    12.000000000000
         H            0.936933395453    -2.316928555668    -2.703353088901     1.007825032230
         C           -0.856509604547    -1.142365555668    -2.541892088901    12.000000000000
         H           -1.517174604547    -1.987360555668    -2.679913088901     1.007825032230
         C           -1.386839604547     0.132731444332    -2.350663088901    12.000000000000
         H           -2.458511604547     0.276513444332    -2.338244088901     1.007825032230
         C           -0.535406604547     1.222519444332    -2.175537088901    12.000000000000
         H           -0.947717604547     2.211903444332    -2.030910088901     1.007825032230
         N            0.026750395453     0.370243444332     3.693787911099    14.003074004430
         C            0.181434395453     1.308205444332     2.748910911099    12.000000000000
         H            0.323204395453     2.320731444332     3.106812911099     1.007825032230
         C            0.167224395453     1.040915444332     1.382411911099    12.000000000000
         H            0.297464395453     1.841941444332     0.668525911099     1.007825032230
         C           -0.017113604547    -0.270714555668     0.957120911099    12.000000000000
         H           -0.033679604547    -0.513832555668    -0.096227088901     1.007825032230
         C           -0.178962604547    -1.255748555668     1.925979911099    12.000000000000
         H           -0.325505604547    -2.290959555668     1.651208911099     1.007825032230
         C           -0.149759604547    -0.888415555668     3.269069911099    12.000000000000
         H           -0.273356604547    -1.635929555668     4.043170911099     1.007825032230

  Charge       = 0
  Multiplicity = 1
  Basis Set: AUG-CC-PVQZ
    Blend: AUG-CC-PVQZ
  Basis Set: (AUG-CC-PVQZ AUX)
    Blend: AUG-CC-PVQZ-JKFIT

    Orbital Energies [Eh]
    ---------------------

    Doubly Occupied:

       1A    -15.556056     2A    -11.265862     3A    -11.265695
       4A    -11.246115     5A    -11.245559     6A    -11.245502
       7A    -11.244781     8A    -11.244319     9A    -11.244257
      10A    -11.243671    11A    -11.230947    12A    -11.230005
      13A     -1.247432    14A     -1.162446    15A     -1.078762
      16A     -1.026574    17A     -1.025898    18A     -1.023777
      19A     -0.849202    20A     -0.846482    21A     -0.835087
      22A     -0.834938    23A     -0.721192    24A     -0.712964
      25A     -0.654728    26A     -0.650875    27A     -0.645202
      28A     -0.630141    29A     -0.599440    30A     -0.598971
      31A     -0.589273    32A     -0.573408    33A     -0.532609
      34A     -0.510363    35A     -0.505825    36A     -0.505752
      37A     -0.504955    38A     -0.411435    39A     -0.376055
      40A     -0.349792    41A     -0.347300    42A     -0.339095

  @DF-RHF Final Energy:  -477.58296732170720

   => Energetics <=

    Nuclear Repulsion Energy =            603.7775440405387144
    One-Electron Energy =               -1842.8155385981231120
    Two-Electron Energy =                 761.4550272358771963
    Total Energy =                       -477.5829673217072013

  Dipole Moment: [D]
     X:    -0.0464      Y:    -0.5454      Z:    -2.9762     Total:     3.0261

  Basis Set: (AUG-CC-PVQZ AUX)
    Blend: AUG-CC-PVQZ-RI
	 Reference Energy          =    -477.5829673217072013 [Eh]
	 Singles Energy            =      -0.0000000000000000 [Eh]
	 Same-Spin Energy          =      -0.5596311077208509 [Eh]
	 Opposite-Spin Energy      =      -1.8675857473389246 [Eh]
	 Correlation Energy        =      -2.4272168550597755 [Eh]
	 Total Energy              =    -480.0101841767669839 [Eh]

	 ================> DF-SCS-MP2 Energies <==================
	-----------------------------------------------------------
	 SCS Same-Spin Scale       =       0.3333333333333333 [-]
	 SCS Opposite-Spin Scale   =       1.2000000000000000 [-]
	 SCS Same-Spin Energy      =      -0.1865437025736170 [Eh]
	 SCS Opposite-Spin Energy  =      -2.2411028968067095 [Eh]
	 SCS Correlation Energy    =      -2.4276465993803265 [Eh]
	 SCS Total Energy          =    -480.0106139210875540 [Eh]
	-----------------------------------------------------------

*** Psi4 exiting successfully. Buy a developer a beer!
