                               Psi4 1.4a2.dev224

  ==> Input File <==

--------------------------------------------------------------------------
#Generated by lconvert.py for cbs job

memory 40 GB

molecule  {
0 1
  C        0.8450770     1.0579190     0.6994550
  H        1.5064060     1.9032220     0.8333820
  C        1.3755090    -0.2174550     0.5111610
  H        2.4471840    -0.3614730     0.5028520
  C        0.5240680    -1.3070440     0.3331920
  H        0.9357270    -2.2960260     0.1849230
  C       -0.8577160    -1.1214630     0.3463840
  H       -1.5183810    -1.9664580     0.2083630
  C       -1.3880460     0.1536340     0.5376130
  H       -2.4597180     0.2974160     0.5500320
  C       -0.5366130     1.2434220     0.7127390
  H       -0.9489240     2.2328060     0.8573660
--
0 1
  N        0.0318550     0.4928980     6.0814360
  C        0.1865390     1.4308600     5.1365590
  H        0.3283100     2.4433860     5.4944610
  C        0.1723300     1.1635700     3.7700600
  H        0.3025700     1.9645960     3.0561740
  C       -0.0120090    -0.1480600     3.3447690
  H       -0.0285750    -0.3911780     2.2914210
  C       -0.1738580    -1.1330940     4.3136280
  H       -0.3204010    -2.1683050     4.0388570
  C       -0.1446550    -0.7657610     5.6567180
  H       -0.2682510    -1.5132750     6.4308190
units angstrom
no_reorient
symmetry c1
}

set {
scf_type DF
mp2_type DF
e_convergence 7
reference rhf
}

energy('mp2/aug-cc-pv[tq]z', bsse_type='cp')
--------------------------------------------------------------------------

    Molecular point group: c1
  Charge       = 0
  Multiplicity = 1
  Basis Set: AUG-CC-PVTZ
    Blend: AUG-CC-PVTZ
  Basis Set: (AUG-CC-PVTZ AUX)
    Blend: AUG-CC-PVTZ-JKFIT
  @DF-RHF Final Energy:  -246.77862519869947
    Total Energy =                       -246.7786251986994444
  Basis Set: (AUG-CC-PVTZ AUX)
    Blend: AUG-CC-PVTZ-RI
	 Reference Energy          =    -246.7786251986994728 [Eh]
	 Singles Energy            =      -0.0000000000000000 [Eh]
	 Same-Spin Energy          =      -0.2688044983492460 [Eh]
	 Opposite-Spin Energy      =      -0.8388506719932121 [Eh]
	 Correlation Energy        =      -1.1076551703424582 [Eh]
	 Total Energy              =    -247.8862803690419412 [Eh]
	 SCS Total Energy          =    -247.8748475045410657 [Eh]
    Molecular point group: c1
  Basis Set: AUG-CC-PVQZ
    Blend: AUG-CC-PVQZ
  Basis Set: (AUG-CC-PVQZ AUX)
    Blend: AUG-CC-PVQZ-JKFIT
  @DF-RHF Final Energy:  -246.79276536574838
    Total Energy =                       -246.7927653657483802
  Basis Set: (AUG-CC-PVQZ AUX)
  @DF-RHF Final Energy:  -246.77879319255004
    Total Energy =                       -246.7787931925500402
  @DF-RHF Final Energy:  -246.79280902409459
    Total Energy =                       -246.7928090240945949
  @DF-RHF Final Energy:  -230.78157892464742
    Total Energy =                       -230.7815789246474196
  @DF-RHF Final Energy:  -230.79446484516927
    Total Energy =                       -230.7944648451692728
  @DF-RHF Final Energy:  -230.78121432894801
    Total Energy =                       -230.7812143289480105
  @DF-RHF Final Energy:  -230.79438730204595
    Total Energy =                       -230.7943873020459478
  Multiplicity = 1
  @DF-RHF Final Energy:  -477.53383804500584
    Total Energy =                       -477.5338380450058366
	 Singles Energy            =      -0.0000000000000000 [Eh]
	 Same-Spin Energy          =      -0.5359615745152063 [Eh]
	 Opposite-Spin Energy      =      -1.6764002741610857 [Eh]
	 Correlation Energy        =      -2.2123618486762919 [Eh]
	 Total Energy              =    -479.7461998936821033 [Eh]
	 SCS Total Energy          =    -479.7241722321708721 [Eh]
    Molecular point group: c1

    Geometry (in Angstrom), charge = 0, multiplicity = 1:

       Center              X                  Y                   Z               Mass
    ------------   -----------------  -----------------  -----------------  -----------------
         C            0.843107807932     0.985818115979    -1.936921207558    12.000000000000
         H            1.504436807932     1.831121115979    -1.802994207558     1.007825032230
         C            1.373539807932    -0.289555884021    -2.125215207558    12.000000000000
         H            2.445214807932    -0.433573884021    -2.133524207558     1.007825032230
         C            0.522098807932    -1.379144884021    -2.303184207558    12.000000000000
         H            0.933757807932    -2.368126884021    -2.451453207558     1.007825032230
         C           -0.859685192068    -1.193563884021    -2.289992207558    12.000000000000
         H           -1.520350192068    -2.038558884021    -2.428013207558     1.007825032230
         C           -1.390015192068     0.081533115979    -2.098763207558    12.000000000000
         H           -2.461687192068     0.225315115979    -2.086344207558     1.007825032230
         C           -0.538582192068     1.171321115979    -1.923637207558    12.000000000000
         H           -0.950893192068     2.160705115979    -1.779010207558     1.007825032230
         N            0.029885807932     0.420797115979     3.445059792442    14.003074004430
         C            0.184569807932     1.358759115979     2.500182792442    12.000000000000
         H            0.326340807932     2.371285115979     2.858084792442     1.007825032230
         C            0.170360807932     1.091469115979     1.133683792442    12.000000000000
         H            0.300600807932     1.892495115979     0.419797792442     1.007825032230
         C           -0.013978192068    -0.220160884021     0.708392792442    12.000000000000
         H           -0.030544192068    -0.463278884021    -0.344955207558     1.007825032230
         C           -0.175827192068    -1.205194884021     1.677251792442    12.000000000000
         H           -0.322370192068    -2.240405884021     1.402480792442     1.007825032230
         C           -0.146624192068    -0.837861884021     3.020341792442    12.000000000000
         H           -0.270220192068    -1.585375884021     3.794442792442     1.007825032230

  Charge       = 0
  Multiplicity = 1
  Basis Set: AUG-CC-PVQZ
    Blend: AUG-CC-PVQZ
  Basis Set: (AUG-CC-PVQZ AUX)
    Blend: AUG-CC-PVQZ-JKFIT

    Orbital Energies [Eh]
    ---------------------

    Doubly Occupied:

       1A    -15.551765     2A    -11.262877     3A    -11.262598
       4A    -11.247998     5A    -11.247450     6A    -11.247302
       7A    -11.246184     8A    -11.246104     9A    -11.245480
      10A    -11.236043    11A    -11.225983    12A    -11.224506
      13A     -1.243767    14A     -1.168676    15A     -1.074449
      16A     -1.030800    17A     -1.029303    18A     -1.019856
      19A     -0.846887    20A     -0.844345    21A     -0.837811
      22A     -0.836766    23A     -0.727273    24A     -0.711652
      25A     -0.657140    26A     -0.647483    27A     -0.642991
      28A     -0.632156    29A     -0.602924    30A     -0.602026
      31A     -0.587073    32A     -0.582317    33A     -0.529456
      34A     -0.508450    35A     -0.508186    36A     -0.506417
      37A     -0.485653    38A     -0.407738    39A     -0.380328
      40A     -0.352818    41A     -0.344033    42A     -0.335520

  @DF-RHF Final Energy:  -477.56073091153200

   => Energetics <=

    Nuclear Repulsion Energy =            625.2725001355926224
    One-Electron Energy =               -1885.8092845502260388
    Two-Electron Energy =                 782.9760535031015252
    Total Energy =                       -477.5607309115320049

  Dipole Moment: [D]
     X:    -0.0470      Y:    -0.5632      Z:    -3.1734     Total:     3.2233

  Basis Set: (AUG-CC-PVQZ AUX)
    Blend: AUG-CC-PVQZ-RI
	 Reference Energy          =    -477.5607309115320049 [Eh]
	 Singles Energy            =      -0.0000000000000000 [Eh]
	 Same-Spin Energy          =      -0.5655160531136330 [Eh]
	 Opposite-Spin Energy      =      -1.8751818893219847 [Eh]
	 Correlation Energy        =      -2.4406979424356177 [Eh]
	 Total Energy              =    -480.0014288539676386 [Eh]

	 ================> DF-SCS-MP2 Energies <==================
	-----------------------------------------------------------
	 SCS Same-Spin Scale       =       0.3333333333333333 [-]
	 SCS Opposite-Spin Scale   =       1.2000000000000000 [-]
	 SCS Same-Spin Energy      =      -0.1885053510378776 [Eh]
	 SCS Opposite-Spin Energy  =      -2.2502182671863817 [Eh]
	 SCS Correlation Energy    =      -2.4387236182242593 [Eh]
	 SCS Total Energy          =    -479.9994545297562922 [Eh]
	-----------------------------------------------------------

*** Psi4 exiting successfully. Buy a developer a beer!
