                               Psi4 1.4a2.dev224

  ==> Input File <==

--------------------------------------------------------------------------
#Generated by lconvert.py for cbs job

memory 20 GB

molecule  {
0 1
  C       0.845080    1.057920    0.699460
  H       1.506410    1.903220    0.833380
  C       1.375510   -0.217460    0.511160
  H       2.447180   -0.361470    0.502850
  C       0.524070   -1.307040    0.333190
  H       0.935730   -2.296030    0.184920
  C      -0.857720   -1.121460    0.346380
  H      -1.518380   -1.966460    0.208360
  C      -1.388050    0.153630    0.537610
  H      -2.459720    0.297420    0.550030
  C      -0.536610    1.243420    0.712740
  H      -0.948920    2.232810    0.857370
--
0 1
  N       0.010350    0.146240    7.787030
  C       0.165040    1.084200    6.842150
  H       0.306810    2.096720    7.200050
  C       0.150830    0.816910    5.475650
  H       0.281070    1.617930    4.761770
  C      -0.033510   -0.494720    5.050360
  H      -0.050080   -0.737840    3.997020
  C      -0.195360   -1.479750    6.019220
  H      -0.341900   -2.514970    5.744450
  C      -0.166160   -1.112420    7.362310
  H      -0.289750   -1.859940    8.136410
units angstrom
no_reorient
symmetry c1
}

set {
scf_type DF
mp2_type DF
e_convergence 7
reference rhf
}

energy('mp2/aug-cc-pv[tq]z', bsse_type='cp')
--------------------------------------------------------------------------

    Molecular point group: c1
  Charge       = 0
  Multiplicity = 1
  Basis Set: AUG-CC-PVTZ
    Blend: AUG-CC-PVTZ
  Basis Set: (AUG-CC-PVTZ AUX)
    Blend: AUG-CC-PVTZ-JKFIT
  @DF-RHF Final Energy:  -246.77862521561346
    Total Energy =                       -246.7786252156134310
  Basis Set: (AUG-CC-PVTZ AUX)
    Blend: AUG-CC-PVTZ-RI
	 Reference Energy          =    -246.7786252156134594 [Eh]
	 Singles Energy            =      -0.0000000000000000 [Eh]
	 Same-Spin Energy          =      -0.2688045043682441 [Eh]
	 Opposite-Spin Energy      =      -0.8388506736280238 [Eh]
	 Correlation Energy        =      -1.1076551779962678 [Eh]
	 Total Energy              =    -247.8862803936097237 [Eh]
	 SCS Total Energy          =    -247.8748475254231778 [Eh]
    Molecular point group: c1
  Basis Set: AUG-CC-PVQZ
    Blend: AUG-CC-PVQZ
  Basis Set: (AUG-CC-PVQZ AUX)
    Blend: AUG-CC-PVQZ-JKFIT
  @DF-RHF Final Energy:  -246.79276538691946
    Total Energy =                       -246.7927653869194273
  Basis Set: (AUG-CC-PVQZ AUX)
  @DF-RHF Final Energy:  -246.77866194572761
    Total Energy =                       -246.7786619457276061
  @DF-RHF Final Energy:  -246.79277673813709
    Total Energy =                       -246.7927767381370927
  @DF-RHF Final Energy:  -230.78131418792685
    Total Energy =                       -230.7813141879268528
  @DF-RHF Final Energy:  -230.79440922953100
    Total Energy =                       -230.7944092295310270
  @DF-RHF Final Energy:  -230.78121419452023
    Total Energy =                       -230.7812141945202598
  @DF-RHF Final Energy:  -230.79438716367002
    Total Energy =                       -230.7943871636700237
  Multiplicity = 1
  @DF-RHF Final Energy:  -477.56100002554922
    Total Energy =                       -477.5610000255492196
	 Singles Energy            =      -0.0000000000000000 [Eh]
	 Same-Spin Energy          =      -0.5253555283329858 [Eh]
	 Opposite-Spin Energy      =      -1.6596278673560283 [Eh]
	 Correlation Energy        =      -2.1849833956890139 [Eh]
	 Total Energy              =    -479.7459834212382361 [Eh]
	 SCS Total Energy          =    -479.7276719758207832 [Eh]
    Molecular point group: c1

    Geometry (in Angstrom), charge = 0, multiplicity = 1:

       Center              X                  Y                   Z               Mass
    ------------   -----------------  -----------------  -----------------  -----------------
         C            0.853929800083     1.160247063630    -2.795114721685    12.000000000000
         H            1.515259800083     2.005547063630    -2.661194721685     1.007825032230
         C            1.384359800083    -0.115132936370    -2.983414721685    12.000000000000
         H            2.456029800083    -0.259142936370    -2.991724721685     1.007825032230
         C            0.532919800083    -1.204712936370    -3.161384721685    12.000000000000
         H            0.944579800083    -2.193702936370    -3.309654721685     1.007825032230
         C           -0.848870199917    -1.019132936370    -3.148194721685    12.000000000000
         H           -1.509530199917    -1.864132936370    -3.286214721685     1.007825032230
         C           -1.379200199917     0.255957063630    -2.956964721685    12.000000000000
         H           -2.450870199917     0.399747063630    -2.944544721685     1.007825032230
         C           -0.527760199917     1.345747063630    -2.781834721685    12.000000000000
         H           -0.940070199917     2.335137063630    -2.637204721685     1.007825032230
         N            0.019199800083     0.248567063630     4.292455278315    14.003074004430
         C            0.173889800083     1.186527063630     3.347575278315    12.000000000000
         H            0.315659800083     2.199047063630     3.705475278315     1.007825032230
         C            0.159679800083     0.919237063630     1.981075278315    12.000000000000
         H            0.289919800083     1.720257063630     1.267195278315     1.007825032230
         C           -0.024660199917    -0.392392936370     1.555785278315    12.000000000000
         H           -0.041230199917    -0.635512936370     0.502445278315     1.007825032230
         C           -0.186510199917    -1.377422936370     2.524645278315    12.000000000000
         H           -0.333050199917    -2.412642936370     2.249875278315     1.007825032230
         C           -0.157310199917    -1.010092936370     3.867735278315    12.000000000000
         H           -0.280900199917    -1.757612936370     4.641835278315     1.007825032230

  Charge       = 0
  Multiplicity = 1
  Basis Set: AUG-CC-PVQZ
    Blend: AUG-CC-PVQZ
  Basis Set: (AUG-CC-PVQZ AUX)
    Blend: AUG-CC-PVQZ-JKFIT

    Orbital Energies [Eh]
    ---------------------

    Doubly Occupied:

       1A    -15.560905     2A    -11.270059     3A    -11.269972
       4A    -11.253242     5A    -11.242342     6A    -11.241811
       7A    -11.241716     8A    -11.240568     9A    -11.240468
      10A    -11.239906    11A    -11.236502    12A    -11.235993
      13A     -1.252021    14A     -1.157170    15A     -1.084539
      16A     -1.028752    17A     -1.021596    18A     -1.021545
      19A     -0.854263    20A     -0.851179    21A     -0.831030
      22A     -0.830909    23A     -0.717122    24A     -0.716617
      25A     -0.655924    26A     -0.651013    27A     -0.649553
      28A     -0.626141    29A     -0.595100    30A     -0.594996
      31A     -0.593636    32A     -0.572209    33A     -0.537064
      34A     -0.514991    35A     -0.509788    36A     -0.501890
      37A     -0.501869    38A     -0.416008    39A     -0.379204
      40A     -0.344441    41A     -0.344301    42A     -0.343475

  @DF-RHF Final Energy:  -477.58820392616377

   => Energetics <=

    Nuclear Repulsion Energy =            565.6513998987987861
    One-Electron Energy =               -1766.5355405430141218
    Two-Electron Energy =                 723.2959367180515073
    Total Energy =                       -477.5882039261637146

  Dipole Moment: [D]
     X:    -0.0413      Y:    -0.5244      Z:    -2.6303     Total:     2.6824

  Basis Set: (AUG-CC-PVQZ AUX)
    Blend: AUG-CC-PVQZ-RI
	 Reference Energy          =    -477.5882039261637715 [Eh]
	 Singles Energy            =      -0.0000000000000000 [Eh]
	 Same-Spin Energy          =      -0.5551806408058947 [Eh]
	 Opposite-Spin Energy      =      -1.8619661136997459 [Eh]
	 Correlation Energy        =      -2.4171467545056404 [Eh]
	 Total Energy              =    -480.0053506806694372 [Eh]

	 ================> DF-SCS-MP2 Energies <==================
	-----------------------------------------------------------
	 SCS Same-Spin Scale       =       0.3333333333333333 [-]
	 SCS Opposite-Spin Scale   =       1.2000000000000000 [-]
	 SCS Same-Spin Energy      =      -0.1850602136019649 [Eh]
	 SCS Opposite-Spin Energy  =      -2.2343593364396948 [Eh]
	 SCS Correlation Energy    =      -2.4194195500416598 [Eh]
	 SCS Total Energy          =    -480.0076234762054241 [Eh]
	-----------------------------------------------------------

*** Psi4 exiting successfully. Buy a developer a beer!
