                               Psi4 1.4a2.dev224

  ==> Input File <==

--------------------------------------------------------------------------
#Generated by lconvert.py for cbs job

memory 40 GB

molecule  {
0 1
  C        0.8450770     1.0579190     0.6994550
  H        1.5064060     1.9032220     0.8333820
  C        1.3755090    -0.2174550     0.5111610
  H        2.4471840    -0.3614730     0.5028520
  C        0.5240680    -1.3070440     0.3331920
  H        0.9357270    -2.2960260     0.1849230
  C       -0.8577160    -1.1214630     0.3463840
  H       -1.5183810    -1.9664580     0.2083630
  C       -1.3880460     0.1536340     0.5376130
  H       -2.4597180     0.2974160     0.5500320
  C       -0.5366130     1.2434220     0.7127390
  H       -0.9489240     2.2328060     0.8573660
--
0 1
  N        0.0364880     0.5675940     5.7139290
  C        0.1911720     1.5055550     4.7690520
  H        0.3329430     2.5180810     5.1269540
  C        0.1769620     1.2382650     3.4025520
  H        0.3072030     2.0392910     2.6886670
  C       -0.0073760    -0.0733640     2.9772620
  H       -0.0239420    -0.3164830     1.9239140
  C       -0.1692250    -1.0583990     3.9461210
  H       -0.3157680    -2.0936090     3.6713500
  C       -0.1400220    -0.6910650     5.2892110
  H       -0.2636180    -1.4385790     6.0633120
units angstrom
no_reorient
symmetry c1
}

set {
scf_type DF
mp2_type DF
e_convergence 7
reference rhf
}

energy('mp2/aug-cc-pv[tq]z', bsse_type='cp')
--------------------------------------------------------------------------

    Molecular point group: c1
  Charge       = 0
  Multiplicity = 1
  Basis Set: AUG-CC-PVTZ
    Blend: AUG-CC-PVTZ
  Basis Set: (AUG-CC-PVTZ AUX)
    Blend: AUG-CC-PVTZ-JKFIT
  @DF-RHF Final Energy:  -246.77862523833778
    Total Energy =                       -246.7786252383377814
  Basis Set: (AUG-CC-PVTZ AUX)
    Blend: AUG-CC-PVTZ-RI
	 Reference Energy          =    -246.7786252383377814 [Eh]
	 Singles Energy            =      -0.0000000000000000 [Eh]
	 Same-Spin Energy          =      -0.2688044889638483 [Eh]
	 Opposite-Spin Energy      =      -0.8388506461510864 [Eh]
	 Correlation Energy        =      -1.1076551351149346 [Eh]
	 Total Energy              =    -247.8862803734527063 [Eh]
	 SCS Total Energy          =    -247.8748475100403539 [Eh]
    Molecular point group: c1
  Basis Set: AUG-CC-PVQZ
    Blend: AUG-CC-PVQZ
  Basis Set: (AUG-CC-PVQZ AUX)
    Blend: AUG-CC-PVQZ-JKFIT
  @DF-RHF Final Energy:  -246.79276540842216
    Total Energy =                       -246.7927654084221558
  Basis Set: (AUG-CC-PVQZ AUX)
  @DF-RHF Final Energy:  -246.77887788985811
    Total Energy =                       -246.7788778898581086
  @DF-RHF Final Energy:  -246.79282394142615
    Total Energy =                       -246.7928239414261498
  @DF-RHF Final Energy:  -230.78167270791454
    Total Energy =                       -230.7816727079145380
  @DF-RHF Final Energy:  -230.79447838230041
    Total Energy =                       -230.7944783823004400
  @DF-RHF Final Energy:  -230.78121432689287
    Total Energy =                       -230.7812143268928935
  @DF-RHF Final Energy:  -230.79438730190245
    Total Energy =                       -230.7943873019024181
  Multiplicity = 1
  @DF-RHF Final Energy:  -477.48234750908716
    Total Energy =                       -477.4823475090871625
	 Singles Energy            =      -0.0000000000000000 [Eh]
	 Same-Spin Energy          =      -0.5439445496070514 [Eh]
	 Opposite-Spin Energy      =      -1.6882929071635151 [Eh]
	 Correlation Energy        =      -2.2322374567705667 [Eh]
	 Total Energy              =    -479.7145849658577390 [Eh]
	 SCS Total Energy          =    -479.6896138475523799 [Eh]
    Molecular point group: c1

    Geometry (in Angstrom), charge = 0, multiplicity = 1:

       Center              X                  Y                   Z               Mass
    ------------   -----------------  -----------------  -----------------  -----------------
         C            0.840776707979     0.948233743605    -1.752003448392    12.000000000000
         H            1.502105707979     1.793536743605    -1.618076448392     1.007825032230
         C            1.371208707979    -0.327140256395    -1.940297448392    12.000000000000
         H            2.442883707979    -0.471158256395    -1.948606448392     1.007825032230
         C            0.519767707979    -1.416729256395    -2.118266448392    12.000000000000
         H            0.931426707979    -2.405711256395    -2.266535448392     1.007825032230
         C           -0.862016292021    -1.231148256395    -2.105074448392    12.000000000000
         H           -1.522681292021    -2.076143256395    -2.243095448392     1.007825032230
         C           -1.392346292021     0.043948743605    -1.913845448392    12.000000000000
         H           -2.464018292021     0.187730743605    -1.901426448392     1.007825032230
         C           -0.540913292021     1.133736743605    -1.738719448392    12.000000000000
         H           -0.953224292021     2.123120743605    -1.594092448392     1.007825032230
         N            0.032187707979     0.457908743605     3.262470551608    14.003074004430
         C            0.186871707979     1.395869743605     2.317593551608    12.000000000000
         H            0.328642707979     2.408395743605     2.675495551608     1.007825032230
         C            0.172661707979     1.128579743605     0.951093551608    12.000000000000
         H            0.302902707979     1.929605743605     0.237208551608     1.007825032230
         C           -0.011676292021    -0.183049256395     0.525803551608    12.000000000000
         H           -0.028242292021    -0.426168256395    -0.527544448392     1.007825032230
         C           -0.173525292021    -1.168084256395     1.494662551608    12.000000000000
         H           -0.320068292021    -2.203294256395     1.219891551608     1.007825032230
         C           -0.144322292021    -0.800750256395     2.837752551608    12.000000000000
         H           -0.267918292021    -1.548264256395     3.611853551608     1.007825032230

  Charge       = 0
  Multiplicity = 1
  Basis Set: AUG-CC-PVQZ
    Blend: AUG-CC-PVQZ
  Basis Set: (AUG-CC-PVQZ AUX)
    Blend: AUG-CC-PVQZ-JKFIT

    Orbital Energies [Eh]
    ---------------------

    Doubly Occupied:

       1A    -15.546947     2A    -11.260463     3A    -11.259972
       4A    -11.249486     5A    -11.248999     6A    -11.248693
       7A    -11.247701     8A    -11.247485     9A    -11.246912
      10A    -11.225854    11A    -11.220299    12A    -11.218142
      13A     -1.240300    14A     -1.180849    15A     -1.070824
      16A     -1.036731    17A     -1.033706    18A     -1.015617
      19A     -0.848143    20A     -0.846741    21A     -0.840858
      22A     -0.834884    23A     -0.739130    24A     -0.710610
      25A     -0.659681    26A     -0.645839    27A     -0.642920
      28A     -0.632073    29A     -0.607318    30A     -0.606109
      31A     -0.592164    32A     -0.581453    33A     -0.527076
      34A     -0.511398    35A     -0.510821    36A     -0.502799
      37A     -0.457534    38A     -0.403438    39A     -0.390856
      40A     -0.353489    41A     -0.337279    42A     -0.330513

  @DF-RHF Final Energy:  -477.50911830049210

   => Energetics <=

    Nuclear Repulsion Energy =            644.0068950803822645
    One-Electron Energy =               -1923.2077991982835101
    Two-Electron Energy =                 801.6917858174091407
    Total Energy =                       -477.5091183004921049

  Dipole Moment: [D]
     X:    -0.0442      Y:    -0.5728      Z:    -3.2921     Total:     3.3418

  Basis Set: (AUG-CC-PVQZ AUX)
    Blend: AUG-CC-PVQZ-RI
	 Reference Energy          =    -477.5091183004921049 [Eh]
	 Singles Energy            =      -0.0000000000000000 [Eh]
	 Same-Spin Energy          =      -0.5734261181034355 [Eh]
	 Opposite-Spin Energy      =      -1.8856263358886909 [Eh]
	 Correlation Energy        =      -2.4590524539921264 [Eh]
	 Total Energy              =    -479.9681707544842197 [Eh]

	 ================> DF-SCS-MP2 Energies <==================
	-----------------------------------------------------------
	 SCS Same-Spin Scale       =       0.3333333333333333 [-]
	 SCS Opposite-Spin Scale   =       1.2000000000000000 [-]
	 SCS Same-Spin Energy      =      -0.1911420393678118 [Eh]
	 SCS Opposite-Spin Energy  =      -2.2627516030664290 [Eh]
	 SCS Correlation Energy    =      -2.4538936424342408 [Eh]
	 SCS Total Energy          =    -479.9630119429263573 [Eh]
	-----------------------------------------------------------

*** Psi4 exiting successfully. Buy a developer a beer!
