                               Psi4 1.4a2.dev224

  ==> Input File <==

--------------------------------------------------------------------------
#Generated by lconvert.py for cbs job

memory 40 GB

molecule  {
0 1
  C        0.9640800     0.8750930     0.3780140
  H        1.6598300     1.6999310     0.4460420
  C        1.4310570    -0.4131330     0.1189920
  H        2.4895250    -0.5872090    -0.0170130
  C        0.5341280    -1.4776390     0.0424180
  H        0.8969610    -2.4773880    -0.1520120
  C       -0.8303270    -1.2536040     0.2208560
  H       -1.5257600    -2.0796240     0.1641170
  C       -1.2975870     0.0344130     0.4802430
  H       -2.3543960     0.2080160     0.6285610
  C       -0.4004450     1.0997790     0.5616010
  H       -0.7604550     2.0937690     0.7847570
--
0 1
  C       -0.0929220     0.4205960     3.6520610
  O       -0.5611120     1.4700420     3.2728010
  O        0.3102910    -0.5569670     2.8127760
  H        0.1415860    -0.2310540     1.9113710
  C        0.1170320     0.0236090     5.0834670
  H       -0.1929340     0.8329450     5.7334560
  H       -0.4590480    -0.8730150     5.3004180
  H        1.1655300    -0.2125230     5.2484860
units angstrom
no_reorient
symmetry c1
}

set {
scf_type DF
mp2_type DF
e_convergence 7
reference rhf
}

energy('mp2/aug-cc-pv[tq]z', bsse_type='cp')
--------------------------------------------------------------------------

    Molecular point group: c1
  Charge       = 0
  Multiplicity = 1
  Basis Set: AUG-CC-PVTZ
    Blend: AUG-CC-PVTZ
  Basis Set: (AUG-CC-PVTZ AUX)
    Blend: AUG-CC-PVTZ-JKFIT
  @DF-RHF Final Energy:  -227.90516526335733
    Total Energy =                       -227.9051652633573326
  Basis Set: (AUG-CC-PVTZ AUX)
    Blend: AUG-CC-PVTZ-RI
	 Reference Energy          =    -227.9051652633573326 [Eh]
	 Singles Energy            =      -0.0000000000000000 [Eh]
	 Same-Spin Energy          =      -0.2149275724770792 [Eh]
	 Opposite-Spin Energy      =      -0.6692332718094632 [Eh]
	 Correlation Energy        =      -0.8841608442865425 [Eh]
	 Total Energy              =    -228.7893261076438876 [Eh]
	 SCS Total Energy          =    -228.7798877136877138 [Eh]
    Molecular point group: c1
  Basis Set: AUG-CC-PVQZ
    Blend: AUG-CC-PVQZ
  Basis Set: (AUG-CC-PVQZ AUX)
    Blend: AUG-CC-PVQZ-JKFIT
  @DF-RHF Final Energy:  -227.91989109119240
    Total Energy =                       -227.9198910911923974
  Basis Set: (AUG-CC-PVQZ AUX)
  @DF-RHF Final Energy:  -227.90549886357073
    Total Energy =                       -227.9054988635707275
  @DF-RHF Final Energy:  -227.91999141321597
    Total Energy =                       -227.9199914132159677
  @DF-RHF Final Energy:  -230.78148757342998
    Total Energy =                       -230.7814875734299562
  @DF-RHF Final Energy:  -230.79438970868765
    Total Energy =                       -230.7943897086876746
  @DF-RHF Final Energy:  -230.78114790998853
    Total Energy =                       -230.7811479099885332
  @DF-RHF Final Energy:  -230.79431902362870
    Total Energy =                       -230.7943190236287023
  Multiplicity = 1
  @DF-RHF Final Energy:  -458.65939451859697
    Total Energy =                       -458.6593945185969687
	 Singles Energy            =      -0.0000000000000000 [Eh]
	 Same-Spin Energy          =      -0.4816670407101382 [Eh]
	 Opposite-Spin Energy      =      -1.5056378344899737 [Eh]
	 Correlation Energy        =      -1.9873048752001119 [Eh]
	 Total Energy              =    -460.6466993937970642 [Eh]
	 SCS Total Energy          =    -460.6267156002216439 [Eh]
    Molecular point group: c1

    Geometry (in Angstrom), charge = 0, multiplicity = 1:

       Center              X                  Y                   Z               Mass
    ------------   -----------------  -----------------  -----------------  -----------------
         C            0.948453856532     0.841232545148    -1.389195118711    12.000000000000
         H            1.644203856532     1.666070545148    -1.321167118711     1.007825032230
         C            1.415430856532    -0.446993454852    -1.648217118711    12.000000000000
         H            2.473898856532    -0.621069454852    -1.784222118711     1.007825032230
         C            0.518501856532    -1.511499454852    -1.724791118711    12.000000000000
         H            0.881334856532    -2.511248454852    -1.919221118711     1.007825032230
         C           -0.845953143468    -1.287464454852    -1.546353118711    12.000000000000
         H           -1.541386143468    -2.113484454852    -1.603092118711     1.007825032230
         C           -1.313213143468     0.000552545148    -1.286966118711    12.000000000000
         H           -2.370022143468     0.174155545148    -1.138648118711     1.007825032230
         C           -0.416071143468     1.065918545148    -1.205608118711    12.000000000000
         H           -0.776081143468     2.059908545148    -0.982452118711     1.007825032230
         C           -0.108548143468     0.386735545148     1.884851881289    12.000000000000
         O           -0.576738143468     1.436181545148     1.505591881289    15.994914619570
         O            0.294664856532    -0.590827454852     1.045566881289    15.994914619570
         H            0.125959856532    -0.264914454852     0.144161881289     1.007825032230
         C            0.101405856532    -0.010251454852     3.316257881289    12.000000000000
         H           -0.208560143468     0.799084545148     3.966246881289     1.007825032230
         H           -0.474674143468    -0.906875454852     3.533208881289     1.007825032230
         H            1.149903856532    -0.246383454852     3.481276881289     1.007825032230

  Charge       = 0
  Multiplicity = 1
  Basis Set: AUG-CC-PVQZ
    Blend: AUG-CC-PVQZ
  Basis Set: (AUG-CC-PVQZ AUX)
    Blend: AUG-CC-PVQZ-JKFIT

    Orbital Energies [Eh]
    ---------------------

    Doubly Occupied:

       1A    -20.577037     2A    -20.530215     3A    -11.370797
       4A    -11.243133     5A    -11.242886     6A    -11.240666
       7A    -11.239986     8A    -11.238985     9A    -11.238492
      10A    -11.231099    11A     -1.443789    12A     -1.342571
      13A     -1.164962    14A     -1.025204    15A     -1.024906
      16A     -1.014111    17A     -0.831562    18A     -0.831172
      19A     -0.808107    20A     -0.722578    21A     -0.689454
      22A     -0.665131    23A     -0.648754    24A     -0.634695
      25A     -0.626078    26A     -0.597317    27A     -0.595653
      28A     -0.573013    29A     -0.566365    30A     -0.546858
      31A     -0.501994    32A     -0.501752    33A     -0.499745
      34A     -0.466705    35A     -0.436761    36A     -0.348056
      37A     -0.343823

  @DF-RHF Final Energy:  -458.68674067187476

   => Energetics <=

    Nuclear Repulsion Energy =            518.6056207485592040
    One-Electron Energy =               -1653.3758963784193838
    Two-Electron Energy =                 676.0835349579854210
    Total Energy =                       -458.6867406718747588

  Dipole Moment: [D]
     X:     0.6558      Y:    -1.5182      Z:     0.0973     Total:     1.6566

  Basis Set: (AUG-CC-PVQZ AUX)
    Blend: AUG-CC-PVQZ-RI
	 Reference Energy          =    -458.6867406718747588 [Eh]
	 Singles Energy            =      -0.0000000000000000 [Eh]
	 Same-Spin Energy          =      -0.5094304585025140 [Eh]
	 Opposite-Spin Energy      =      -1.6900544984037431 [Eh]
	 Correlation Energy        =      -2.1994849569062573 [Eh]
	 Total Energy              =    -460.8862256287810055 [Eh]

	 ================> DF-SCS-MP2 Energies <==================
	-----------------------------------------------------------
	 SCS Same-Spin Scale       =       0.3333333333333333 [-]
	 SCS Opposite-Spin Scale   =       1.2000000000000000 [-]
	 SCS Same-Spin Energy      =      -0.1698101528341713 [Eh]
	 SCS Opposite-Spin Energy  =      -2.0280653980844918 [Eh]
	 SCS Correlation Energy    =      -2.1978755509186634 [Eh]
	 SCS Total Energy          =    -460.8846162227933974 [Eh]
	-----------------------------------------------------------

*** Psi4 exiting successfully. Buy a developer a beer!
