                               Psi4 1.4a2.dev224

  ==> Input File <==

--------------------------------------------------------------------------
#Generated by lconvert.py for cbs job

memory 40 GB

molecule  {
0 1
  C        0.9640800     0.8750930     0.3780140
  H        1.6598300     1.6999310     0.4460420
  C        1.4310570    -0.4131330     0.1189920
  H        2.4895250    -0.5872090    -0.0170130
  C        0.5341280    -1.4776390     0.0424180
  H        0.8969610    -2.4773880    -0.1520120
  C       -0.8303270    -1.2536040     0.2208560
  H       -1.5257600    -2.0796240     0.1641170
  C       -1.2975870     0.0344130     0.4802430
  H       -2.3543960     0.2080160     0.6285610
  C       -0.4004450     1.0997790     0.5616010
  H       -0.7604550     2.0937690     0.7847570
--
0 1
  C       -0.1086430     0.5117970     4.5118630
  O       -0.5768330     1.5612440     4.1326030
  O        0.2945690    -0.4657660     3.6725780
  H        0.1258650    -0.1398520     2.7711730
  C        0.1013110     0.1148100     5.9432690
  H       -0.2086550     0.9241470     6.5932580
  H       -0.4747700    -0.7818140     6.1602200
  H        1.1498090    -0.1213220     6.1082880
units angstrom
no_reorient
symmetry c1
}

set {
scf_type DF
mp2_type DF
e_convergence 7
reference rhf
}

energy('mp2/aug-cc-pv[tq]z', bsse_type='cp')
--------------------------------------------------------------------------

    Molecular point group: c1
  Charge       = 0
  Multiplicity = 1
  Basis Set: AUG-CC-PVTZ
    Blend: AUG-CC-PVTZ
  Basis Set: (AUG-CC-PVTZ AUX)
    Blend: AUG-CC-PVTZ-JKFIT
  @DF-RHF Final Energy:  -227.90516516827651
    Total Energy =                       -227.9051651682765112
  Basis Set: (AUG-CC-PVTZ AUX)
    Blend: AUG-CC-PVTZ-RI
	 Reference Energy          =    -227.9051651682765112 [Eh]
	 Singles Energy            =      -0.0000000000000000 [Eh]
	 Same-Spin Energy          =      -0.2149275941634077 [Eh]
	 Opposite-Spin Energy      =      -0.6692333288887460 [Eh]
	 Correlation Energy        =      -0.8841609230521537 [Eh]
	 Total Energy              =    -228.7893260913286611 [Eh]
	 SCS Total Energy          =    -228.7798876943307960 [Eh]
    Molecular point group: c1
  Basis Set: AUG-CC-PVQZ
    Blend: AUG-CC-PVQZ
  Basis Set: (AUG-CC-PVQZ AUX)
    Blend: AUG-CC-PVQZ-JKFIT
  @DF-RHF Final Energy:  -227.91989099035365
    Total Energy =                       -227.9198909903536503
  Basis Set: (AUG-CC-PVQZ AUX)
  @DF-RHF Final Energy:  -227.90533038309400
    Total Energy =                       -227.9053303830939967
  @DF-RHF Final Energy:  -227.91994166084001
    Total Energy =                       -227.9199416608400099
  @DF-RHF Final Energy:  -230.78134714004364
    Total Energy =                       -230.7813471400436356
  @DF-RHF Final Energy:  -230.79436206912555
    Total Energy =                       -230.7943620691255546
  @DF-RHF Final Energy:  -230.78114790830932
    Total Energy =                       -230.7811479083093218
  @DF-RHF Final Energy:  -230.79431902131867
    Total Energy =                       -230.7943190213186426
  Multiplicity = 1
  @DF-RHF Final Energy:  -458.68888737327512
    Total Energy =                       -458.6888873732750653
	 Singles Energy            =      -0.0000000000000000 [Eh]
	 Same-Spin Energy          =      -0.4735305068941309 [Eh]
	 Opposite-Spin Energy      =      -1.4939549135250048 [Eh]
	 Correlation Energy        =      -1.9674854204191357 [Eh]
	 Total Energy              =    -460.6563727936942314 [Eh]
	 SCS Total Energy          =    -460.6394767718031744 [Eh]
    Molecular point group: c1

    Geometry (in Angstrom), charge = 0, multiplicity = 1:

       Center              X                  Y                   Z               Mass
    ------------   -----------------  -----------------  -----------------  -----------------
         C            0.955288232592     0.801585401164    -1.762969326601    12.000000000000
         H            1.651038232592     1.626423401164    -1.694941326601     1.007825032230
         C            1.422265232592    -0.486640598836    -2.021991326601    12.000000000000
         H            2.480733232592    -0.660716598836    -2.157996326601     1.007825032230
         C            0.525336232592    -1.551146598836    -2.098565326601    12.000000000000
         H            0.888169232592    -2.550895598836    -2.292995326601     1.007825032230
         C           -0.839118767408    -1.327111598836    -1.920127326601    12.000000000000
         H           -1.534551767408    -2.153131598836    -1.976866326601     1.007825032230
         C           -1.306378767408    -0.039094598836    -1.660740326601    12.000000000000
         H           -2.363187767408     0.134508401164    -1.512422326601     1.007825032230
         C           -0.409236767408     1.026271401164    -1.579382326601    12.000000000000
         H           -0.769246767408     2.020261401164    -1.356226326601     1.007825032230
         C           -0.117434767408     0.438289401164     2.370879673399    12.000000000000
         O           -0.585624767408     1.487736401164     1.991619673399    15.994914619570
         O            0.285777232592    -0.539273598836     1.531594673399    15.994914619570
         H            0.117073232592    -0.213359598836     0.630189673399     1.007825032230
         C            0.092519232592     0.041302401164     3.802285673399    12.000000000000
         H           -0.217446767408     0.850639401164     4.452274673399     1.007825032230
         H           -0.483561767408    -0.855321598836     4.019236673399     1.007825032230
         H            1.141017232592    -0.194829598836     3.967304673399     1.007825032230

  Charge       = 0
  Multiplicity = 1
  Basis Set: AUG-CC-PVQZ
    Blend: AUG-CC-PVQZ
  Basis Set: (AUG-CC-PVQZ AUX)
    Blend: AUG-CC-PVQZ-JKFIT

    Orbital Energies [Eh]
    ---------------------

    Doubly Occupied:

       1A    -20.597115     2A    -20.538248     3A    -11.378706
       4A    -11.242276     5A    -11.241781     6A    -11.241078
       7A    -11.240248     8A    -11.240202     9A    -11.239185
      10A    -11.236595    11A     -1.452498    12A     -1.349703
      13A     -1.158020    14A     -1.021914    15A     -1.021792
      16A     -1.020248    17A     -0.830510    18A     -0.830277
      19A     -0.812314    20A     -0.716245    21A     -0.696527
      22A     -0.671000    23A     -0.649801    24A     -0.641671
      25A     -0.625607    26A     -0.594764    27A     -0.594210
      28A     -0.575665    29A     -0.566922    30A     -0.553525
      31A     -0.510569    32A     -0.501092    33A     -0.500907
      34A     -0.473449    35A     -0.446056    36A     -0.345685
      37A     -0.344810

  @DF-RHF Final Energy:  -458.71651287358111

   => Energetics <=

    Nuclear Repulsion Energy =            483.5103598070711541
    One-Electron Energy =               -1583.0513187293825013
    Two-Electron Energy =                 640.8244460487302376
    Total Energy =                       -458.7165128735811095

  Dipole Moment: [D]
     X:     0.7185      Y:    -1.6599      Z:     0.1388     Total:     1.8141

  Basis Set: (AUG-CC-PVQZ AUX)
    Blend: AUG-CC-PVQZ-RI
	 Reference Energy          =    -458.7165128735811095 [Eh]
	 Singles Energy            =      -0.0000000000000000 [Eh]
	 Same-Spin Energy          =      -0.5013663863496780 [Eh]
	 Opposite-Spin Energy      =      -1.6799661332464131 [Eh]
	 Correlation Energy        =      -2.1813325195960909 [Eh]
	 Total Energy              =    -460.8978453931771924 [Eh]

	 ================> DF-SCS-MP2 Energies <==================
	-----------------------------------------------------------
	 SCS Same-Spin Scale       =       0.3333333333333333 [-]
	 SCS Opposite-Spin Scale   =       1.2000000000000000 [-]
	 SCS Same-Spin Energy      =      -0.1671221287832260 [Eh]
	 SCS Opposite-Spin Energy  =      -2.0159593598956955 [Eh]
	 SCS Correlation Energy    =      -2.1830814886789214 [Eh]
	 SCS Total Energy          =    -460.8995943622600180 [Eh]
	-----------------------------------------------------------

*** Psi4 exiting successfully. Buy a developer a beer!
