                               Psi4 1.4a2.dev224

  ==> Input File <==

--------------------------------------------------------------------------
#Generated by lconvert.py for cbs job

memory 40 GB

molecule  {
0 1
  C        0.9640800     0.8750930     0.3780140
  H        1.6598300     1.6999310     0.4460420
  C        1.4310570    -0.4131330     0.1189920
  H        2.4895250    -0.5872090    -0.0170130
  C        0.5341280    -1.4776390     0.0424180
  H        0.8969610    -2.4773880    -0.1520120
  C       -0.8303270    -1.2536040     0.2208560
  H       -1.5257600    -2.0796240     0.1641170
  C       -1.2975870     0.0344130     0.4802430
  H       -2.3543960     0.2080160     0.6285610
  C       -0.4004450     1.0997790     0.5616010
  H       -0.7604550     2.0937690     0.7847570
--
0 1
  C       -0.0989980     0.4923620     4.6424340
  O       -0.5671880     1.5418090     4.2631740
  O        0.3042150    -0.4852010     3.8031490
  H        0.1355100    -0.1592870     2.9017430
  C        0.1109560     0.0953750     6.0738400
  H       -0.1990100     0.9047120     6.7238290
  H       -0.4651240    -0.8012490     6.2907910
  H        1.1594540    -0.1407570     6.2388580
units angstrom
no_reorient
symmetry c1
}

set {
scf_type DF
mp2_type DF
e_convergence 7
reference rhf
}

energy('mp2/aug-cc-pv[tq]z', bsse_type='cp')
--------------------------------------------------------------------------

    Molecular point group: c1
  Charge       = 0
  Multiplicity = 1
  Basis Set: AUG-CC-PVTZ
    Blend: AUG-CC-PVTZ
  Basis Set: (AUG-CC-PVTZ AUX)
    Blend: AUG-CC-PVTZ-JKFIT
  @DF-RHF Final Energy:  -227.90516509971218
    Total Energy =                       -227.9051650997121783
  Basis Set: (AUG-CC-PVTZ AUX)
    Blend: AUG-CC-PVTZ-RI
	 Reference Energy          =    -227.9051650997121783 [Eh]
	 Singles Energy            =      -0.0000000000000000 [Eh]
	 Same-Spin Energy          =      -0.2149276118893809 [Eh]
	 Opposite-Spin Energy      =      -0.6692333689921148 [Eh]
	 Correlation Energy        =      -0.8841609808814956 [Eh]
	 Total Energy              =    -228.7893260805936677 [Eh]
	 SCS Total Energy          =    -228.7798876797991738 [Eh]
    Molecular point group: c1
  Basis Set: AUG-CC-PVQZ
    Blend: AUG-CC-PVQZ
  Basis Set: (AUG-CC-PVQZ AUX)
    Blend: AUG-CC-PVQZ-JKFIT
  @DF-RHF Final Energy:  -227.91989091921488
    Total Energy =                       -227.9198909192148790
  Basis Set: (AUG-CC-PVQZ AUX)
  @DF-RHF Final Energy:  -227.90531232899497
    Total Energy =                       -227.9053123289949667
  @DF-RHF Final Energy:  -227.91993731246387
    Total Energy =                       -227.9199373124638726
  @DF-RHF Final Energy:  -230.78132304667108
    Total Energy =                       -230.7813230466711047
  @DF-RHF Final Energy:  -230.79435740078907
    Total Energy =                       -230.7943574007890675
  @DF-RHF Final Energy:  -230.78114790987829
    Total Energy =                       -230.7811479098783138
  @DF-RHF Final Energy:  -230.79431902279111
    Total Energy =                       -230.7943190227911145
  Multiplicity = 1
  @DF-RHF Final Energy:  -458.68930560947956
    Total Energy =                       -458.6893056094795611
	 Singles Energy            =      -0.0000000000000000 [Eh]
	 Same-Spin Energy          =      -0.4729743416304542 [Eh]
	 Opposite-Spin Energy      =      -1.4929958692744623 [Eh]
	 Correlation Energy        =      -1.9659702109049164 [Eh]
	 Total Energy              =    -460.6552758203844746 [Eh]
	 SCS Total Energy          =    -460.6385587664857439 [Eh]
    Molecular point group: c1

    Geometry (in Angstrom), charge = 0, multiplicity = 1:

       Center              X                  Y                   Z               Mass
    ------------   -----------------  -----------------  -----------------  -----------------
         C            0.951095222901     0.810034208831    -1.819731301505    12.000000000000
         H            1.646845222901     1.634872208831    -1.751703301505     1.007825032230
         C            1.418072222901    -0.478191791169    -2.078753301505    12.000000000000
         H            2.476540222901    -0.652267791169    -2.214758301505     1.007825032230
         C            0.521143222901    -1.542697791169    -2.155327301505    12.000000000000
         H            0.883976222901    -2.542446791169    -2.349757301505     1.007825032230
         C           -0.843311777099    -1.318662791169    -1.976889301505    12.000000000000
         H           -1.538744777099    -2.144682791169    -2.033628301505     1.007825032230
         C           -1.310571777099    -0.030645791169    -1.717502301505    12.000000000000
         H           -2.367380777099     0.142957208831    -1.569184301505     1.007825032230
         C           -0.413429777099     1.034720208831    -1.636144301505    12.000000000000
         H           -0.773439777099     2.028710208831    -1.412988301505     1.007825032230
         C           -0.111982777099     0.427303208831     2.444688698495    12.000000000000
         O           -0.580172777099     1.476750208831     2.065428698495    15.994914619570
         O            0.291230222901    -0.550259791169     1.605403698495    15.994914619570
         H            0.122525222901    -0.224345791169     0.703997698495     1.007825032230
         C            0.097971222901     0.030316208831     3.876094698495    12.000000000000
         H           -0.211994777099     0.839653208831     4.526083698495     1.007825032230
         H           -0.478108777099    -0.866307791169     4.093045698495     1.007825032230
         H            1.146469222901    -0.205815791169     4.041112698495     1.007825032230

  Charge       = 0
  Multiplicity = 1
  Basis Set: AUG-CC-PVQZ
    Blend: AUG-CC-PVQZ
  Basis Set: (AUG-CC-PVQZ AUX)
    Blend: AUG-CC-PVQZ-JKFIT

    Orbital Energies [Eh]
    ---------------------

    Doubly Occupied:

       1A    -20.599076     2A    -20.539222     3A    -11.379671
       4A    -11.241834     5A    -11.241328     6A    -11.240725
       7A    -11.239836     8A    -11.239821     9A    -11.238855
      10A    -11.237284    11A     -1.453807    12A     -1.350799
      13A     -1.157297    14A     -1.021753    15A     -1.021244
      16A     -1.020637    17A     -0.830086    18A     -0.829884
      19A     -0.813398    20A     -0.715741    21A     -0.697408
      22A     -0.671983    23A     -0.649524    24A     -0.642701
      25A     -0.625184    26A     -0.594295    27A     -0.593828
      28A     -0.576467    29A     -0.567330    30A     -0.554460
      31A     -0.510334    32A     -0.500695    33A     -0.500588
      34A     -0.474471    35A     -0.447002    36A     -0.345015
      37A     -0.344224

  @DF-RHF Final Energy:  -458.71696684984272

   => Energetics <=

    Nuclear Repulsion Energy =            479.2672240137162021
    One-Electron Energy =               -1574.5527694611848801
    Two-Electron Energy =                 636.5685785976259012
    Total Energy =                       -458.7169668498427200

  Dipole Moment: [D]
     X:     0.7203      Y:    -1.6592      Z:     0.1818     Total:     1.8179

  Basis Set: (AUG-CC-PVQZ AUX)
    Blend: AUG-CC-PVQZ-RI
	 Reference Energy          =    -458.7169668498427200 [Eh]
	 Singles Energy            =      -0.0000000000000000 [Eh]
	 Same-Spin Energy          =      -0.5008247592338009 [Eh]
	 Opposite-Spin Energy      =      -1.6793086512416782 [Eh]
	 Correlation Energy        =      -2.1801334104754790 [Eh]
	 Total Energy              =    -460.8971002603182114 [Eh]

	 ================> DF-SCS-MP2 Energies <==================
	-----------------------------------------------------------
	 SCS Same-Spin Scale       =       0.3333333333333333 [-]
	 SCS Opposite-Spin Scale   =       1.2000000000000000 [-]
	 SCS Same-Spin Energy      =      -0.1669415864112669 [Eh]
	 SCS Opposite-Spin Energy  =      -2.0151703814900137 [Eh]
	 SCS Correlation Energy    =      -2.1821119679012808 [Eh]
	 SCS Total Energy          =    -460.8990788177439981 [Eh]
	-----------------------------------------------------------

*** Psi4 exiting successfully. Buy a developer a beer!
