                               Psi4 1.4a2.dev224

  ==> Input File <==

--------------------------------------------------------------------------
#Generated by lconvert.py for cbs job

memory 40 GB

molecule  {
0 1
  C        0.9640800     0.8750930     0.3780140
  H        1.6598300     1.6999310     0.4460420
  C        1.4310570    -0.4131330     0.1189920
  H        2.4895250    -0.5872090    -0.0170130
  C        0.5341280    -1.4776390     0.0424180
  H        0.8969610    -2.4773880    -0.1520120
  C       -0.8303270    -1.2536040     0.2208560
  H       -1.5257600    -2.0796240     0.1641170
  C       -1.2975870     0.0344130     0.4802430
  H       -2.3543960     0.2080160     0.6285610
  C       -0.4004450     1.0997790     0.5616010
  H       -0.7604550     2.0937690     0.7847570
--
0 1
  C       -0.1380900     0.5711320     4.1132320
  O       -0.6062790     1.6205790     3.7339720
  O        0.2651230    -0.4064310     3.2739470
  H        0.0964180    -0.0805180     2.3725420
  C        0.0718650     0.1741450     5.5446380
  H       -0.2381020     0.9834810     6.1946270
  H       -0.5042160    -0.7224790     5.7615890
  H        1.1203620    -0.0619870     5.7096570
units angstrom
no_reorient
symmetry c1
}

set {
scf_type DF
mp2_type DF
e_convergence 7
reference rhf
}

energy('mp2/aug-cc-pv[tq]z', bsse_type='cp')
--------------------------------------------------------------------------

    Molecular point group: c1
  Charge       = 0
  Multiplicity = 1
  Basis Set: AUG-CC-PVTZ
    Blend: AUG-CC-PVTZ
  Basis Set: (AUG-CC-PVTZ AUX)
    Blend: AUG-CC-PVTZ-JKFIT
  @DF-RHF Final Energy:  -227.90516521146955
    Total Energy =                       -227.9051652114695514
  Basis Set: (AUG-CC-PVTZ AUX)
    Blend: AUG-CC-PVTZ-RI
	 Reference Energy          =    -227.9051652114695514 [Eh]
	 Singles Energy            =      -0.0000000000000000 [Eh]
	 Same-Spin Energy          =      -0.2149275846678538 [Eh]
	 Opposite-Spin Energy      =      -0.6692333035856513 [Eh]
	 Correlation Energy        =      -0.8841608882535050 [Eh]
	 Total Energy              =    -228.7893260997230698 [Eh]
	 SCS Total Energy          =    -228.7798877039949446 [Eh]
    Molecular point group: c1
  Basis Set: AUG-CC-PVQZ
    Blend: AUG-CC-PVQZ
  Basis Set: (AUG-CC-PVQZ AUX)
    Blend: AUG-CC-PVQZ-JKFIT
  @DF-RHF Final Energy:  -227.91989103609220
    Total Energy =                       -227.9198910360921957
  Basis Set: (AUG-CC-PVQZ AUX)
  @DF-RHF Final Energy:  -227.90539594437786
    Total Energy =                       -227.9053959443778581
  @DF-RHF Final Energy:  -227.91995895595608
    Total Energy =                       -227.9199589559560764
  @DF-RHF Final Energy:  -230.78142007955555
    Total Energy =                       -230.7814200795555735
  @DF-RHF Final Energy:  -230.79437507706626
    Total Energy =                       -230.7943750770662632
  @DF-RHF Final Energy:  -230.78114791182330
    Total Energy =                       -230.7811479118232683
  @DF-RHF Final Energy:  -230.79431902383666
    Total Energy =                       -230.7943190238366924
  Multiplicity = 1
  @DF-RHF Final Energy:  -458.68366134050569
    Total Energy =                       -458.6836613405057506
	 Singles Energy            =      -0.0000000000000000 [Eh]
	 Same-Spin Energy          =      -0.4761281517036596 [Eh]
	 Opposite-Spin Energy      =      -1.4978851155775434 [Eh]
	 Correlation Energy        =      -1.9740132672812030 [Eh]
	 Total Energy              =    -460.6576746077868734 [Eh]
	 SCS Total Energy          =    -460.6398328630999686 [Eh]
    Molecular point group: c1

    Geometry (in Angstrom), charge = 0, multiplicity = 1:

       Center              X                  Y                   Z               Mass
    ------------   -----------------  -----------------  -----------------  -----------------
         C            0.968089143595     0.775791229863    -1.589675956424    12.000000000000
         H            1.663839143595     1.600629229863    -1.521647956424     1.007825032230
         C            1.435066143595    -0.512434770137    -1.848697956424    12.000000000000
         H            2.493534143595    -0.686510770137    -1.984702956424     1.007825032230
         C            0.538137143595    -1.576940770137    -1.925271956424    12.000000000000
         H            0.900970143595    -2.576689770137    -2.119701956424     1.007825032230
         C           -0.826317856405    -1.352905770137    -1.746833956424    12.000000000000
         H           -1.521750856405    -2.178925770137    -1.803572956424     1.007825032230
         C           -1.293577856405    -0.064888770137    -1.487446956424    12.000000000000
         H           -2.350386856405     0.108714229863    -1.339128956424     1.007825032230
         C           -0.396435856405     1.000477229863    -1.406088956424    12.000000000000
         H           -0.756445856405     1.994467229863    -1.182932956424     1.007825032230
         C           -0.134080856405     0.471830229863     2.145542043576    12.000000000000
         O           -0.602269856405     1.521277229863     1.766282043576    15.994914619570
         O            0.269132143595    -0.505732770137     1.306257043576    15.994914619570
         H            0.100427143595    -0.179819770137     0.404852043576     1.007825032230
         C            0.075874143595     0.074843229863     3.576948043576    12.000000000000
         H           -0.234092856405     0.884179229863     4.226937043576     1.007825032230
         H           -0.500206856405    -0.821780770137     3.793899043576     1.007825032230
         H            1.124371143595    -0.161288770137     3.741967043576     1.007825032230

  Charge       = 0
  Multiplicity = 1
  Basis Set: AUG-CC-PVQZ
    Blend: AUG-CC-PVQZ
  Basis Set: (AUG-CC-PVQZ AUX)
    Blend: AUG-CC-PVQZ-JKFIT

    Orbital Energies [Eh]
    ---------------------

    Doubly Occupied:

       1A    -20.588687     2A    -20.534586     3A    -11.375057
       4A    -11.243605     5A    -11.243145     6A    -11.242001
       7A    -11.241418     8A    -11.241172     9A    -11.239939
      10A    -11.233961    11A     -1.447712    12A     -1.345730
      13A     -1.160921    14A     -1.024018    15A     -1.023683
      16A     -1.017308    17A     -0.831874    18A     -0.831531
      19A     -0.808871    20A     -0.718313    21A     -0.693571
      22A     -0.667469    23A     -0.650487    24A     -0.637891
      25A     -0.626872    26A     -0.596376    27A     -0.595499
      28A     -0.573079    29A     -0.566372    30A     -0.550027
      31A     -0.509116    32A     -0.502345    33A     -0.501816
      34A     -0.469753    35A     -0.442381    36A     -0.347738
      37A     -0.346513

  @DF-RHF Final Energy:  -458.71115937168042

   => Energetics <=

    Nuclear Repulsion Energy =            497.9027096123785441
    One-Electron Energy =               -1611.8860674652491980
    Two-Electron Energy =                 655.2721984811901166
    Total Energy =                       -458.7111593716804236

  Dipole Moment: [D]
     X:     0.7160      Y:    -1.6696      Z:     0.0086     Total:     1.8167

  Basis Set: (AUG-CC-PVQZ AUX)
    Blend: AUG-CC-PVQZ-RI
	 Reference Energy          =    -458.7111593716804236 [Eh]
	 Singles Energy            =      -0.0000000000000000 [Eh]
	 Same-Spin Energy          =      -0.5039245765443983 [Eh]
	 Opposite-Spin Energy      =      -1.6831071391864016 [Eh]
	 Correlation Energy        =      -2.1870317157308001 [Eh]
	 Total Energy              =    -460.8981910874112486 [Eh]

	 ================> DF-SCS-MP2 Energies <==================
	-----------------------------------------------------------
	 SCS Same-Spin Scale       =       0.3333333333333333 [-]
	 SCS Opposite-Spin Scale   =       1.2000000000000000 [-]
	 SCS Same-Spin Energy      =      -0.1679748588481327 [Eh]
	 SCS Opposite-Spin Energy  =      -2.0197285670236820 [Eh]
	 SCS Correlation Energy    =      -2.1877034258718147 [Eh]
	 SCS Total Energy          =    -460.8988627975522263 [Eh]
	-----------------------------------------------------------

*** Psi4 exiting successfully. Buy a developer a beer!
