                               Psi4 1.4a2.dev224

  ==> Input File <==

--------------------------------------------------------------------------
#Generated by lconvert.py for cbs job

memory 40 GB

molecule  {
0 1
  C        0.9640800     0.8750930     0.3780140
  H        1.6598300     1.6999310     0.4460420
  C        1.4310570    -0.4131330     0.1189920
  H        2.4895250    -0.5872090    -0.0170130
  C        0.5341280    -1.4776390     0.0424180
  H        0.8969610    -2.4773880    -0.1520120
  C       -0.8303270    -1.2536040     0.2208560
  H       -1.5257600    -2.0796240     0.1641170
  C       -1.2975870     0.0344130     0.4802430
  H       -2.3543960     0.2080160     0.6285610
  C       -0.4004450     1.0997790     0.5616010
  H       -0.7604550     2.0937690     0.7847570
--
0 1
  C       -0.1183710     0.5313980     4.3801770
  O       -0.5865600     1.5808450     4.0009170
  O        0.2848420    -0.4461650     3.5408920
  H        0.1161370    -0.1202510     2.6394860
  C        0.0915840     0.1344110     5.8115830
  H       -0.2183830     0.9437480     6.4615720
  H       -0.4844970    -0.7622130     6.0285340
  H        1.1400810    -0.1017210     5.9766010
units angstrom
no_reorient
symmetry c1
}

set {
scf_type DF
mp2_type DF
e_convergence 7
reference rhf
}

energy('mp2/aug-cc-pv[tq]z', bsse_type='cp')
--------------------------------------------------------------------------

    Molecular point group: c1
  Charge       = 0
  Multiplicity = 1
  Basis Set: AUG-CC-PVTZ
    Blend: AUG-CC-PVTZ
  Basis Set: (AUG-CC-PVTZ AUX)
    Blend: AUG-CC-PVTZ-JKFIT
  @DF-RHF Final Energy:  -227.90516513883992
    Total Energy =                       -227.9051651388399193
  Basis Set: (AUG-CC-PVTZ AUX)
    Blend: AUG-CC-PVTZ-RI
	 Reference Energy          =    -227.9051651388399193 [Eh]
	 Singles Energy            =      -0.0000000000000000 [Eh]
	 Same-Spin Energy          =      -0.2149276019147636 [Eh]
	 Opposite-Spin Energy      =      -0.6692333456133783 [Eh]
	 Correlation Energy        =      -0.8841609475281420 [Eh]
	 Total Energy              =    -228.7893260863680496 [Eh]
	 SCS Total Energy          =    -228.7798876875475571 [Eh]
    Molecular point group: c1
  Basis Set: AUG-CC-PVQZ
    Blend: AUG-CC-PVQZ
  Basis Set: (AUG-CC-PVQZ AUX)
    Blend: AUG-CC-PVQZ-JKFIT
  @DF-RHF Final Energy:  -227.91989095996408
    Total Energy =                       -227.9198909599640785
  Basis Set: (AUG-CC-PVQZ AUX)
  @DF-RHF Final Energy:  -227.90534998942525
    Total Energy =                       -227.9053499894252468
  @DF-RHF Final Energy:  -227.91994652574769
    Total Energy =                       -227.9199465257476902
  @DF-RHF Final Energy:  -230.78137289218432
    Total Energy =                       -230.7813728921843222
  @DF-RHF Final Energy:  -230.79436680750462
    Total Energy =                       -230.7943668075046162
  @DF-RHF Final Energy:  -230.78114790649192
    Total Energy =                       -230.7811479064919240
  @DF-RHF Final Energy:  -230.79431902675819
    Total Energy =                       -230.7943190267582168
  Multiplicity = 1
  @DF-RHF Final Energy:  -458.68800949694867
    Total Energy =                       -458.6880094969486663
	 Singles Energy            =      -0.0000000000000000 [Eh]
	 Same-Spin Energy          =      -0.4742175747946504 [Eh]
	 Opposite-Spin Energy      =      -1.4950629713029406 [Eh]
	 Correlation Energy        =      -1.9692805460975911 [Eh]
	 Total Energy              =    -460.6572900430462596 [Eh]
	 SCS Total Energy          =    -460.6401575874437526 [Eh]
    Molecular point group: c1

    Geometry (in Angstrom), charge = 0, multiplicity = 1:

       Center              X                  Y                   Z               Mass
    ------------   -----------------  -----------------  -----------------  -----------------
         C            0.959516875089     0.793064429767    -1.705722608296    12.000000000000
         H            1.655266875089     1.617902429767    -1.637694608296     1.007825032230
         C            1.426493875089    -0.495161570233    -1.964744608296    12.000000000000
         H            2.484961875089    -0.669237570233    -2.100749608296     1.007825032230
         C            0.529564875089    -1.559667570233    -2.041318608296    12.000000000000
         H            0.892397875089    -2.559416570233    -2.235748608296     1.007825032230
         C           -0.834890124911    -1.335632570233    -1.862880608296    12.000000000000
         H           -1.530323124911    -2.161652570233    -1.919619608296     1.007825032230
         C           -1.302150124911    -0.047615570233    -1.603493608296    12.000000000000
         H           -2.358959124911     0.125987429767    -1.455175608296     1.007825032230
         C           -0.405008124911     1.017750429767    -1.522135608296    12.000000000000
         H           -0.765018124911     2.011740429767    -1.298979608296     1.007825032230
         C           -0.122934124911     0.449369429767     2.296440391704    12.000000000000
         O           -0.591123124911     1.498816429767     1.917180391704    15.994914619570
         O            0.280278875089    -0.528193570233     1.457155391704    15.994914619570
         H            0.111573875089    -0.202279570233     0.555749391704     1.007825032230
         C            0.087020875089     0.052382429767     3.727846391704    12.000000000000
         H           -0.222946124911     0.861719429767     4.377835391704     1.007825032230
         H           -0.489060124911    -0.844241570233     3.944797391704     1.007825032230
         H            1.135517875089    -0.183749570233     3.892864391704     1.007825032230

  Charge       = 0
  Multiplicity = 1
  Basis Set: AUG-CC-PVQZ
    Blend: AUG-CC-PVQZ
  Basis Set: (AUG-CC-PVQZ AUX)
    Blend: AUG-CC-PVQZ-JKFIT

    Orbital Energies [Eh]
    ---------------------

    Doubly Occupied:

       1A    -20.594788     2A    -20.537154     3A    -11.377622
       4A    -11.242726     5A    -11.242241     6A    -11.241415
       7A    -11.240661     8A    -11.240564     9A    -11.239489
      10A    -11.235816    11A     -1.451041    12A     -1.348489
      13A     -1.158842    14A     -1.022457    15A     -1.022379
      16A     -1.019442    17A     -0.830951    18A     -0.830683
      19A     -0.811173    20A     -0.716819    21A     -0.695587
      22A     -0.669915    23A     -0.650064    24A     -0.640524
      25A     -0.626035    26A     -0.595264    27A     -0.594613
      28A     -0.574812    29A     -0.566605    30A     -0.552476
      31A     -0.510542    32A     -0.501501    33A     -0.501224
      34A     -0.472317    35A     -0.444984    36A     -0.346380
      37A     -0.345407

  @DF-RHF Final Energy:  -458.71559539350471

   => Energetics <=

    Nuclear Repulsion Energy =            488.0139709549537201
    One-Electron Energy =               -1592.0731283609763977
    Two-Electron Energy =                 645.3435620125179639
    Total Energy =                       -458.7155953935047137

  Dipole Moment: [D]
     X:     0.7172      Y:    -1.6618      Z:     0.0947     Total:     1.8124

  Basis Set: (AUG-CC-PVQZ AUX)
    Blend: AUG-CC-PVQZ-RI
	 Reference Energy          =    -458.7155953935047137 [Eh]
	 Singles Energy            =      -0.0000000000000000 [Eh]
	 Same-Spin Energy          =      -0.5020395383384784 [Eh]
	 Opposite-Spin Energy      =      -1.6807870589890672 [Eh]
	 Correlation Energy        =      -2.1828265973275456 [Eh]
	 Total Energy              =    -460.8984219908322757 [Eh]

	 ================> DF-SCS-MP2 Energies <==================
	-----------------------------------------------------------
	 SCS Same-Spin Scale       =       0.3333333333333333 [-]
	 SCS Opposite-Spin Scale   =       1.2000000000000000 [-]
	 SCS Same-Spin Energy      =      -0.1673465127794928 [Eh]
	 SCS Opposite-Spin Energy  =      -2.0169444707868807 [Eh]
	 SCS Correlation Energy    =      -2.1842909835663735 [Eh]
	 SCS Total Energy          =    -460.8998863770710841 [Eh]
	-----------------------------------------------------------

*** Psi4 exiting successfully. Buy a developer a beer!
