                               Psi4 1.4a2.dev224

  ==> Input File <==

--------------------------------------------------------------------------
#Generated by lconvert.py for cbs job

memory 20 GB

molecule  {
0 1
  C       0.964080    0.875090    0.378010
  H       1.659830    1.699930    0.446040
  C       1.431060   -0.413130    0.118990
  H       2.489520   -0.587210   -0.017010
  C       0.534130   -1.477640    0.042420
  H       0.896960   -2.477390   -0.152010
  C      -0.830330   -1.253600    0.220860
  H      -1.525760   -2.079620    0.164120
  C      -1.297590    0.034410    0.480240
  H      -2.354400    0.208020    0.628560
  C      -0.400440    1.099780    0.561600
  H      -0.760450    2.093770    0.784760
--
0 1
  C      -0.136200    0.654360    5.706940
  O      -0.604390    1.703800    5.327680
  O       0.267010   -0.323210    4.867660
  H       0.098300    0.002710    3.966250
  C       0.073750    0.257370    7.138350
  H      -0.236220    1.066710    7.788340
  H      -0.502330   -0.639260    7.355300
  H       1.122250    0.021240    7.303370
units angstrom
no_reorient
symmetry c1
}

set {
scf_type DF
mp2_type DF
e_convergence 7
reference rhf
}

energy('mp2/aug-cc-pv[tq]z', bsse_type='cp')
--------------------------------------------------------------------------

    Molecular point group: c1
  Charge       = 0
  Multiplicity = 1
  Basis Set: AUG-CC-PVTZ
    Blend: AUG-CC-PVTZ
  Basis Set: (AUG-CC-PVTZ AUX)
    Blend: AUG-CC-PVTZ-JKFIT
  @DF-RHF Final Energy:  -227.90516510158125
    Total Energy =                       -227.9051651015812467
  Basis Set: (AUG-CC-PVTZ AUX)
    Blend: AUG-CC-PVTZ-RI
	 Reference Energy          =    -227.9051651015812467 [Eh]
	 Singles Energy            =      -0.0000000000000000 [Eh]
	 Same-Spin Energy          =      -0.2149275670796889 [Eh]
	 Opposite-Spin Energy      =      -0.6692333672817818 [Eh]
	 Correlation Energy        =      -0.8841609343614707 [Eh]
	 Total Energy              =    -228.7893260359427074 [Eh]
	 SCS Total Energy          =    -228.7798876646792792 [Eh]
    Molecular point group: c1
  Basis Set: AUG-CC-PVQZ
    Blend: AUG-CC-PVQZ
  Basis Set: (AUG-CC-PVQZ AUX)
    Blend: AUG-CC-PVQZ-JKFIT
  @DF-RHF Final Energy:  -227.91989092823991
    Total Energy =                       -227.9198909282399086
  Basis Set: (AUG-CC-PVQZ AUX)
  @DF-RHF Final Energy:  -227.90521566069125
    Total Energy =                       -227.9052156606912547
  @DF-RHF Final Energy:  -227.91991088619659
    Total Energy =                       -227.9199108861965897
  @DF-RHF Final Energy:  -230.78121441166707
    Total Energy =                       -230.7812144116670652
  @DF-RHF Final Energy:  -230.79433471744568
    Total Energy =                       -230.7943347174456790
  @DF-RHF Final Energy:  -230.78114791828136
    Total Energy =                       -230.7811479182813628
  @DF-RHF Final Energy:  -230.79431903775287
    Total Energy =                       -230.7943190377528708
  Multiplicity = 1
  @DF-RHF Final Energy:  -458.68830660956388
    Total Energy =                       -458.6883066095639379
	 Singles Energy            =      -0.0000000000000000 [Eh]
	 Same-Spin Energy          =      -0.4709587347167952 [Eh]
	 Opposite-Spin Energy      =      -1.4889502968417239 [Eh]
	 Correlation Energy        =      -1.9599090315585190 [Eh]
	 Total Energy              =    -460.6482156411224196 [Eh]
	 SCS Total Energy          =    -460.6320332106795377 [Eh]
    Molecular point group: c1

    Geometry (in Angstrom), charge = 0, multiplicity = 1:

       Center              X                  Y                   Z               Mass
    ------------   -----------------  -----------------  -----------------  -----------------
         C            0.967268267807     0.739609073820    -2.282499437115    12.000000000000
         H            1.663018267807     1.564449073820    -2.214469437115     1.007825032230
         C            1.434248267807    -0.548610926180    -2.541519437115    12.000000000000
         H            2.492708267807    -0.722690926180    -2.677519437115     1.007825032230
         C            0.537318267807    -1.613120926180    -2.618089437115    12.000000000000
         H            0.900148267807    -2.612870926180    -2.812519437115     1.007825032230
         C           -0.827141732193    -1.389080926180    -2.439649437115    12.000000000000
         H           -1.522571732193    -2.215100926180    -2.496389437115     1.007825032230
         C           -1.294401732193    -0.101070926180    -2.180269437115    12.000000000000
         H           -2.351211732193     0.072539073820    -2.031949437115     1.007825032230
         C           -0.397251732193     0.964299073820    -2.098909437115    12.000000000000
         H           -0.757261732193     1.958289073820    -1.875749437115     1.007825032230
         C           -0.133011732193     0.518879073820     3.046430562885    12.000000000000
         O           -0.601201732193     1.568319073820     2.667170562885    15.994914619570
         O            0.270198267807    -0.458690926180     2.207150562885    15.994914619570
         H            0.101488267807    -0.132770926180     1.305740562885     1.007825032230
         C            0.076938267807     0.121889073820     4.477840562885    12.000000000000
         H           -0.233031732193     0.931229073820     5.127830562885     1.007825032230
         H           -0.499141732193    -0.774740926180     4.694790562885     1.007825032230
         H            1.125438267807    -0.114240926180     4.642860562885     1.007825032230

  Charge       = 0
  Multiplicity = 1
  Basis Set: AUG-CC-PVQZ
    Blend: AUG-CC-PVQZ
  Basis Set: (AUG-CC-PVQZ AUX)
    Blend: AUG-CC-PVQZ-JKFIT

    Orbital Energies [Eh]
    ---------------------

    Doubly Occupied:

       1A    -20.607718     2A    -20.544298     3A    -11.384661
       4A    -11.240751     5A    -11.239289     6A    -11.238758
       7A    -11.238589     8A    -11.237500     9A    -11.237390
      10A    -11.236782    11A     -1.460502    12A     -1.356541
      13A     -1.153879    14A     -1.025382    15A     -1.018343
      16A     -1.018334    17A     -0.827770    18A     -0.827713
      19A     -0.819499    20A     -0.713338    21A     -0.702501
      22A     -0.677137    23A     -0.648014    24A     -0.647886
      25A     -0.622782    26A     -0.591819    27A     -0.591798
      28A     -0.581013    29A     -0.570801    30A     -0.559158
      31A     -0.507000    32A     -0.498757    33A     -0.498499
      34A     -0.479893    35A     -0.451904    36A     -0.341313
      37A     -0.341140

  @DF-RHF Final Energy:  -458.71611544471432

   => Energetics <=

    Nuclear Repulsion Energy =            450.8419042158499224
    One-Electron Energy =               -1517.6391358710607165
    Two-Electron Energy =                 608.0811162104965888
    Total Energy =                       -458.7161154447143190

  Dipole Moment: [D]
     X:     0.7572      Y:    -1.7273      Z:     0.4255     Total:     1.9334

  Basis Set: (AUG-CC-PVQZ AUX)
    Blend: AUG-CC-PVQZ-RI
	 Reference Energy          =    -458.7161154447143190 [Eh]
	 Singles Energy            =      -0.0000000000000000 [Eh]
	 Same-Spin Energy          =      -0.4988988237368256 [Eh]
	 Opposite-Spin Energy      =      -1.6769726156582052 [Eh]
	 Correlation Energy        =      -2.1758714393950309 [Eh]
	 Total Energy              =    -460.8919868841093717 [Eh]

	 ================> DF-SCS-MP2 Energies <==================
	-----------------------------------------------------------
	 SCS Same-Spin Scale       =       0.3333333333333333 [-]
	 SCS Opposite-Spin Scale   =       1.2000000000000000 [-]
	 SCS Same-Spin Energy      =      -0.1662996079122752 [Eh]
	 SCS Opposite-Spin Energy  =      -2.0123671387898461 [Eh]
	 SCS Correlation Energy    =      -2.1786667467021212 [Eh]
	 SCS Total Energy          =    -460.8947821914164251 [Eh]
	-----------------------------------------------------------

*** Psi4 exiting successfully. Buy a developer a beer!
