                               Psi4 1.4a2.dev224

  ==> Input File <==

--------------------------------------------------------------------------
#Generated by lconvert.py for cbs job

memory 20 GB

molecule  {
0 1
  C       0.964080    0.875090    0.378010
  H       1.659830    1.699930    0.446040
  C       1.431060   -0.413130    0.118990
  H       2.489520   -0.587210   -0.017010
  C       0.534130   -1.477640    0.042420
  H       0.896960   -2.477390   -0.152010
  C      -0.830330   -1.253600    0.220860
  H      -1.525760   -2.079620    0.164120
  C      -1.297590    0.034410    0.480240
  H      -2.354400    0.208020    0.628560
  C      -0.400440    1.099780    0.561600
  H      -0.760450    2.093770    0.784760
--
0 1
  C      -0.192010    0.897350    7.303700
  O      -0.660200    1.946790    6.924440
  O       0.211200   -0.080220    6.464420
  H       0.042490    0.245700    5.563010
  C       0.017940    0.500360    8.735110
  H      -0.292020    1.309700    9.385100
  H      -0.558140   -0.396260    8.952060
  H       1.066440    0.264230    8.900130
units angstrom
no_reorient
symmetry c1
}

set {
scf_type DF
mp2_type DF
e_convergence 7
reference rhf
}

energy('mp2/aug-cc-pv[tq]z', bsse_type='cp')
--------------------------------------------------------------------------

    Molecular point group: c1
  Charge       = 0
  Multiplicity = 1
  Basis Set: AUG-CC-PVTZ
    Blend: AUG-CC-PVTZ
  Basis Set: (AUG-CC-PVTZ AUX)
    Blend: AUG-CC-PVTZ-JKFIT
  @DF-RHF Final Energy:  -227.90516518544524
    Total Energy =                       -227.9051651854452416
  Basis Set: (AUG-CC-PVTZ AUX)
    Blend: AUG-CC-PVTZ-RI
	 Reference Energy          =    -227.9051651854452416 [Eh]
	 Singles Energy            =      -0.0000000000000000 [Eh]
	 Same-Spin Energy          =      -0.2149275671446303 [Eh]
	 Opposite-Spin Energy      =      -0.6692333082915284 [Eh]
	 Correlation Energy        =      -0.8841608754361587 [Eh]
	 Total Energy              =    -228.7893260608813932 [Eh]
	 SCS Total Energy          =    -228.7798876777766282 [Eh]
    Molecular point group: c1
  Basis Set: AUG-CC-PVQZ
    Blend: AUG-CC-PVQZ
  Basis Set: (AUG-CC-PVQZ AUX)
    Blend: AUG-CC-PVQZ-JKFIT
  @DF-RHF Final Energy:  -227.91989101958384
    Total Energy =                       -227.9198910195838437
  Basis Set: (AUG-CC-PVQZ AUX)
  @DF-RHF Final Energy:  -227.90517808395768
    Total Energy =                       -227.9051780839576793
  @DF-RHF Final Energy:  -227.91989591045518
    Total Energy =                       -227.9198959104551818
  @DF-RHF Final Energy:  -230.78116746602697
    Total Energy =                       -230.7811674660269432
  @DF-RHF Final Energy:  -230.79432405857904
    Total Energy =                       -230.7943240585790363
  @DF-RHF Final Energy:  -230.78114792008790
    Total Energy =                       -230.7811479200879035
  @DF-RHF Final Energy:  -230.79431903700731
    Total Energy =                       -230.7943190370073125
  Multiplicity = 1
  @DF-RHF Final Energy:  -458.68692944505574
    Total Energy =                       -458.6869294450557391
	 Singles Energy            =      -0.0000000000000000 [Eh]
	 Same-Spin Energy          =      -0.4704195505592551 [Eh]
	 Opposite-Spin Energy      =      -1.4878502505952884 [Eh]
	 Correlation Energy        =      -1.9582698011545436 [Eh]
	 Total Energy              =    -460.6451992462102680 [Eh]
	 SCS Total Energy          =    -460.6291562626231553 [Eh]
    Molecular point group: c1

    Geometry (in Angstrom), charge = 0, multiplicity = 1:

       Center              X                  Y                   Z               Mass
    ------------   -----------------  -----------------  -----------------  -----------------
         C            0.991529988274     0.633976082113    -2.976644954559    12.000000000000
         H            1.687279988274     1.458816082113    -2.908614954559     1.007825032230
         C            1.458509988274    -0.654243917887    -3.235664954559    12.000000000000
         H            2.516969988274    -0.828323917887    -3.371664954559     1.007825032230
         C            0.561579988274    -1.718753917887    -3.312234954559    12.000000000000
         H            0.924409988274    -2.718503917887    -3.506664954559     1.007825032230
         C           -0.802880011726    -1.494713917887    -3.133794954559    12.000000000000
         H           -1.498310011726    -2.320733917887    -3.190534954559     1.007825032230
         C           -1.270140011726    -0.206703917887    -2.874414954559    12.000000000000
         H           -2.326950011726    -0.033093917887    -2.726094954559     1.007825032230
         C           -0.372990011726     0.858666082113    -2.793054954559    12.000000000000
         H           -0.733000011726     1.852656082113    -2.569894954559     1.007825032230
         C           -0.164560011726     0.656236082113     3.949045045441    12.000000000000
         O           -0.632750011726     1.705676082113     3.569785045441    15.994914619570
         O            0.238649988274    -0.321333917887     3.109765045441    15.994914619570
         H            0.069939988274     0.004586082113     2.208355045441     1.007825032230
         C            0.045389988274     0.259246082113     5.380455045441    12.000000000000
         H           -0.264570011726     1.068586082113     6.030445045441     1.007825032230
         H           -0.530690011726    -0.637373917887     5.597405045441     1.007825032230
         H            1.093889988274     0.023116082113     5.545475045441     1.007825032230

  Charge       = 0
  Multiplicity = 1
  Basis Set: AUG-CC-PVQZ
    Blend: AUG-CC-PVQZ
  Basis Set: (AUG-CC-PVQZ AUX)
    Blend: AUG-CC-PVQZ-JKFIT

    Orbital Energies [Eh]
    ---------------------

    Doubly Occupied:

       1A    -20.612068     2A    -20.547097     3A    -11.387476
       4A    -11.242721     5A    -11.237184     6A    -11.236631
       7A    -11.236577     8A    -11.235389     9A    -11.235338
      10A    -11.234751    11A     -1.464198    12A     -1.359752
      13A     -1.151491    14A     -1.027679    15A     -1.016194
      16A     -1.016091    17A     -0.825760    18A     -0.825733
      19A     -0.823115    20A     -0.711381    21A     -0.705573
      22A     -0.680073    23A     -0.651024    24A     -0.646190
      25A     -0.620683    26A     -0.589979    27A     -0.589782
      28A     -0.583790    29A     -0.573183    30A     -0.561792
      31A     -0.504231    32A     -0.496972    33A     -0.496563
      34A     -0.482953    35A     -0.454640    36A     -0.338734
      37A     -0.338692

  @DF-RHF Final Energy:  -458.71480055618412

   => Energetics <=

    Nuclear Repulsion Energy =            423.2267571804171098
    One-Electron Energy =               -1462.4001505639605512
    Two-Electron Energy =                 580.4585928273594391
    Total Energy =                       -458.7148005561840591

  Dipole Moment: [D]
     X:     0.7722      Y:    -1.7504      Z:     0.5927     Total:     2.0029

  Basis Set: (AUG-CC-PVQZ AUX)
    Blend: AUG-CC-PVQZ-RI
	 Reference Energy          =    -458.7148005561841160 [Eh]
	 Singles Energy            =      -0.0000000000000000 [Eh]
	 Same-Spin Energy          =      -0.4984102822071028 [Eh]
	 Opposite-Spin Energy      =      -1.6763952359909369 [Eh]
	 Correlation Energy        =      -2.1748055181980397 [Eh]
	 Total Energy              =    -460.8896060743821295 [Eh]

	 ================> DF-SCS-MP2 Energies <==================
	-----------------------------------------------------------
	 SCS Same-Spin Scale       =       0.3333333333333333 [-]
	 SCS Opposite-Spin Scale   =       1.2000000000000000 [-]
	 SCS Same-Spin Energy      =      -0.1661367607357009 [Eh]
	 SCS Opposite-Spin Energy  =      -2.0116742831891243 [Eh]
	 SCS Correlation Energy    =      -2.1778110439248253 [Eh]
	 SCS Total Energy          =    -460.8926116001089213 [Eh]
	-----------------------------------------------------------

*** Psi4 exiting successfully. Buy a developer a beer!
