                               Psi4 1.4a2.dev224

  ==> Input File <==

--------------------------------------------------------------------------
#Generated by lconvert.py for cbs job

memory 40 GB

molecule  {
0 1
  C        0.9640800     0.8750930     0.3780140
  H        1.6598300     1.6999310     0.4460420
  C        1.4310570    -0.4131330     0.1189920
  H        2.4895250    -0.5872090    -0.0170130
  C        0.5341280    -1.4776390     0.0424180
  H        0.8969610    -2.4773880    -0.1520120
  C       -0.8303270    -1.2536040     0.2208560
  H       -1.5257600    -2.0796240     0.1641170
  C       -1.2975870     0.0344130     0.4802430
  H       -2.3543960     0.2080160     0.6285610
  C       -0.4004450     1.0997790     0.5616010
  H       -0.7604550     2.0937690     0.7847570
--
0 1
  C       -0.1281730     0.5511500     4.2474800
  O       -0.5963620     1.6005960     3.8682200
  O        0.2750400    -0.4264140     3.4081950
  H        0.1063350    -0.1005000     2.5067890
  C        0.0817810     0.1541630     5.6788860
  H       -0.2281850     0.9634990     6.3288750
  H       -0.4942990    -0.7424610     5.8958370
  H        1.1302790    -0.0819700     5.8439040
units angstrom
no_reorient
symmetry c1
}

set {
scf_type DF
mp2_type DF
e_convergence 7
reference rhf
}

energy('mp2/aug-cc-pv[tq]z', bsse_type='cp')
--------------------------------------------------------------------------

    Molecular point group: c1
  Charge       = 0
  Multiplicity = 1
  Basis Set: AUG-CC-PVTZ
    Blend: AUG-CC-PVTZ
  Basis Set: (AUG-CC-PVTZ AUX)
    Blend: AUG-CC-PVTZ-JKFIT
  @DF-RHF Final Energy:  -227.90516519580078
    Total Energy =                       -227.9051651958007767
  Basis Set: (AUG-CC-PVTZ AUX)
    Blend: AUG-CC-PVTZ-RI
	 Reference Energy          =    -227.9051651958007767 [Eh]
	 Singles Energy            =      -0.0000000000000000 [Eh]
	 Same-Spin Energy          =      -0.2149275880173052 [Eh]
	 Opposite-Spin Energy      =      -0.6692333151124781 [Eh]
	 Correlation Energy        =      -0.8841609031297832 [Eh]
	 Total Energy              =    -228.7893260989305588 [Eh]
	 SCS Total Energy          =    -228.7798877032748521 [Eh]
    Molecular point group: c1
  Basis Set: AUG-CC-PVQZ
    Blend: AUG-CC-PVQZ
  Basis Set: (AUG-CC-PVQZ AUX)
    Blend: AUG-CC-PVQZ-JKFIT
  @DF-RHF Final Energy:  -227.91989102006912
    Total Energy =                       -227.9198910200691159
  Basis Set: (AUG-CC-PVQZ AUX)
  @DF-RHF Final Energy:  -227.90537176761620
    Total Energy =                       -227.9053717676162023
  @DF-RHF Final Energy:  -227.91995228923355
    Total Energy =                       -227.9199522892335494
  @DF-RHF Final Energy:  -230.78139817003620
    Total Energy =                       -230.7813981700361978
  @DF-RHF Final Energy:  -230.79437122943105
    Total Energy =                       -230.7943712294310217
  @DF-RHF Final Energy:  -230.78114791014735
    Total Energy =                       -230.7811479101473537
  @DF-RHF Final Energy:  -230.79431902737221
    Total Energy =                       -230.7943190273722394
  Multiplicity = 1
  @DF-RHF Final Energy:  -458.68640585440892
    Total Energy =                       -458.6864058544089175
	 Singles Energy            =      -0.0000000000000000 [Eh]
	 Same-Spin Energy          =      -0.4750681399841195 [Eh]
	 Opposite-Spin Energy      =      -1.4963534022733582 [Eh]
	 Correlation Energy        =      -1.9714215422574777 [Eh]
	 Total Energy              =    -460.6578273966663915 [Eh]
	 SCS Total Energy          =    -460.6403859837982964 [Eh]
    Molecular point group: c1

    Geometry (in Angstrom), charge = 0, multiplicity = 1:

       Center              X                  Y                   Z               Mass
    ------------   -----------------  -----------------  -----------------  -----------------
         C            0.963778099783     0.784478069055    -1.648036401396    12.000000000000
         H            1.659528099783     1.609316069055    -1.580008401396     1.007825032230
         C            1.430755099783    -0.503747930945    -1.907058401396    12.000000000000
         H            2.489223099783    -0.677823930945    -2.043063401396     1.007825032230
         C            0.533826099783    -1.568253930945    -1.983632401396    12.000000000000
         H            0.896659099783    -2.568002930945    -2.178062401396     1.007825032230
         C           -0.830628900217    -1.344218930945    -1.805194401396    12.000000000000
         H           -1.526061900217    -2.170238930945    -1.861933401396     1.007825032230
         C           -1.297888900217    -0.056201930945    -1.545807401396    12.000000000000
         H           -2.354697900217     0.117401069055    -1.397489401396     1.007825032230
         C           -0.400746900217     1.009164069055    -1.464449401396    12.000000000000
         H           -0.760756900217     2.003154069055    -1.241293401396     1.007825032230
         C           -0.128474900217     0.460535069055     2.221429598604    12.000000000000
         O           -0.596663900217     1.509981069055     1.842169598604    15.994914619570
         O            0.274738099783    -0.517028930945     1.382144598604    15.994914619570
         H            0.106033099783    -0.191114930945     0.480738598604     1.007825032230
         C            0.081479099783     0.063548069055     3.652835598604    12.000000000000
         H           -0.228486900217     0.872884069055     4.302824598604     1.007825032230
         H           -0.494600900217    -0.833075930945     3.869786598604     1.007825032230
         H            1.129977099783    -0.172584930945     3.817853598604     1.007825032230

  Charge       = 0
  Multiplicity = 1
  Basis Set: AUG-CC-PVQZ
    Blend: AUG-CC-PVQZ
  Basis Set: (AUG-CC-PVQZ AUX)
    Blend: AUG-CC-PVQZ-JKFIT

    Orbital Energies [Eh]
    ---------------------

    Doubly Occupied:

       1A    -20.592016     2A    -20.535936     3A    -11.376409
       4A    -11.243173     5A    -11.242700     6A    -11.241726
       7A    -11.241058     8A    -11.240894     9A    -11.239747
      10A    -11.234941    11A     -1.449442    12A     -1.347161
      13A     -1.159792    14A     -1.023160    15A     -1.023006
      16A     -1.018452    17A     -0.831406    18A     -0.831100
      19A     -0.810008    20A     -0.717492    21A     -0.694598
      22A     -0.668733    23A     -0.650300    24A     -0.639262
      25A     -0.626460    26A     -0.595799    27A     -0.595039
      28A     -0.573932    29A     -0.566419    30A     -0.551311
      31A     -0.510113    32A     -0.501919    33A     -0.501530
      34A     -0.471082    35A     -0.443768    36A     -0.347077
      37A     -0.345989

  @DF-RHF Final Energy:  -458.71394884184463

   => Energetics <=

    Nuclear Repulsion Energy =            492.7964633548643860
    One-Electron Energy =               -1601.6549183285683284
    Two-Electron Energy =                 650.1445061318592025
    Total Energy =                       -458.7139488418446263

  Dipole Moment: [D]
     X:     0.7163      Y:    -1.6649      Z:     0.0506     Total:     1.8132

  Basis Set: (AUG-CC-PVQZ AUX)
    Blend: AUG-CC-PVQZ-RI
	 Reference Energy          =    -458.7139488418446263 [Eh]
	 Singles Energy            =      -0.0000000000000000 [Eh]
	 Same-Spin Energy          =      -0.5028770574369321 [Eh]
	 Opposite-Spin Energy      =      -1.6818150089450636 [Eh]
	 Correlation Energy        =      -2.1846920663819960 [Eh]
	 Total Energy              =    -460.8986409082266391 [Eh]

	 ================> DF-SCS-MP2 Energies <==================
	-----------------------------------------------------------
	 SCS Same-Spin Scale       =       0.3333333333333333 [-]
	 SCS Opposite-Spin Scale   =       1.2000000000000000 [-]
	 SCS Same-Spin Energy      =      -0.1676256858123107 [Eh]
	 SCS Opposite-Spin Energy  =      -2.0181780107340761 [Eh]
	 SCS Correlation Energy    =      -2.1858036965463867 [Eh]
	 SCS Total Energy          =    -460.8997525383909988 [Eh]
	-----------------------------------------------------------

*** Psi4 exiting successfully. Buy a developer a beer!
