                               Psi4 1.4a2.dev224

  ==> Input File <==

--------------------------------------------------------------------------
#Generated by lconvert.py for cbs job

memory 40 GB

molecule  {
0 1
  C        0.9640800     0.8750930     0.3780140
  H        1.6598300     1.6999310     0.4460420
  C        1.4310570    -0.4131330     0.1189920
  H        2.4895250    -0.5872090    -0.0170130
  C        0.5341280    -1.4776390     0.0424180
  H        0.8969610    -2.4773880    -0.1520120
  C       -0.8303270    -1.2536040     0.2208560
  H       -1.5257600    -2.0796240     0.1641170
  C       -1.2975870     0.0344130     0.4802430
  H       -2.3543960     0.2080160     0.6285610
  C       -0.4004450     1.0997790     0.5616010
  H       -0.7604550     2.0937690     0.7847570
--
0 1
  C       -0.0743190     0.3395990     3.1198070
  O       -0.5425080     1.3890460     2.7405470
  O        0.3288940    -0.6379640     2.2805220
  H        0.1601890    -0.3120510     1.3791170
  C        0.1356360    -0.0573880     4.5512130
  H       -0.1743310     0.7519490     5.2012020
  H       -0.4404450    -0.9540120     4.7681640
  H        1.1841330    -0.2935200     4.7162320
units angstrom
no_reorient
symmetry c1
}

set {
scf_type DF
mp2_type DF
e_convergence 7
reference rhf
}

energy('mp2/aug-cc-pv[tq]z', bsse_type='cp')
--------------------------------------------------------------------------

    Molecular point group: c1
  Charge       = 0
  Multiplicity = 1
  Basis Set: AUG-CC-PVTZ
    Blend: AUG-CC-PVTZ
  Basis Set: (AUG-CC-PVTZ AUX)
    Blend: AUG-CC-PVTZ-JKFIT
  @DF-RHF Final Energy:  -227.90516520464467
    Total Energy =                       -227.9051652046446748
  Basis Set: (AUG-CC-PVTZ AUX)
    Blend: AUG-CC-PVTZ-RI
	 Reference Energy          =    -227.9051652046446748 [Eh]
	 Singles Energy            =      -0.0000000000000000 [Eh]
	 Same-Spin Energy          =      -0.2149275848037445 [Eh]
	 Opposite-Spin Energy      =      -0.6692333081880399 [Eh]
	 Correlation Energy        =      -0.8841608929917845 [Eh]
	 Total Energy              =    -228.7893260976364616 [Eh]
	 SCS Total Energy          =    -228.7798877027382503 [Eh]
    Molecular point group: c1
  Basis Set: AUG-CC-PVQZ
    Blend: AUG-CC-PVQZ
  Basis Set: (AUG-CC-PVQZ AUX)
    Blend: AUG-CC-PVQZ-JKFIT
  @DF-RHF Final Energy:  -227.91989102890039
    Total Energy =                       -227.9198910289003948
  Basis Set: (AUG-CC-PVQZ AUX)
  @DF-RHF Final Energy:  -227.90569730601661
    Total Energy =                       -227.9056973060166058
  @DF-RHF Final Energy:  -227.92004128630072
    Total Energy =                       -227.9200412863007159
  @DF-RHF Final Energy:  -230.78165045613650
    Total Energy =                       -230.7816504561365036
  @DF-RHF Final Energy:  -230.79440828927312
    Total Energy =                       -230.7944082892731217
  @DF-RHF Final Energy:  -230.78114790797082
    Total Energy =                       -230.7811479079708192
  @DF-RHF Final Energy:  -230.79431902426171
    Total Energy =                       -230.7943190242617106
  Multiplicity = 1
  @DF-RHF Final Energy:  -458.54739986852530
    Total Energy =                       -458.5473998685253036
	 Singles Energy            =      -0.0000000000000000 [Eh]
	 Same-Spin Energy          =      -0.4955796218403374 [Eh]
	 Opposite-Spin Energy      =      -1.5253809482071685 [Eh]
	 Correlation Energy        =      -2.0209605700475057 [Eh]
	 Total Energy              =    -460.5683604385728245 [Eh]
	 SCS Total Energy          =    -460.5430502136539985 [Eh]
    Molecular point group: c1

    Geometry (in Angstrom), charge = 0, multiplicity = 1:

       Center              X                  Y                   Z               Mass
    ------------   -----------------  -----------------  -----------------  -----------------
         C            0.940366534190     0.876443539812    -1.157812989749    12.000000000000
         H            1.636116534190     1.701281539812    -1.089784989749     1.007825032230
         C            1.407343534190    -0.411782460188    -1.416834989749    12.000000000000
         H            2.465811534190    -0.585858460188    -1.552839989749     1.007825032230
         C            0.510414534190    -1.476288460188    -1.493408989749    12.000000000000
         H            0.873247534190    -2.476037460188    -1.687838989749     1.007825032230
         C           -0.854040465810    -1.252253460188    -1.314970989749    12.000000000000
         H           -1.549473465810    -2.078273460188    -1.371709989749     1.007825032230
         C           -1.321300465810     0.035763539812    -1.055583989749    12.000000000000
         H           -2.378109465810     0.209366539812    -0.907265989749     1.007825032230
         C           -0.424158465810     1.101129539812    -0.974225989749    12.000000000000
         H           -0.784168465810     2.095119539812    -0.751069989749     1.007825032230
         C           -0.098032465810     0.340949539812     1.583980010251    12.000000000000
         O           -0.566221465810     1.390396539812     1.204720010251    15.994914619570
         O            0.305180534190    -0.636613460188     0.744695010251    15.994914619570
         H            0.136475534190    -0.310700460188    -0.156709989749     1.007825032230
         C            0.111922534190    -0.056037460188     3.015386010251    12.000000000000
         H           -0.198044465810     0.753299539812     3.665375010251     1.007825032230
         H           -0.464158465810    -0.952661460188     3.232337010251     1.007825032230
         H            1.160419534190    -0.292169460188     3.180405010251     1.007825032230

  Charge       = 0
  Multiplicity = 1
  Basis Set: AUG-CC-PVQZ
    Blend: AUG-CC-PVQZ
  Basis Set: (AUG-CC-PVQZ AUX)
    Blend: AUG-CC-PVQZ-JKFIT

    Orbital Energies [Eh]
    ---------------------

    Doubly Occupied:

       1A    -20.559754     2A    -20.531369     3A    -11.368905
       4A    -11.242945     5A    -11.240194     6A    -11.240105
       7A    -11.230485     8A    -11.230443     9A    -11.229402
      10A    -11.229333    11A     -1.452685    12A     -1.351689
      13A     -1.175397    14A     -1.028762    15A     -1.027172
      16A     -1.012751    17A     -0.831686    18A     -0.829799
      19A     -0.818080    20A     -0.741114    21A     -0.679734
      22A     -0.671977    23A     -0.642003    24A     -0.639034
      25A     -0.622433    26A     -0.599515    27A     -0.595788
      28A     -0.576847    29A     -0.566987    30A     -0.548119
      31A     -0.500293    32A     -0.498202    33A     -0.489221
      34A     -0.471681    35A     -0.420842    36A     -0.339242
      37A     -0.325367

  @DF-RHF Final Energy:  -458.57467936906897

   => Energetics <=

    Nuclear Repulsion Energy =            548.0109615224693016
    One-Electron Energy =               -1712.0525692744395201
    Two-Electron Energy =                 705.4669283829013011
    Total Energy =                       -458.5746793690690311

  Dipole Moment: [D]
     X:     0.5686      Y:    -1.2627      Z:     0.8055     Total:     1.6021

  Basis Set: (AUG-CC-PVQZ AUX)
    Blend: AUG-CC-PVQZ-RI
	 Reference Energy          =    -458.5746793690689742 [Eh]
	 Singles Energy            =      -0.0000000000000000 [Eh]
	 Same-Spin Energy          =      -0.5234008334684710 [Eh]
	 Opposite-Spin Energy      =      -1.7078330092007328 [Eh]
	 Correlation Energy        =      -2.2312338426692038 [Eh]
	 Total Energy              =    -460.8059132117381864 [Eh]

	 ================> DF-SCS-MP2 Energies <==================
	-----------------------------------------------------------
	 SCS Same-Spin Scale       =       0.3333333333333333 [-]
	 SCS Opposite-Spin Scale   =       1.2000000000000000 [-]
	 SCS Same-Spin Energy      =      -0.1744669444894903 [Eh]
	 SCS Opposite-Spin Energy  =      -2.0493996110408794 [Eh]
	 SCS Correlation Energy    =      -2.2238665555303698 [Eh]
	 SCS Total Energy          =    -460.7985459245993525 [Eh]
	-----------------------------------------------------------

*** Psi4 exiting successfully. Buy a developer a beer!
