                               Psi4 1.4a2.dev224

  ==> Input File <==

--------------------------------------------------------------------------
#Generated by lconvert.py for cbs job

memory 20 GB

molecule  {
0 1
  C       0.964080    0.875090    0.378010
  H       1.659830    1.699930    0.446040
  C       1.431060   -0.413130    0.118990
  H       2.489520   -0.587210   -0.017010
  C       0.534130   -1.477640    0.042420
  H       0.896960   -2.477390   -0.152010
  C      -0.830330   -1.253600    0.220860
  H      -1.525760   -2.079620    0.164120
  C      -1.297590    0.034410    0.480240
  H      -2.354400    0.208020    0.628560
  C      -0.400440    1.099780    0.561600
  H      -0.760450    2.093770    0.784760
--
0 1
  C      -0.247820    1.140340    8.900470
  O      -0.716010    2.189790    8.521210
  O       0.155390    0.162780    8.061180
  H      -0.013310    0.488690    7.159770
  C      -0.037870    0.743350   10.331870
  H      -0.347830    1.552690   10.981860
  H      -0.613950   -0.153270   10.548820
  H       1.010630    0.507220   10.496890
units angstrom
no_reorient
symmetry c1
}

set {
scf_type DF
mp2_type DF
e_convergence 7
reference rhf
}

energy('mp2/aug-cc-pv[tq]z', bsse_type='cp')
--------------------------------------------------------------------------

    Molecular point group: c1
  Charge       = 0
  Multiplicity = 1
  Basis Set: AUG-CC-PVTZ
    Blend: AUG-CC-PVTZ
  Basis Set: (AUG-CC-PVTZ AUX)
    Blend: AUG-CC-PVTZ-JKFIT
  @DF-RHF Final Energy:  -227.90516490861532
    Total Energy =                       -227.9051649086153191
  Basis Set: (AUG-CC-PVTZ AUX)
    Blend: AUG-CC-PVTZ-RI
	 Reference Energy          =    -227.9051649086153191 [Eh]
	 Singles Energy            =      -0.0000000000000000 [Eh]
	 Same-Spin Energy          =      -0.2149276890890249 [Eh]
	 Opposite-Spin Energy      =      -0.6692334901299052 [Eh]
	 Correlation Energy        =      -0.8841611792189301 [Eh]
	 Total Energy              =    -228.7893260878342403 [Eh]
	 SCS Total Energy          =    -228.7798876598008917 [Eh]
    Molecular point group: c1
  Basis Set: AUG-CC-PVQZ
    Blend: AUG-CC-PVQZ
  Basis Set: (AUG-CC-PVQZ AUX)
    Blend: AUG-CC-PVQZ-JKFIT
  @DF-RHF Final Energy:  -227.91989071280892
    Total Energy =                       -227.9198907128089218
  Basis Set: (AUG-CC-PVQZ AUX)
  @DF-RHF Final Energy:  -227.90516750967225
    Total Energy =                       -227.9051675096722533
  @DF-RHF Final Energy:  -227.91989223432137
    Total Energy =                       -227.9198922343213667
  @DF-RHF Final Energy:  -230.78115186067282
    Total Energy =                       -230.7811518606728214
  @DF-RHF Final Energy:  -230.79432037270436
    Total Energy =                       -230.7943203727043624
  @DF-RHF Final Energy:  -230.78114792286925
    Total Energy =                       -230.7811479228692519
  @DF-RHF Final Energy:  -230.79431903540899
    Total Energy =                       -230.7943190354089893
  Multiplicity = 1
  @DF-RHF Final Energy:  -458.68653292930225
    Total Energy =                       -458.6865329293023024
	 Singles Energy            =      -0.0000000000000000 [Eh]
	 Same-Spin Energy          =      -0.4703343007481145 [Eh]
	 Opposite-Spin Energy      =      -1.4876694829234713 [Eh]
	 Correlation Energy        =      -1.9580037836715858 [Eh]
	 Total Energy              =    -460.6445367129738315 [Eh]
	 SCS Total Energy          =    -460.6285144090597896 [Eh]
    Molecular point group: c1

    Geometry (in Angstrom), charge = 0, multiplicity = 1:

       Center              X                  Y                   Z               Mass
    ------------   -----------------  -----------------  -----------------  -----------------
         C            1.015791708742     0.528340846439    -3.670792499621    12.000000000000
         H            1.711541708742     1.353180846439    -3.602762499621     1.007825032230
         C            1.482771708742    -0.759879153561    -3.929812499621    12.000000000000
         H            2.541231708742    -0.933959153561    -4.065812499621     1.007825032230
         C            0.585841708742    -1.824389153561    -4.006382499621    12.000000000000
         H            0.948671708742    -2.824139153561    -4.200812499621     1.007825032230
         C           -0.778618291258    -1.600349153561    -3.827942499621    12.000000000000
         H           -1.474048291258    -2.426369153561    -3.884682499621     1.007825032230
         C           -1.245878291258    -0.312339153561    -3.568562499621    12.000000000000
         H           -2.302688291258    -0.138729153561    -3.420242499621     1.007825032230
         C           -0.348728291258     0.753030846439    -3.487202499621    12.000000000000
         H           -0.708738291258     1.747020846439    -3.264042499621     1.007825032230
         C           -0.196108291258     0.793590846439     4.851667500379    12.000000000000
         O           -0.664298291258     1.843040846439     4.472407500379    15.994914619570
         O            0.207101708742    -0.183969153561     4.012377500379    15.994914619570
         H            0.038401708742     0.141940846439     3.110967500379     1.007825032230
         C            0.013841708742     0.396600846439     6.283067500379    12.000000000000
         H           -0.296118291258     1.205940846439     6.933057500379     1.007825032230
         H           -0.562238291258    -0.500019153561     6.500017500379     1.007825032230
         H            1.062341708742     0.160470846439     6.448087500379     1.007825032230

  Charge       = 0
  Multiplicity = 1
  Basis Set: AUG-CC-PVQZ
    Blend: AUG-CC-PVQZ
  Basis Set: (AUG-CC-PVQZ AUX)
    Blend: AUG-CC-PVQZ-JKFIT

    Orbital Energies [Eh]
    ---------------------

    Doubly Occupied:

       1A    -20.613566     2A    -20.548117     3A    -11.388507
       4A    -11.243467     5A    -11.236294     6A    -11.235732
       7A    -11.235704     8A    -11.234491     9A    -11.234462
      10A    -11.233868    11A     -1.465506    12A     -1.360902
      13A     -1.150532    14A     -1.028539    15A     -1.015291
      16A     -1.015159    17A     -0.824893    18A     -0.824860
      19A     -0.824407    20A     -0.710527    21A     -0.706697
      22A     -0.681140    23A     -0.652120    24A     -0.645398
      25A     -0.619785    26A     -0.589160    27A     -0.588912
      28A     -0.584819    29A     -0.574060    30A     -0.562757
      31A     -0.503186    32A     -0.496162    33A     -0.495714
      34A     -0.484059    35A     -0.455643    36A     -0.337717
      37A     -0.337708

  @DF-RHF Final Energy:  -458.71442519637378

   => Energetics <=

    Nuclear Repulsion Energy =            405.4131275225171862
    One-Electron Energy =               -1426.7753724239059920
    Two-Electron Energy =                 562.6478197050149674
    Total Energy =                       -458.7144251963737815

  Dipole Moment: [D]
     X:     0.7766      Y:    -1.7567      Z:     0.6489     Total:     2.0273

  Basis Set: (AUG-CC-PVQZ AUX)
    Blend: AUG-CC-PVQZ-RI
	 Reference Energy          =    -458.7144251963737815 [Eh]
	 Singles Energy            =      -0.0000000000000000 [Eh]
	 Same-Spin Energy          =      -0.4983353553072630 [Eh]
	 Opposite-Spin Energy      =      -1.6763145645221897 [Eh]
	 Correlation Energy        =      -2.1746499198294527 [Eh]
	 Total Energy              =    -460.8890751162032302 [Eh]

	 ================> DF-SCS-MP2 Energies <==================
	-----------------------------------------------------------
	 SCS Same-Spin Scale       =       0.3333333333333333 [-]
	 SCS Opposite-Spin Scale   =       1.2000000000000000 [-]
	 SCS Same-Spin Energy      =      -0.1661117851024210 [Eh]
	 SCS Opposite-Spin Energy  =      -2.0115774774266275 [Eh]
	 SCS Correlation Energy    =      -2.1776892625290483 [Eh]
	 SCS Total Energy          =    -460.8921144589028245 [Eh]
	-----------------------------------------------------------

*** Psi4 exiting successfully. Buy a developer a beer!
