                               Psi4 1.4a2.dev224

  ==> Input File <==

--------------------------------------------------------------------------
#Generated by lconvert.py for cbs job

memory 40 GB

molecule  {
0 1
  C        0.8555610     0.3585320     1.0497540
  H        1.5138260     0.9026800     1.7127660
  C        1.3428970    -0.6753790     0.2511570
  H        2.3928840    -0.9333450     0.2819630
  C        0.4778070    -1.3767010    -0.5878160
  H        0.8560840    -2.1789080    -1.2068240
  C       -0.8748300    -1.0425560    -0.6304520
  H       -1.5454060    -1.5857000    -1.2824160
  C       -1.3623970    -0.0070140     0.1658460
  H       -2.4115710     0.2534670     0.1307790
  C       -0.4984440     0.6931570     1.0069920
  H       -0.8661110     1.4903400     1.6380370
--
0 1
  C        0.0987450     0.5508390     4.7098510
  O        0.3452340     1.5942650     4.1226110
  N       -0.2053020    -0.6041670     4.0586830
  H       -0.1801020    -0.6111830     3.0520470
  H       -0.3610790    -1.4596600     4.5543850
  C        0.1215900     0.4559470     6.2182680
  H        1.1533030     0.5401600     6.5533420
  H       -0.3003140    -0.4706960     6.5992940
  H       -0.4278750     1.2997940     6.6250380
units angstrom
no_reorient
symmetry c1
}

set {
scf_type DF
mp2_type DF
e_convergence 7
reference rhf
}

energy('mp2/aug-cc-pv[tq]z', bsse_type='cp')
--------------------------------------------------------------------------

    Molecular point group: c1
  Charge       = 0
  Multiplicity = 1
  Basis Set: AUG-CC-PVTZ
    Blend: AUG-CC-PVTZ
  Basis Set: (AUG-CC-PVTZ AUX)
    Blend: AUG-CC-PVTZ-JKFIT
  @DF-RHF Final Energy:  -208.06294829613128
    Total Energy =                       -208.0629482961312817
  Basis Set: (AUG-CC-PVTZ AUX)
    Blend: AUG-CC-PVTZ-RI
	 Reference Energy          =    -208.0629482961312817 [Eh]
	 Singles Energy            =      -0.0000000000000000 [Eh]
	 Same-Spin Energy          =      -0.2045546261140112 [Eh]
	 Opposite-Spin Energy      =      -0.6558117736099487 [Eh]
	 Correlation Energy        =      -0.8603663997239599 [Eh]
	 Total Energy              =    -208.9233146958552538 [Eh]
	 SCS Total Energy          =    -208.9181072998345599 [Eh]
    Molecular point group: c1
  Basis Set: AUG-CC-PVQZ
    Blend: AUG-CC-PVQZ
  Basis Set: (AUG-CC-PVQZ AUX)
    Blend: AUG-CC-PVQZ-JKFIT
  @DF-RHF Final Energy:  -208.07612703970324
    Total Energy =                       -208.0761270397032376
  Basis Set: (AUG-CC-PVQZ AUX)
  @DF-RHF Final Energy:  -208.06309124076938
    Total Energy =                       -208.0630912407693813
  @DF-RHF Final Energy:  -208.07616595556743
    Total Energy =                       -208.0761659555674328
  @DF-RHF Final Energy:  -230.78127399533085
    Total Energy =                       -230.7812739953308210
  @DF-RHF Final Energy:  -230.79432308654106
    Total Energy =                       -230.7943230865410555
  @DF-RHF Final Energy:  -230.78111588634880
    Total Energy =                       -230.7811158863488004
  @DF-RHF Final Energy:  -230.79428674303131
    Total Energy =                       -230.7942867430313072
  Multiplicity = 1
  @DF-RHF Final Energy:  -438.84458637647322
    Total Energy =                       -438.8445863764732167
	 Singles Energy            =      -0.0000000000000000 [Eh]
	 Same-Spin Energy          =      -0.4639791313935728 [Eh]
	 Opposite-Spin Energy      =      -1.4810663645451974 [Eh]
	 Correlation Energy        =      -1.9450454959387702 [Eh]
	 Total Energy              =    -440.7896318724119737 [Eh]
	 SCS Total Energy          =    -440.7765257243920018 [Eh]
    Molecular point group: c1

    Geometry (in Angstrom), charge = 0, multiplicity = 1:

       Center              X                  Y                   Z               Mass
    ------------   -----------------  -----------------  -----------------  -----------------
         C            0.823459994994     0.345786217738    -1.123078528518    12.000000000000
         H            1.481724994994     0.889934217738    -0.460066528518     1.007825032230
         C            1.310795994994    -0.688124782262    -1.921675528518    12.000000000000
         H            2.360782994994    -0.946090782262    -1.890869528518     1.007825032230
         C            0.445705994994    -1.389446782262    -2.760648528518    12.000000000000
         H            0.823982994994    -2.191653782262    -3.379656528518     1.007825032230
         C           -0.906931005006    -1.055301782262    -2.803284528518    12.000000000000
         H           -1.577507005006    -1.598445782262    -3.455248528518     1.007825032230
         C           -1.394498005006    -0.019759782262    -2.006986528518    12.000000000000
         H           -2.443672005006     0.240721217738    -2.042053528518     1.007825032230
         C           -0.530545005006     0.680411217738    -1.165840528518    12.000000000000
         H           -0.898212005006     1.477594217738    -0.534795528518     1.007825032230
         C            0.066643994994     0.538093217738     2.537018471482    12.000000000000
         O            0.313132994994     1.581519217738     1.949778471482    15.994914619570
         N           -0.237403005006    -0.616912782262     1.885850471482    14.003074004430
         H           -0.212203005006    -0.623928782262     0.879214471482     1.007825032230
         H           -0.393180005006    -1.472405782262     2.381552471482     1.007825032230
         C            0.089488994994     0.443201217738     4.045435471482    12.000000000000
         H            1.121201994994     0.527414217738     4.380509471482     1.007825032230
         H           -0.332415005006    -0.483441782262     4.426461471482     1.007825032230
         H           -0.459976005006     1.287048217738     4.452205471482     1.007825032230

  Charge       = 0
  Multiplicity = 1
  Basis Set: AUG-CC-PVQZ
    Blend: AUG-CC-PVQZ
  Basis Set: (AUG-CC-PVQZ AUX)
    Blend: AUG-CC-PVQZ-JKFIT

    Orbital Energies [Eh]
    ---------------------

    Doubly Occupied:

       1A    -20.510839     2A    -15.577584     3A    -11.350482
       4A    -11.234888     5A    -11.234548     6A    -11.233977
       7A    -11.233060     8A    -11.232733     9A    -11.228946
      10A    -11.227731    11A     -1.374675    12A     -1.208735
      13A     -1.148999    14A     -1.013573    15A     -1.013208
      16A     -1.003306    17A     -0.822967    18A     -0.821408
      19A     -0.796574    20A     -0.724604    21A     -0.707003
      22A     -0.664001    23A     -0.641567    24A     -0.617160
      25A     -0.614011    26A     -0.586561    27A     -0.586430
      28A     -0.582197    29A     -0.561462    30A     -0.522926
      31A     -0.502049    32A     -0.492176    33A     -0.491748
      34A     -0.423717    35A     -0.411745    36A     -0.336951
      37A     -0.335696

  @DF-RHF Final Energy:  -438.87070803874514

   => Energetics <=

    Nuclear Repulsion Energy =            478.4541296729761939
    One-Electron Energy =               -1544.5092032735815337
    Two-Electron Energy =                 627.1843655618600906
    Total Energy =                       -438.8707080387451924

  Dipole Moment: [D]
     X:    -0.6929      Y:    -3.5504      Z:     1.4276     Total:     3.8889

  Basis Set: (AUG-CC-PVQZ AUX)
    Blend: AUG-CC-PVQZ-RI
	 Reference Energy          =    -438.8707080387451356 [Eh]
	 Singles Energy            =      -0.0000000000000000 [Eh]
	 Same-Spin Energy          =      -0.4909024068013036 [Eh]
	 Opposite-Spin Energy      =      -1.6624134113041777 [Eh]
	 Correlation Energy        =      -2.1533158181054812 [Eh]
	 Total Energy              =    -441.0240238568505902 [Eh]

	 ================> DF-SCS-MP2 Energies <==================
	-----------------------------------------------------------
	 SCS Same-Spin Scale       =       0.3333333333333333 [-]
	 SCS Opposite-Spin Scale   =       1.2000000000000000 [-]
	 SCS Same-Spin Energy      =      -0.1636341356004345 [Eh]
	 SCS Opposite-Spin Energy  =      -1.9948960935650133 [Eh]
	 SCS Correlation Energy    =      -2.1585302291654478 [Eh]
	 SCS Total Energy          =    -441.0292382679105572 [Eh]
	-----------------------------------------------------------

*** Psi4 exiting successfully. Buy a developer a beer!
