                               Psi4 1.4a2.dev224

  ==> Input File <==

--------------------------------------------------------------------------
#Generated by lconvert.py for cbs job

memory 40 GB

molecule  {
0 1
  C        0.8555610     0.3585320     1.0497540
  H        1.5138260     0.9026800     1.7127660
  C        1.3428970    -0.6753790     0.2511570
  H        2.3928840    -0.9333450     0.2819630
  C        0.4778070    -1.3767010    -0.5878160
  H        0.8560840    -2.1789080    -1.2068240
  C       -0.8748300    -1.0425560    -0.6304520
  H       -1.5454060    -1.5857000    -1.2824160
  C       -1.3623970    -0.0070140     0.1658460
  H       -2.4115710     0.2534670     0.1307790
  C       -0.4984440     0.6931570     1.0069920
  H       -0.8661110     1.4903400     1.6380370
--
0 1
  C        0.0578910     0.4213240     4.9403610
  O        0.3043800     1.4647500     4.3531210
  N       -0.2461560    -0.7336820     4.2891930
  H       -0.2209560    -0.7406980     3.2825570
  H       -0.4019330    -1.5891750     4.7848950
  C        0.0807360     0.3264320     6.4487780
  H        1.1124500     0.4106450     6.7838520
  H       -0.3411680    -0.6002110     6.8298040
  H       -0.4687290     1.1702790     6.8555490
units angstrom
no_reorient
symmetry c1
}

set {
scf_type DF
mp2_type DF
e_convergence 7
reference rhf
}

energy('mp2/aug-cc-pv[tq]z', bsse_type='cp')
--------------------------------------------------------------------------

    Molecular point group: c1
  Charge       = 0
  Multiplicity = 1
  Basis Set: AUG-CC-PVTZ
    Blend: AUG-CC-PVTZ
  Basis Set: (AUG-CC-PVTZ AUX)
    Blend: AUG-CC-PVTZ-JKFIT
  @DF-RHF Final Energy:  -208.06294828718015
    Total Energy =                       -208.0629482871801486
  Basis Set: (AUG-CC-PVTZ AUX)
    Blend: AUG-CC-PVTZ-RI
	 Reference Energy          =    -208.0629482871801486 [Eh]
	 Singles Energy            =      -0.0000000000000000 [Eh]
	 Same-Spin Energy          =      -0.2045546252896815 [Eh]
	 Opposite-Spin Energy      =      -0.6558117806457837 [Eh]
	 Correlation Energy        =      -0.8603664059354652 [Eh]
	 Total Energy              =    -208.9233146931156000 [Eh]
	 SCS Total Energy          =    -208.9181072990516554 [Eh]
    Molecular point group: c1
  Basis Set: AUG-CC-PVQZ
    Blend: AUG-CC-PVQZ
  Basis Set: (AUG-CC-PVQZ AUX)
    Blend: AUG-CC-PVQZ-JKFIT
  @DF-RHF Final Energy:  -208.07612702994896
    Total Energy =                       -208.0761270299489638
  Basis Set: (AUG-CC-PVQZ AUX)
  @DF-RHF Final Energy:  -208.06305692866530
    Total Energy =                       -208.0630569286653042
  @DF-RHF Final Energy:  -208.07616003734805
    Total Energy =                       -208.0761600373480462
  @DF-RHF Final Energy:  -230.78124218836831
    Total Energy =                       -230.7812421883683101
  @DF-RHF Final Energy:  -230.79431590185823
    Total Energy =                       -230.7943159018582264
  @DF-RHF Final Energy:  -230.78111589378153
    Total Energy =                       -230.7811158937815321
  @DF-RHF Final Energy:  -230.79428674542925
    Total Energy =                       -230.7942867454292468
  Multiplicity = 1
  @DF-RHF Final Energy:  -438.84663313204896
    Total Energy =                       -438.8466331320489644
	 Singles Energy            =      -0.0000000000000000 [Eh]
	 Same-Spin Energy          =      -0.4627274636316626 [Eh]
	 Opposite-Spin Energy      =      -1.4790644591790179 [Eh]
	 Correlation Energy        =      -1.9417919228106806 [Eh]
	 Total Energy              =    -440.7884250548596583 [Eh]
	 SCS Total Energy          =    -440.7757529709410278 [Eh]
    Molecular point group: c1

    Geometry (in Angstrom), charge = 0, multiplicity = 1:

       Center              X                  Y                   Z               Mass
    ------------   -----------------  -----------------  -----------------  -----------------
         C            0.841054317549     0.401563611331    -1.222350797748    12.000000000000
         H            1.499319317549     0.945711611331    -0.559338797748     1.007825032230
         C            1.328390317549    -0.632347388669    -2.020947797748    12.000000000000
         H            2.378377317549    -0.890313388669    -1.990141797748     1.007825032230
         C            0.463300317549    -1.333669388669    -2.859920797748    12.000000000000
         H            0.841577317549    -2.135876388669    -3.478928797748     1.007825032230
         C           -0.889336682451    -0.999524388669    -2.902556797748    12.000000000000
         H           -1.559912682451    -1.542668388669    -3.554520797748     1.007825032230
         C           -1.376903682451     0.036017611331    -2.106258797748    12.000000000000
         H           -2.426077682451     0.296498611331    -2.141325797748     1.007825032230
         C           -0.512950682451     0.736188611331    -1.265112797748    12.000000000000
         H           -0.880617682451     1.533371611331    -0.634067797748     1.007825032230
         C            0.043384317549     0.464355611331     2.668256202252    12.000000000000
         O            0.289873317549     1.507781611331     2.081016202252    15.994914619570
         N           -0.260662682451    -0.690650388669     2.017088202252    14.003074004430
         H           -0.235462682451    -0.697666388669     1.010452202252     1.007825032230
         H           -0.416439682451    -1.546143388669     2.512790202252     1.007825032230
         C            0.066229317549     0.369463611331     4.176673202252    12.000000000000
         H            1.097943317549     0.453676611331     4.511747202252     1.007825032230
         H           -0.355674682451    -0.557179388669     4.557699202252     1.007825032230
         H           -0.483235682451     1.213310611331     4.583444202252     1.007825032230

  Charge       = 0
  Multiplicity = 1
  Basis Set: AUG-CC-PVQZ
    Blend: AUG-CC-PVQZ
  Basis Set: (AUG-CC-PVQZ AUX)
    Blend: AUG-CC-PVQZ-JKFIT

    Orbital Energies [Eh]
    ---------------------

    Doubly Occupied:

       1A    -20.511357     2A    -15.580048     3A    -11.350993
       4A    -11.235100     5A    -11.234038     6A    -11.233165
       7A    -11.232304     8A    -11.231935     9A    -11.228994
      10A    -11.227794    11A     -1.374678    12A     -1.209914
      13A     -1.147992    14A     -1.012396    15A     -1.012178
      16A     -1.004113    17A     -0.821885    18A     -0.820682
      19A     -0.797701    20A     -0.724972    21A     -0.706576
      22A     -0.663988    23A     -0.640827    24A     -0.616441
      25A     -0.614474    26A     -0.586050    27A     -0.585743
      28A     -0.582471    29A     -0.561734    30A     -0.523213
      31A     -0.501446    32A     -0.491587    33A     -0.491514
      34A     -0.423924    35A     -0.412569    36A     -0.336037
      37A     -0.334902

  @DF-RHF Final Energy:  -438.87280589344755

   => Energetics <=

    Nuclear Repulsion Energy =            471.5463763636820431
    One-Electron Energy =               -1530.7069040727983520
    Two-Electron Energy =                 620.2877218156686467
    Total Energy =                       -438.8728058934475484

  Dipole Moment: [D]
     X:    -0.6978      Y:    -3.5727      Z:     1.4981     Total:     3.9364

  Basis Set: (AUG-CC-PVQZ AUX)
    Blend: AUG-CC-PVQZ-RI
	 Reference Energy          =    -438.8728058934475484 [Eh]
	 Singles Energy            =      -0.0000000000000000 [Eh]
	 Same-Spin Energy          =      -0.4896797949309829 [Eh]
	 Opposite-Spin Energy      =      -1.6609583169356077 [Eh]
	 Correlation Energy        =      -2.1506381118665905 [Eh]
	 Total Energy              =    -441.0234440053141611 [Eh]

	 ================> DF-SCS-MP2 Energies <==================
	-----------------------------------------------------------
	 SCS Same-Spin Scale       =       0.3333333333333333 [-]
	 SCS Opposite-Spin Scale   =       1.2000000000000000 [-]
	 SCS Same-Spin Energy      =      -0.1632265983103276 [Eh]
	 SCS Opposite-Spin Energy  =      -1.9931499803227291 [Eh]
	 SCS Correlation Energy    =      -2.1563765786330569 [Eh]
	 SCS Total Energy          =    -441.0291824720806062 [Eh]
	-----------------------------------------------------------

*** Psi4 exiting successfully. Buy a developer a beer!
