                               Psi4 1.4a2.dev224

  ==> Input File <==

--------------------------------------------------------------------------
#Generated by lconvert.py for cbs job

memory 40 GB

molecule  {
0 1
  C        0.8555610     0.3585320     1.0497540
  H        1.5138260     0.9026800     1.7127660
  C        1.3428970    -0.6753790     0.2511570
  H        2.3928840    -0.9333450     0.2819630
  C        0.4778070    -1.3767010    -0.5878160
  H        0.8560840    -2.1789080    -1.2068240
  C       -0.8748300    -1.0425560    -0.6304520
  H       -1.5454060    -1.5857000    -1.2824160
  C       -1.3623970    -0.0070140     0.1658460
  H       -2.4115710     0.2534670     0.1307790
  C       -0.4984440     0.6931570     1.0069920
  H       -0.8661110     1.4903400     1.6380370
--
0 1
  C        0.1193080     0.6160290     4.5938250
  O        0.3657980     1.6594560     4.0065860
  N       -0.1847390    -0.5389770     3.9426580
  H       -0.1595390    -0.5459920     2.9360210
  H       -0.3405150    -1.3944690     4.4383600
  C        0.1421530     0.5211380     6.1022430
  H        1.1738670     0.6053500     6.4373170
  H       -0.2797510    -0.4055050     6.4832690
  H       -0.4073120     1.3649840     6.5090130
units angstrom
no_reorient
symmetry c1
}

set {
scf_type DF
mp2_type DF
e_convergence 7
reference rhf
}

energy('mp2/aug-cc-pv[tq]z', bsse_type='cp')
--------------------------------------------------------------------------

    Molecular point group: c1
  Charge       = 0
  Multiplicity = 1
  Basis Set: AUG-CC-PVTZ
    Blend: AUG-CC-PVTZ
  Basis Set: (AUG-CC-PVTZ AUX)
    Blend: AUG-CC-PVTZ-JKFIT
  @DF-RHF Final Energy:  -208.06294824077168
    Total Energy =                       -208.0629482407716750
  Basis Set: (AUG-CC-PVTZ AUX)
    Blend: AUG-CC-PVTZ-RI
	 Reference Energy          =    -208.0629482407716750 [Eh]
	 Singles Energy            =      -0.0000000000000000 [Eh]
	 Same-Spin Energy          =      -0.2045546323092755 [Eh]
	 Opposite-Spin Energy      =      -0.6558117999092410 [Eh]
	 Correlation Energy        =      -0.8603664322185165 [Eh]
	 Total Energy              =    -208.9233146729901875 [Eh]
	 SCS Total Energy          =    -208.9181072780991997 [Eh]
    Molecular point group: c1
  Basis Set: AUG-CC-PVQZ
    Blend: AUG-CC-PVQZ
  Basis Set: (AUG-CC-PVQZ AUX)
    Blend: AUG-CC-PVQZ-JKFIT
  @DF-RHF Final Energy:  -208.07612698116790
    Total Energy =                       -208.0761269811679028
  Basis Set: (AUG-CC-PVQZ AUX)
  @DF-RHF Final Energy:  -208.06310983847976
    Total Energy =                       -208.0631098384797610
  @DF-RHF Final Energy:  -208.07616941546422
    Total Energy =                       -208.0761694154642214
  @DF-RHF Final Energy:  -230.78129050759867
    Total Energy =                       -230.7812905075986691
  @DF-RHF Final Energy:  -230.79432753009411
    Total Energy =                       -230.7943275300941082
  @DF-RHF Final Energy:  -230.78111589124313
    Total Energy =                       -230.7811158912431324
  @DF-RHF Final Energy:  -230.79428674613294
    Total Energy =                       -230.7942867461329115
  Multiplicity = 1
  @DF-RHF Final Energy:  -438.84237151986576
    Total Energy =                       -438.8423715198657646
	 Singles Energy            =      -0.0000000000000000 [Eh]
	 Same-Spin Energy          =      -0.4648250343071105 [Eh]
	 Opposite-Spin Energy      =      -1.4823637246969759 [Eh]
	 Correlation Energy        =      -1.9471887590040864 [Eh]
	 Total Energy              =    -440.7895602788698284 [Eh]
	 SCS Total Energy          =    -440.7761496676044999 [Eh]
    Molecular point group: c1

    Geometry (in Angstrom), charge = 0, multiplicity = 1:

       Center              X                  Y                   Z               Mass
    ------------   -----------------  -----------------  -----------------  -----------------
         C            0.814604128411     0.317711032670    -1.073110691732    12.000000000000
         H            1.472869128411     0.861859032670    -0.410098691732     1.007825032230
         C            1.301940128411    -0.716199967330    -1.871707691732    12.000000000000
         H            2.351927128411    -0.974165967330    -1.840901691732     1.007825032230
         C            0.436850128411    -1.417521967330    -2.710680691732    12.000000000000
         H            0.815127128411    -2.219728967330    -3.329688691732     1.007825032230
         C           -0.915786871589    -1.083376967330    -2.753316691732    12.000000000000
         H           -1.586362871589    -1.626520967330    -3.405280691732     1.007825032230
         C           -1.403353871589    -0.047834967330    -1.957018691732    12.000000000000
         H           -2.452527871589     0.212646032670    -1.992085691732     1.007825032230
         C           -0.539400871589     0.652336032670    -1.115872691732    12.000000000000
         H           -0.907067871589     1.449519032670    -0.484827691732     1.007825032230
         C            0.078351128411     0.575208032670     2.470960308268    12.000000000000
         O            0.324841128411     1.618635032670     1.883721308268    15.994914619570
         N           -0.225695871589    -0.579797967330     1.819793308268    14.003074004430
         H           -0.200495871589    -0.586812967330     0.813156308268     1.007825032230
         H           -0.381471871589    -1.435289967330     2.315495308268     1.007825032230
         C            0.101196128411     0.480317032670     3.979378308268    12.000000000000
         H            1.132910128411     0.564529032670     4.314452308268     1.007825032230
         H           -0.320707871589    -0.446325967330     4.360404308268     1.007825032230
         H           -0.448268871589     1.324163032670     4.386148308268     1.007825032230

  Charge       = 0
  Multiplicity = 1
  Basis Set: AUG-CC-PVQZ
    Blend: AUG-CC-PVQZ
  Basis Set: (AUG-CC-PVQZ AUX)
    Blend: AUG-CC-PVQZ-JKFIT

    Orbital Energies [Eh]
    ---------------------

    Doubly Occupied:

       1A    -20.510488     2A    -15.575842     3A    -11.350109
       4A    -11.235406     5A    -11.234473     6A    -11.234169
       7A    -11.233519     8A    -11.233216     9A    -11.228926
      10A    -11.227703    11A     -1.374686    12A     -1.208051
      13A     -1.149662    14A     -1.014651    15A     -1.013714
      16A     -1.002711    17A     -0.823810    18A     -0.821902
      19A     -0.795839    20A     -0.724629    21A     -0.707171
      22A     -0.664034    23A     -0.642140    24A     -0.617628
      25A     -0.613689    26A     -0.586894    27A     -0.586795
      28A     -0.582126    29A     -0.561354    30A     -0.522796
      31A     -0.502168    32A     -0.492614    33A     -0.491790
      34A     -0.423486    35A     -0.411230    36A     -0.337484
      37A     -0.336061

  @DF-RHF Final Energy:  -438.86846562622270

   => Energetics <=

    Nuclear Repulsion Energy =            482.1313676628943767
    One-Electron Energy =               -1551.8537382525296380
    Two-Electron Energy =                 630.8539049634126741
    Total Energy =                       -438.8684656262227008

  Dipole Moment: [D]
     X:    -0.6912      Y:    -3.5425      Z:     1.3828     Total:     3.8651

  Basis Set: (AUG-CC-PVQZ AUX)
    Blend: AUG-CC-PVQZ-RI
	 Reference Energy          =    -438.8684656262227008 [Eh]
	 Singles Energy            =      -0.0000000000000000 [Eh]
	 Same-Spin Energy          =      -0.4917383710194809 [Eh]
	 Opposite-Spin Energy      =      -1.6634362230846664 [Eh]
	 Correlation Energy        =      -2.1551745941041474 [Eh]
	 Total Energy              =    -441.0236402203268540 [Eh]

	 ================> DF-SCS-MP2 Energies <==================
	-----------------------------------------------------------
	 SCS Same-Spin Scale       =       0.3333333333333333 [-]
	 SCS Opposite-Spin Scale   =       1.2000000000000000 [-]
	 SCS Same-Spin Energy      =      -0.1639127903398270 [Eh]
	 SCS Opposite-Spin Energy  =      -1.9961234677015995 [Eh]
	 SCS Correlation Energy    =      -2.1600362580414263 [Eh]
	 SCS Total Energy          =    -441.0285018842641307 [Eh]
	-----------------------------------------------------------

*** Psi4 exiting successfully. Buy a developer a beer!
