                               Psi4 1.4a2.dev224

  ==> Input File <==

--------------------------------------------------------------------------
#Generated by lconvert.py for cbs job

memory 40 GB

molecule  {
0 1
  C        0.8555610     0.3585320     1.0497540
  H        1.5138260     0.9026800     1.7127660
  C        1.3428970    -0.6753790     0.2511570
  H        2.3928840    -0.9333450     0.2819630
  C        0.4778070    -1.3767010    -0.5878160
  H        0.8560840    -2.1789080    -1.2068240
  C       -0.8748300    -1.0425560    -0.6304520
  H       -1.5454060    -1.5857000    -1.2824160
  C       -1.3623970    -0.0070140     0.1658460
  H       -2.4115710     0.2534670     0.1307790
  C       -0.4984440     0.6931570     1.0069920
  H       -0.8661110     1.4903400     1.6380370
--
0 1
  C        0.0782930     0.4860010     4.8252480
  O        0.3247820     1.5294280     4.2380090
  N       -0.2257550    -0.6690050     4.1740810
  H       -0.2005540    -0.6760200     3.1674440
  H       -0.3815310    -1.5244970     4.6697830
  C        0.1011370     0.3911100     6.3336660
  H        1.1328510     0.4753220     6.6687400
  H       -0.3207670    -0.5355330     6.7146910
  H       -0.4483270     1.2349560     6.7404360
units angstrom
no_reorient
symmetry c1
}

set {
scf_type DF
mp2_type DF
e_convergence 7
reference rhf
}

energy('mp2/aug-cc-pv[tq]z', bsse_type='cp')
--------------------------------------------------------------------------

    Molecular point group: c1
  Charge       = 0
  Multiplicity = 1
  Basis Set: AUG-CC-PVTZ
    Blend: AUG-CC-PVTZ
  Basis Set: (AUG-CC-PVTZ AUX)
    Blend: AUG-CC-PVTZ-JKFIT
  @DF-RHF Final Energy:  -208.06294825954041
    Total Energy =                       -208.0629482595404056
  Basis Set: (AUG-CC-PVTZ AUX)
    Blend: AUG-CC-PVTZ-RI
	 Reference Energy          =    -208.0629482595404056 [Eh]
	 Singles Energy            =      -0.0000000000000000 [Eh]
	 Same-Spin Energy          =      -0.2045546292948434 [Eh]
	 Opposite-Spin Energy      =      -0.6558117885583625 [Eh]
	 Correlation Energy        =      -0.8603664178532060 [Eh]
	 Total Energy              =    -208.9233146773936198 [Eh]
	 SCS Total Energy          =    -208.9181072822420617 [Eh]
    Molecular point group: c1
  Basis Set: AUG-CC-PVQZ
    Blend: AUG-CC-PVQZ
  Basis Set: (AUG-CC-PVQZ AUX)
    Blend: AUG-CC-PVQZ-JKFIT
  @DF-RHF Final Energy:  -208.07612700117869
    Total Energy =                       -208.0761270011786905
  Basis Set: (AUG-CC-PVQZ AUX)
  @DF-RHF Final Energy:  -208.06307335996044
    Total Energy =                       -208.0630733599604412
  @DF-RHF Final Energy:  -208.07616281903307
    Total Energy =                       -208.0761628190330725
  @DF-RHF Final Energy:  -230.78125779419523
    Total Energy =                       -230.7812577941951986
  @DF-RHF Final Energy:  -230.79431912449843
    Total Energy =                       -230.7943191244984291
  @DF-RHF Final Energy:  -230.78111589290720
    Total Energy =                       -230.7811158929072235
  @DF-RHF Final Energy:  -230.79428674481929
    Total Energy =                       -230.7942867448192601
  Multiplicity = 1
  @DF-RHF Final Energy:  -438.84590376120349
    Total Energy =                       -438.8459037612035445
	 Singles Energy            =      -0.0000000000000000 [Eh]
	 Same-Spin Energy          =      -0.4632907924153278 [Eh]
	 Opposite-Spin Energy      =      -1.4799807376297052 [Eh]
	 Correlation Energy        =      -1.9432715300450329 [Eh]
	 Total Energy              =    -440.7891752912485117 [Eh]
	 SCS Total Energy          =    -440.7763109104975570 [Eh]
    Molecular point group: c1

    Geometry (in Angstrom), charge = 0, multiplicity = 1:

       Center              X                  Y                   Z               Mass
    ------------   -----------------  -----------------  -----------------  -----------------
         C            0.832268123576     0.373709356680    -1.172776142108    12.000000000000
         H            1.490533123576     0.917857356680    -0.509764142108     1.007825032230
         C            1.319604123576    -0.660201643320    -1.971373142108    12.000000000000
         H            2.369591123576    -0.918167643320    -1.940567142108     1.007825032230
         C            0.454514123576    -1.361523643320    -2.810346142108    12.000000000000
         H            0.832791123576    -2.163730643320    -3.429354142108     1.007825032230
         C           -0.898122876424    -1.027378643320    -2.852982142108    12.000000000000
         H           -1.568698876424    -1.570522643320    -3.504946142108     1.007825032230
         C           -1.385689876424     0.008163356680    -2.056684142108    12.000000000000
         H           -2.434863876424     0.268644356680    -2.091751142108     1.007825032230
         C           -0.521736876424     0.708334356680    -1.215538142108    12.000000000000
         H           -0.889403876424     1.505517356680    -0.584493142108     1.007825032230
         C            0.055000123576     0.501178356680     2.602717857892    12.000000000000
         O            0.301489123576     1.544605356680     2.015478857892    15.994914619570
         N           -0.249047876424    -0.653827643320     1.951550857892    14.003074004430
         H           -0.223846876424    -0.660842643320     0.944913857892     1.007825032230
         H           -0.404823876424    -1.509319643320     2.447252857892     1.007825032230
         C            0.077844123576     0.406287356680     4.111135857892    12.000000000000
         H            1.109558123576     0.490499356680     4.446209857892     1.007825032230
         H           -0.344059876424    -0.520355643320     4.492160857892     1.007825032230
         H           -0.471619876424     1.250133356680     4.517905857892     1.007825032230

  Charge       = 0
  Multiplicity = 1
  Basis Set: AUG-CC-PVQZ
    Blend: AUG-CC-PVQZ
  Basis Set: (AUG-CC-PVQZ AUX)
    Blend: AUG-CC-PVQZ-JKFIT

    Orbital Energies [Eh]
    ---------------------

    Doubly Occupied:

       1A    -20.511127     2A    -15.578958     3A    -11.350771
       4A    -11.234854     5A    -11.234434     6A    -11.233543
       7A    -11.232656     8A    -11.232308     9A    -11.228972
      10A    -11.227765    11A     -1.374674    12A     -1.209361
      13A     -1.148450    14A     -1.012778    15A     -1.012770
      16A     -1.003763    17A     -0.822348    18A     -0.821009
      19A     -0.797188    20A     -0.724741    21A     -0.706794
      22A     -0.663989    23A     -0.641143    24A     -0.616769
      25A     -0.614268    26A     -0.586298    27A     -0.586061
      28A     -0.582321    29A     -0.561594    30A     -0.523071
      31A     -0.501783    32A     -0.491815    33A     -0.491672
      34A     -0.423856    35A     -0.412191    36A     -0.336469
      37A     -0.335297

  @DF-RHF Final Energy:  -438.87205165205035

   => Energetics <=

    Nuclear Repulsion Energy =            474.9315364888873319
    One-Electron Energy =               -1537.4714597370439151
    Two-Electron Energy =                 623.6678715961062380
    Total Energy =                       -438.8720516520503452

  Dipole Moment: [D]
     X:    -0.6951      Y:    -3.5607      Z:     1.4658     Total:     3.9128

  Basis Set: (AUG-CC-PVQZ AUX)
    Blend: AUG-CC-PVQZ-RI
	 Reference Energy          =    -438.8720516520503452 [Eh]
	 Singles Energy            =      -0.0000000000000000 [Eh]
	 Same-Spin Energy          =      -0.4902274409429099 [Eh]
	 Opposite-Spin Energy      =      -1.6616034306848615 [Eh]
	 Correlation Energy        =      -2.1518308716277712 [Eh]
	 Total Energy              =    -441.0238825236781395 [Eh]

	 ================> DF-SCS-MP2 Energies <==================
	-----------------------------------------------------------
	 SCS Same-Spin Scale       =       0.3333333333333333 [-]
	 SCS Opposite-Spin Scale   =       1.2000000000000000 [-]
	 SCS Same-Spin Energy      =      -0.1634091469809700 [Eh]
	 SCS Opposite-Spin Energy  =      -1.9939241168218338 [Eh]
	 SCS Correlation Energy    =      -2.1573332638028040 [Eh]
	 SCS Total Energy          =    -441.0293849158531430 [Eh]
	-----------------------------------------------------------

*** Psi4 exiting successfully. Buy a developer a beer!
