                               Psi4 1.4a2.dev224

  ==> Input File <==

--------------------------------------------------------------------------
#Generated by lconvert.py for cbs job

memory 40 GB

molecule  {
0 1
  C        0.8555610     0.3585320     1.0497540
  H        1.5138260     0.9026800     1.7127660
  C        1.3428970    -0.6753790     0.2511570
  H        2.3928840    -0.9333450     0.2819630
  C        0.4778070    -1.3767010    -0.5878160
  H        0.8560840    -2.1789080    -1.2068240
  C       -0.8748300    -1.0425560    -0.6304520
  H       -1.5454060    -1.5857000    -1.2824160
  C       -1.3623970    -0.0070140     0.1658460
  H       -2.4115710     0.2534670     0.1307790
  C       -0.4984440     0.6931570     1.0069920
  H       -0.8661110     1.4903400     1.6380370
--
0 1
  C        0.0375740     0.3569150     5.0549960
  O        0.2840630     1.4003410     4.4677560
  N       -0.2664730    -0.7980920     4.4038280
  H       -0.2412730    -0.8051070     3.3971920
  H       -0.4222500    -1.6535840     4.8995300
  C        0.0604190     0.2620230     6.5634130
  H        1.0921320     0.3462350     6.8984870
  H       -0.3614850    -0.6646200     6.9444390
  H       -0.4890460     1.1058690     6.9701840
units angstrom
no_reorient
symmetry c1
}

set {
scf_type DF
mp2_type DF
e_convergence 7
reference rhf
}

energy('mp2/aug-cc-pv[tq]z', bsse_type='cp')
--------------------------------------------------------------------------

    Molecular point group: c1
  Charge       = 0
  Multiplicity = 1
  Basis Set: AUG-CC-PVTZ
    Blend: AUG-CC-PVTZ
  Basis Set: (AUG-CC-PVTZ AUX)
    Blend: AUG-CC-PVTZ-JKFIT
  @DF-RHF Final Energy:  -208.06294829653262
    Total Energy =                       -208.0629482965326247
  Basis Set: (AUG-CC-PVTZ AUX)
    Blend: AUG-CC-PVTZ-RI
	 Reference Energy          =    -208.0629482965326247 [Eh]
	 Singles Energy            =      -0.0000000000000000 [Eh]
	 Same-Spin Energy          =      -0.2045546226599458 [Eh]
	 Opposite-Spin Energy      =      -0.6558117757513080 [Eh]
	 Correlation Energy        =      -0.8603663984112538 [Eh]
	 Total Energy              =    -208.9233146949438833 [Eh]
	 SCS Total Energy          =    -208.9181073016541745 [Eh]
    Molecular point group: c1
  Basis Set: AUG-CC-PVQZ
    Blend: AUG-CC-PVQZ
  Basis Set: (AUG-CC-PVQZ AUX)
    Blend: AUG-CC-PVQZ-JKFIT
  @DF-RHF Final Energy:  -208.07612703976253
    Total Energy =                       -208.0761270397625253
  Basis Set: (AUG-CC-PVQZ AUX)
  @DF-RHF Final Energy:  -208.06304250196203
    Total Energy =                       -208.0630425019620304
  @DF-RHF Final Energy:  -208.07615727754543
    Total Energy =                       -208.0761572775454340
  @DF-RHF Final Energy:  -230.78122803636333
    Total Energy =                       -230.7812280363633590
  @DF-RHF Final Energy:  -230.79431334341172
    Total Energy =                       -230.7943133434117158
  @DF-RHF Final Energy:  -230.78111589137370
    Total Energy =                       -230.7811158913737017
  @DF-RHF Final Energy:  -230.79428674629810
    Total Energy =                       -230.7942867462980985
  Multiplicity = 1
  @DF-RHF Final Energy:  -438.84698029369747
    Total Energy =                       -438.8469802936974702
	 Singles Energy            =      -0.0000000000000000 [Eh]
	 Same-Spin Energy          =      -0.4622659942453600 [Eh]
	 Opposite-Spin Energy      =      -1.4782929786033363 [Eh]
	 Correlation Energy        =      -1.9405589728486963 [Eh]
	 Total Energy              =    -440.7875392665461618 [Eh]
	 SCS Total Energy          =    -440.7750205327699291 [Eh]
    Molecular point group: c1

    Geometry (in Angstrom), charge = 0, multiplicity = 1:

       Center              X                  Y                   Z               Mass
    ------------   -----------------  -----------------  -----------------  -----------------
         C            0.849804116860     0.429302338723    -1.271719917267    12.000000000000
         H            1.508069116860     0.973450338723    -0.608707917267     1.007825032230
         C            1.337140116860    -0.604608661277    -2.070316917267    12.000000000000
         H            2.387127116860    -0.862574661277    -2.039510917267     1.007825032230
         C            0.472050116860    -1.305930661277    -2.909289917267    12.000000000000
         H            0.850327116860    -2.108137661277    -3.528297917267     1.007825032230
         C           -0.880586883140    -0.971785661277    -2.951925917267    12.000000000000
         H           -1.551162883140    -1.514929661277    -3.603889917267     1.007825032230
         C           -1.368153883140     0.063756338723    -2.155627917267    12.000000000000
         H           -2.417327883140     0.324237338723    -2.190694917267     1.007825032230
         C           -0.504200883140     0.763927338723    -1.314481917267    12.000000000000
         H           -0.871867883140     1.561110338723    -0.683436917267     1.007825032230
         C            0.031817116860     0.427685338723     2.733522082733    12.000000000000
         O            0.278306116860     1.471111338723     2.146282082733    15.994914619570
         N           -0.272229883140    -0.727321661277     2.082354082733    14.003074004430
         H           -0.247029883140    -0.734336661277     1.075718082733     1.007825032230
         H           -0.428006883140    -1.582813661277     2.578056082733     1.007825032230
         C            0.054662116860     0.332793338723     4.241939082733    12.000000000000
         H            1.086375116860     0.417005338723     4.577013082733     1.007825032230
         H           -0.367241883140    -0.593849661277     4.622965082733     1.007825032230
         H           -0.494802883140     1.176639338723     4.648710082733     1.007825032230

  Charge       = 0
  Multiplicity = 1
  Basis Set: AUG-CC-PVQZ
    Blend: AUG-CC-PVQZ
  Basis Set: (AUG-CC-PVQZ AUX)
    Blend: AUG-CC-PVQZ-JKFIT

    Orbital Energies [Eh]
    ---------------------

    Doubly Occupied:

       1A    -20.511535     2A    -15.580917     3A    -11.351162
       4A    -11.235295     5A    -11.233695     6A    -11.232837
       7A    -11.231999     8A    -11.231610     9A    -11.229009
      10A    -11.227816    11A     -1.374681    12A     -1.210394
      13A     -1.147609    14A     -1.012072    15A     -1.011728
      16A     -1.004380    17A     -0.821532    18A     -0.820415
      19A     -0.798130    20A     -0.725251    21A     -0.706370
      22A     -0.663989    23A     -0.640593    24A     -0.616166
      25A     -0.614636    26A     -0.585820    27A     -0.585472
      28A     -0.582627    29A     -0.561870    30A     -0.523343
      31A     -0.501087    32A     -0.491506    33A     -0.491266
      34A     -0.423942    35A     -0.412884    36A     -0.335653
      37A     -0.334536

  @DF-RHF Final Energy:  -438.87317541293930

   => Energetics <=

    Nuclear Repulsion Energy =            468.2978785266440696
    One-Electron Energy =               -1524.2144584003965520
    Two-Electron Energy =                 617.0434044608131217
    Total Energy =                       -438.8731754129393039

  Dipole Moment: [D]
     X:    -0.7009      Y:    -3.5859      Z:     1.5252     Total:     3.9593

  Basis Set: (AUG-CC-PVQZ AUX)
    Blend: AUG-CC-PVQZ-RI
	 Reference Energy          =    -438.8731754129393039 [Eh]
	 Singles Energy            =      -0.0000000000000000 [Eh]
	 Same-Spin Energy          =      -0.4892346726966454 [Eh]
	 Opposite-Spin Energy      =      -1.6604389340997465 [Eh]
	 Correlation Energy        =      -2.1496736067963917 [Eh]
	 Total Energy              =    -441.0228490197357019 [Eh]

	 ================> DF-SCS-MP2 Energies <==================
	-----------------------------------------------------------
	 SCS Same-Spin Scale       =       0.3333333333333333 [-]
	 SCS Opposite-Spin Scale   =       1.2000000000000000 [-]
	 SCS Same-Spin Energy      =      -0.1630782242322151 [Eh]
	 SCS Opposite-Spin Energy  =      -1.9925267209196957 [Eh]
	 SCS Correlation Energy    =      -2.1556049451519108 [Eh]
	 SCS Total Energy          =    -441.0287803580912396 [Eh]
	-----------------------------------------------------------

*** Psi4 exiting successfully. Buy a developer a beer!
