                               Psi4 1.4a2.dev224

  ==> Input File <==

--------------------------------------------------------------------------
#Generated by lconvert.py for cbs job

memory 40 GB

molecule  {
0 1
  C        0.8555610     0.3585320     1.0497540
  H        1.5138260     0.9026800     1.7127660
  C        1.3428970    -0.6753790     0.2511570
  H        2.3928840    -0.9333450     0.2819630
  C        0.4778070    -1.3767010    -0.5878160
  H        0.8560840    -2.1789080    -1.2068240
  C       -0.8748300    -1.0425560    -0.6304520
  H       -1.5454060    -1.5857000    -1.2824160
  C       -1.3623970    -0.0070140     0.1658460
  H       -2.4115710     0.2534670     0.1307790
  C       -0.4984440     0.6931570     1.0069920
  H       -0.8661110     1.4903400     1.6380370
--
0 1
  C        0.2030010     0.8813510     4.1216070
  O        0.4494900     1.9247780     3.5343680
  N       -0.1010470    -0.2736550     3.4704400
  H       -0.0758460    -0.2806710     2.4638030
  H       -0.2568230    -1.1291470     3.9661420
  C        0.2258450     0.7864600     5.6300250
  H        1.2575590     0.8706720     5.9650990
  H       -0.1960590    -0.1401830     6.0110500
  H       -0.3236190     1.6303060     6.0367950
units angstrom
no_reorient
symmetry c1
}

set {
scf_type DF
mp2_type DF
e_convergence 7
reference rhf
}

energy('mp2/aug-cc-pv[tq]z', bsse_type='cp')
--------------------------------------------------------------------------

    Molecular point group: c1
  Charge       = 0
  Multiplicity = 1
  Basis Set: AUG-CC-PVTZ
    Blend: AUG-CC-PVTZ
  Basis Set: (AUG-CC-PVTZ AUX)
    Blend: AUG-CC-PVTZ-JKFIT
  @DF-RHF Final Energy:  -208.06294826021590
    Total Energy =                       -208.0629482602159044
  Basis Set: (AUG-CC-PVTZ AUX)
    Blend: AUG-CC-PVTZ-RI
	 Reference Energy          =    -208.0629482602159044 [Eh]
	 Singles Energy            =      -0.0000000000000000 [Eh]
	 Same-Spin Energy          =      -0.2045546284169209 [Eh]
	 Opposite-Spin Energy      =      -0.6558117884961050 [Eh]
	 Correlation Energy        =      -0.8603664169130258 [Eh]
	 Total Energy              =    -208.9233146771289285 [Eh]
	 SCS Total Energy          =    -208.9181072825502099 [Eh]
    Molecular point group: c1
  Basis Set: AUG-CC-PVQZ
    Blend: AUG-CC-PVQZ
  Basis Set: (AUG-CC-PVQZ AUX)
    Blend: AUG-CC-PVQZ-JKFIT
  @DF-RHF Final Energy:  -208.07612700209432
    Total Energy =                       -208.0761270020943243
  Basis Set: (AUG-CC-PVQZ AUX)
  @DF-RHF Final Energy:  -208.06318449601130
    Total Energy =                       -208.0631844960113028
  @DF-RHF Final Energy:  -208.07618734287738
    Total Energy =                       -208.0761873428773754
  @DF-RHF Final Energy:  -230.78138849915038
    Total Energy =                       -230.7813884991504096
  @DF-RHF Final Energy:  -230.79434401002050
    Total Energy =                       -230.7943440100204953
  @DF-RHF Final Energy:  -230.78111589155691
    Total Energy =                       -230.7811158915569081
  @DF-RHF Final Energy:  -230.79428674378119
    Total Energy =                       -230.7942867437811856
  Multiplicity = 1
  @DF-RHF Final Energy:  -438.81158504999655
    Total Energy =                       -438.8115850499965518
	 Singles Energy            =      -0.0000000000000000 [Eh]
	 Same-Spin Energy          =      -0.4707176692371646 [Eh]
	 Opposite-Spin Energy      =      -1.4908308572064619 [Eh]
	 Correlation Energy        =      -1.9615485264436265 [Eh]
	 Total Energy              =    -440.7731335764401592 [Eh]
	 SCS Total Energy          =    -440.7574879683900235 [Eh]
    Molecular point group: c1

    Geometry (in Angstrom), charge = 0, multiplicity = 1:

       Center              X                  Y                   Z               Mass
    ------------   -----------------  -----------------  -----------------  -----------------
         C            0.778560929813     0.203446517588    -0.869743589853    12.000000000000
         H            1.436825929813     0.747594517588    -0.206731589853     1.007825032230
         C            1.265896929813    -0.830464482412    -1.668340589853    12.000000000000
         H            2.315883929813    -1.088430482412    -1.637534589853     1.007825032230
         C            0.400806929813    -1.531786482412    -2.507313589853    12.000000000000
         H            0.779083929813    -2.333993482412    -3.126321589853     1.007825032230
         C           -0.951830070187    -1.197641482412    -2.549949589853    12.000000000000
         H           -1.622406070187    -1.740785482412    -3.201913589853     1.007825032230
         C           -1.439397070187    -0.162099482412    -1.753651589853    12.000000000000
         H           -2.488571070187     0.098381517588    -1.788718589853     1.007825032230
         C           -0.575444070187     0.538071517588    -0.912505589853    12.000000000000
         H           -0.943111070187     1.335254517588    -0.281460589853     1.007825032230
         C            0.126000929813     0.726265517588     2.202109410147    12.000000000000
         O            0.372489929813     1.769692517588     1.614870410147    15.994914619570
         N           -0.178047070187    -0.428740482412     1.550942410147    14.003074004430
         H           -0.152846070187    -0.435756482412     0.544305410147     1.007825032230
         H           -0.333823070187    -1.284232482412     2.046644410147     1.007825032230
         C            0.148844929813     0.631374517588     3.710527410147    12.000000000000
         H            1.180558929813     0.715586517588     4.045601410147     1.007825032230
         H           -0.273059070187    -0.295268482412     4.091552410147     1.007825032230
         H           -0.400619070187     1.475220517588     4.117297410147     1.007825032230

  Charge       = 0
  Multiplicity = 1
  Basis Set: AUG-CC-PVQZ
    Blend: AUG-CC-PVQZ
  Basis Set: (AUG-CC-PVQZ AUX)
    Blend: AUG-CC-PVQZ-JKFIT

    Orbital Energies [Eh]
    ---------------------

    Doubly Occupied:

       1A    -20.508678     2A    -15.562707     3A    -11.347368
       4A    -11.238103     5A    -11.237083     6A    -11.235949
       7A    -11.235734     8A    -11.231699     9A    -11.229759
      10A    -11.228477    11A     -1.375394    12A     -1.206789
      13A     -1.153902    14A     -1.024666    15A     -1.016765
      16A     -0.998240    17A     -0.832386    18A     -0.825509
      19A     -0.791334    20A     -0.727724    21A     -0.706660
      22A     -0.664952    23A     -0.647408    24A     -0.620483
      25A     -0.611633    26A     -0.589384    27A     -0.587919
      28A     -0.583373    29A     -0.561437    30A     -0.523370
      31A     -0.498944    32A     -0.495169    33A     -0.490351
      34A     -0.421373    35A     -0.409069    36A     -0.339858
      37A     -0.334869

  @DF-RHF Final Energy:  -438.83758905195663

   => Energetics <=

    Nuclear Repulsion Energy =            498.6167627335382235
    One-Electron Energy =               -1584.7196879856114720
    Two-Electron Energy =                 647.2653362001166215
    Total Energy =                       -438.8375890519565701

  Dipole Moment: [D]
     X:    -0.6923      Y:    -3.5377      Z:     1.1367     Total:     3.7798

  Basis Set: (AUG-CC-PVQZ AUX)
    Blend: AUG-CC-PVQZ-RI
	 Reference Energy          =    -438.8375890519566269 [Eh]
	 Singles Energy            =      -0.0000000000000000 [Eh]
	 Same-Spin Energy          =      -0.4976294976674313 [Eh]
	 Opposite-Spin Energy      =      -1.6707701315124486 [Eh]
	 Correlation Energy        =      -2.1683996291798797 [Eh]
	 Total Energy              =    -441.0059886811365004 [Eh]

	 ================> DF-SCS-MP2 Energies <==================
	-----------------------------------------------------------
	 SCS Same-Spin Scale       =       0.3333333333333333 [-]
	 SCS Opposite-Spin Scale   =       1.2000000000000000 [-]
	 SCS Same-Spin Energy      =      -0.1658764992224771 [Eh]
	 SCS Opposite-Spin Energy  =      -2.0049241578149384 [Eh]
	 SCS Correlation Energy    =      -2.1708006570374154 [Eh]
	 SCS Total Energy          =    -441.0083897089940592 [Eh]
	-----------------------------------------------------------

*** Psi4 exiting successfully. Buy a developer a beer!
