                               Psi4 1.4a2.dev224

  ==> Input File <==

--------------------------------------------------------------------------
#Generated by lconvert.py for cbs job

memory 40 GB

molecule  {
0 1
  C        0.8555610     0.3585320     1.0497540
  H        1.5138260     0.9026800     1.7127660
  C        1.3428970    -0.6753790     0.2511570
  H        2.3928840    -0.9333450     0.2819630
  C        0.4778070    -1.3767010    -0.5878160
  H        0.8560840    -2.1789080    -1.2068240
  C       -0.8748300    -1.0425560    -0.6304520
  H       -1.5454060    -1.5857000    -1.2824160
  C       -1.3623970    -0.0070140     0.1658460
  H       -2.4115710     0.2534670     0.1307790
  C       -0.4984440     0.6931570     1.0069920
  H       -0.8661110     1.4903400     1.6380370
--
0 1
  C        0.2030010     0.8813510     4.1216070
  O        0.4494900     1.9247780     3.5343680
  N       -0.1010470    -0.2736550     3.4704400
  H       -0.0758460    -0.2806710     2.4638030
  H       -0.2568230    -1.1291470     3.9661420
  C        0.2258450     0.7864600     5.6300250
  H        1.2575590     0.8706720     5.9650990
  H       -0.1960590    -0.1401830     6.0110500
  H       -0.3236190     1.6303060     6.0367950
units angstrom
no_reorient
symmetry c1
}

set {
scf_type DF
mp2_type DF
e_convergence 7
reference rhf
}

energy('mp2/aug-cc-pv[tq]z', bsse_type='cp')
--------------------------------------------------------------------------

    Molecular point group: c1
  Charge       = 0
  Multiplicity = 1
  Basis Set: AUG-CC-PVTZ
    Blend: AUG-CC-PVTZ
  Basis Set: (AUG-CC-PVTZ AUX)
    Blend: AUG-CC-PVTZ-JKFIT
  @DF-RHF Final Energy:  -208.06294826021590
    Total Energy =                       -208.0629482602159044
  Basis Set: (AUG-CC-PVTZ AUX)
    Blend: AUG-CC-PVTZ-RI
	 Reference Energy          =    -208.0629482602159044 [Eh]
	 Singles Energy            =      -0.0000000000000000 [Eh]
	 Same-Spin Energy          =      -0.2045546284169209 [Eh]
	 Opposite-Spin Energy      =      -0.6558117884961050 [Eh]
	 Correlation Energy        =      -0.8603664169130258 [Eh]
	 Total Energy              =    -208.9233146771289285 [Eh]
	 SCS Total Energy          =    -208.9181072825502099 [Eh]
    Molecular point group: c1
  Basis Set: AUG-CC-PVQZ
    Blend: AUG-CC-PVQZ
  Basis Set: (AUG-CC-PVQZ AUX)
    Blend: AUG-CC-PVQZ-JKFIT
  @DF-RHF Final Energy:  -208.07612700209432
    Total Energy =                       -208.0761270020943243
  Basis Set: (AUG-CC-PVQZ AUX)
  @DF-RHF Final Energy:  -208.06318449601130
    Total Energy =                       -208.0631844960113028
  @DF-RHF Final Energy:  -208.07618734287738
    Total Energy =                       -208.0761873428773754
  @DF-RHF Final Energy:  -230.78138849915038
    Total Energy =                       -230.7813884991504096
  @DF-RHF Final Energy:  -230.79434401002050
    Total Energy =                       -230.7943440100204953
  @DF-RHF Final Energy:  -230.78111589155691
    Total Energy =                       -230.7811158915569081
  @DF-RHF Final Energy:  -230.79428674378119
    Total Energy =                       -230.7942867437811856
  @DF-RHF Final Energy:  -438.81158504999655
    Total Energy =                       -438.8115850499965518
  @DF-RHF Final Energy:  -438.83758905195663
    Total Energy =                       -438.8375890519565701
*** Psi4 exiting successfully. Buy a developer a beer!
                               Psi4 1.4a2.dev224
  @DF-RHF Final Energy:  -208.06294829086173
    Total Energy =                       -208.0629482908617263
  @DF-RHF Final Energy:  -208.07612703483292
    Total Energy =                       -208.0761270348329219
  @DF-RHF Final Energy:  -208.06314796214508
    Total Energy =                       -208.0631479621450808
  @DF-RHF Final Energy:  -208.07617758329241
    Total Energy =                       -208.0761775832924059
  @DF-RHF Final Energy:  -230.78132994462601
    Total Energy =                       -230.7813299446260089
  @DF-RHF Final Energy:  -230.79433595755742
    Total Energy =                       -230.7943359575574505
  @DF-RHF Final Energy:  -230.78111588926157
    Total Energy =                       -230.7811158892615708
  @DF-RHF Final Energy:  -230.79428674559546
    Total Energy =                       -230.7942867455954570
  @DF-RHF Final Energy:  -438.83322051640721
    Total Energy =                       -438.8332205164072093
  @DF-RHF Final Energy:  -438.85925532049885
    Total Energy =                       -438.8592553204988462
*** Psi4 exiting successfully. Buy a developer a beer!
                               Psi4 1.4a2.dev224
                               Psi4 1.4a2.dev224
                               Psi4 1.4a2.dev224
                               Psi4 1.4a2.dev224
                               Psi4 1.4a2.dev224
                               Psi4 1.4a2.dev224
                               Psi4 1.4a2.dev224
  @DF-RHF Final Energy:  -208.06294822538791
    Total Energy =                       -208.0629482253879132
  @DF-RHF Final Energy:  -208.07612695832168
    Total Energy =                       -208.0761269583216801
  @DF-RHF Final Energy:  -208.06297330749470
    Total Energy =                       -208.0629733074947012
  @DF-RHF Final Energy:  -208.07613595568344
    Total Energy =                       -208.0761359556834407
  @DF-RHF Final Energy:  -230.78115154417347
    Total Energy =                       -230.7811515441734400
  @DF-RHF Final Energy:  -230.79429912904908
    Total Energy =                       -230.7942991290490795
  @DF-RHF Final Energy:  -230.78111581196481
    Total Energy =                       -230.7811158119648098
  @DF-RHF Final Energy:  -230.79428666034846
    Total Energy =                       -230.7942866603484617
  @DF-RHF Final Energy:  -438.84551427788392
    Total Energy =                       -438.8455142778839217
  @DF-RHF Final Energy:  -438.87181681889012
    Total Energy =                       -438.8718168188901245
*** Psi4 exiting successfully. Buy a developer a beer!
                               Psi4 1.4a2.dev224
  @DF-RHF Final Energy:  -208.06294793212876
    Total Energy =                       -208.0629479321287647
  @DF-RHF Final Energy:  -208.07612666197514
    Total Energy =                       -208.0761266619751382
  @DF-RHF Final Energy:  -208.06296054439412
    Total Energy =                       -208.0629605443941159
  @DF-RHF Final Energy:  -208.07613208613543
    Total Energy =                       -208.0761320861354307
  @DF-RHF Final Energy:  -230.78113749504294
    Total Energy =                       -230.7811374950429126
  @DF-RHF Final Energy:  -230.79429301658655
    Total Energy =                       -230.7942930165865505
  @DF-RHF Final Energy:  -230.78111580958682
    Total Energy =                       -230.7811158095868223
  @DF-RHF Final Energy:  -230.79428666078147
    Total Energy =                       -230.7942866607814949
  Multiplicity = 1
  @DF-RHF Final Energy:  -438.84481434216735
    Total Energy =                       -438.8448143421672967
	 Singles Energy            =      -0.0000000000000000 [Eh]
	 Same-Spin Energy          =      -0.4601267153781444 [Eh]
	 Opposite-Spin Energy      =      -1.4746009980519368 [Eh]
	 Correlation Energy        =      -1.9347277134300811 [Eh]
	 Total Energy              =    -440.7795420555974601 [Eh]
	 SCS Total Energy          =    -440.7677111116224182 [Eh]
    Molecular point group: c1

    Geometry (in Angstrom), charge = 0, multiplicity = 1:

       Center              X                  Y                   Z               Mass
    ------------   -----------------  -----------------  -----------------  -----------------
         C            0.995139039183     0.890037733364    -2.091744711126    12.000000000000
         H            1.653409039183     1.434187733364    -1.428724711126     1.007825032230
         C            1.482479039183    -0.143872266636    -2.890334711126    12.000000000000
         H            2.532459039183    -0.401832266636    -2.859534711126     1.007825032230
         C            0.617389039183    -0.845192266636    -3.729314711126    12.000000000000
         H            0.995659039183    -1.647402266636    -4.348314711126     1.007825032230
         C           -0.735250960817    -0.511052266636    -3.771944711126    12.000000000000
         H           -1.405830960817    -1.054192266636    -4.423914711126     1.007825032230
         C           -1.222820960817     0.524497733364    -2.975644711126    12.000000000000
         H           -2.271990960817     0.784977733364    -3.010714711126     1.007825032230
         C           -0.358860960817     1.224667733364    -2.134504711126    12.000000000000
         H           -0.726530960817     2.021847733364    -1.503454711126     1.007825032230
         C           -0.160320960817    -0.181412266636     3.817585288874    12.000000000000
         O            0.086169039183     0.862017733364     3.230345288874    15.994914619570
         N           -0.464360960817    -1.336412266636     3.166425288874    14.003074004430
         H           -0.439160960817    -1.343432266636     2.159785288874     1.007825032230
         H           -0.620140960817    -2.191912266636     3.662125288874     1.007825032230
         C           -0.137470960817    -0.276302266636     5.326005288874    12.000000000000
         H            0.894239039183    -0.192092266636     5.661075288874     1.007825032230
         H           -0.559380960817    -1.202942266636     5.707035288874     1.007825032230
         H           -0.686940960817     0.567547733364     5.732775288874     1.007825032230

  Charge       = 0
  Multiplicity = 1
  Basis Set: AUG-CC-PVQZ
    Blend: AUG-CC-PVQZ
  Basis Set: (AUG-CC-PVQZ AUX)
    Blend: AUG-CC-PVQZ-JKFIT

    Orbital Energies [Eh]
    ---------------------

    Doubly Occupied:

       1A    -20.511994     2A    -15.585089     3A    -11.351751
       4A    -11.236069     5A    -11.232065     6A    -11.231366
       7A    -11.230831     8A    -11.230116     9A    -11.229649
      10A    -11.228638    11A     -1.374621    12A     -1.213260
      13A     -1.146046    14A     -1.010631    15A     -1.010606
      16A     -1.005399    17A     -0.820624    18A     -0.819686
      19A     -0.800552    20A     -0.728135    21A     -0.705778
      22A     -0.663977    23A     -0.640429    24A     -0.615312
      25A     -0.615243    26A     -0.584694    27A     -0.584431
      28A     -0.584062    29A     -0.562780    30A     -0.524143
      31A     -0.498785    32A     -0.491797    33A     -0.490486
      34A     -0.423492    35A     -0.414502    36A     -0.333513
      37A     -0.332941

  @DF-RHF Final Energy:  -438.87113734174932

   => Energetics <=

    Nuclear Repulsion Energy =            428.2755346863065711
    One-Electron Energy =               -1444.1663597070132710
    Two-Electron Energy =                 577.0196876789573253
    Total Energy =                       -438.8711373417493178

  Dipole Moment: [D]
     X:    -0.7446      Y:    -3.7883      Z:     1.6139     Total:     4.1846

  Basis Set: (AUG-CC-PVQZ AUX)
    Blend: AUG-CC-PVQZ-RI
	 Reference Energy          =    -438.8711373417493178 [Eh]
	 Singles Energy            =      -0.0000000000000000 [Eh]
	 Same-Spin Energy          =      -0.4871997911383374 [Eh]
	 Opposite-Spin Energy      =      -1.6581083476740857 [Eh]
	 Correlation Energy        =      -2.1453081388124229 [Eh]
	 Total Energy              =    -441.0164454805617424 [Eh]

	 ================> DF-SCS-MP2 Energies <==================
	-----------------------------------------------------------
	 SCS Same-Spin Scale       =       0.3333333333333333 [-]
	 SCS Opposite-Spin Scale   =       1.2000000000000000 [-]
	 SCS Same-Spin Energy      =      -0.1623999303794458 [Eh]
	 SCS Opposite-Spin Energy  =      -1.9897300172089027 [Eh]
	 SCS Correlation Energy    =      -2.1521299475883486 [Eh]
	 SCS Total Energy          =    -441.0232672893376389 [Eh]
	-----------------------------------------------------------

*** Psi4 exiting successfully. Buy a developer a beer!
