                               Psi4 1.4a2.dev224

  ==> Input File <==

--------------------------------------------------------------------------
#Generated by lconvert.py for cbs job

memory 40 GB

molecule  {
0 1
  C        0.8555610     0.3585320     1.0497540
  H        1.5138260     0.9026800     1.7127660
  C        1.3428970    -0.6753790     0.2511570
  H        2.3928840    -0.9333450     0.2819630
  C        0.4778070    -1.3767010    -0.5878160
  H        0.8560840    -2.1789080    -1.2068240
  C       -0.8748300    -1.0425560    -0.6304520
  H       -1.5454060    -1.5857000    -1.2824160
  C       -1.3623970    -0.0070140     0.1658460
  H       -2.4115710     0.2534670     0.1307790
  C       -0.4984440     0.6931570     1.0069920
  H       -0.8661110     1.4903400     1.6380370
--
0 1
  C        0.1608170     0.7476220     4.3596180
  O        0.4073070     1.7910480     3.7723790
  N       -0.1432300    -0.4073850     3.7084510
  H       -0.1180300    -0.4144000     2.7018140
  H       -0.2990060    -1.2628770     4.2041530
  C        0.1836620     0.6527300     5.8680360
  H        1.2153760     0.7369420     6.2031100
  H       -0.2382420    -0.2739130     6.2490620
  H       -0.3658030     1.4965760     6.2748060
units angstrom
no_reorient
symmetry c1
}

set {
scf_type DF
mp2_type DF
e_convergence 7
reference rhf
}

energy('mp2/aug-cc-pv[tq]z', bsse_type='cp')
--------------------------------------------------------------------------

    Molecular point group: c1
  Charge       = 0
  Multiplicity = 1
  Basis Set: AUG-CC-PVTZ
    Blend: AUG-CC-PVTZ
  Basis Set: (AUG-CC-PVTZ AUX)
    Blend: AUG-CC-PVTZ-JKFIT
  @DF-RHF Final Energy:  -208.06294829086173
    Total Energy =                       -208.0629482908617263
  Basis Set: (AUG-CC-PVTZ AUX)
    Blend: AUG-CC-PVTZ-RI
	 Reference Energy          =    -208.0629482908617263 [Eh]
	 Singles Energy            =      -0.0000000000000000 [Eh]
	 Same-Spin Energy          =      -0.2045546174012570 [Eh]
	 Opposite-Spin Energy      =      -0.6558117737712150 [Eh]
	 Correlation Energy        =      -0.8603663911724720 [Eh]
	 Total Energy              =    -208.9233146820342029 [Eh]
	 SCS Total Energy          =    -208.9181072918542839 [Eh]
    Molecular point group: c1
  Basis Set: AUG-CC-PVQZ
    Blend: AUG-CC-PVQZ
  Basis Set: (AUG-CC-PVQZ AUX)
    Blend: AUG-CC-PVQZ-JKFIT
  @DF-RHF Final Energy:  -208.07612703483292
    Total Energy =                       -208.0761270348329219
  Basis Set: (AUG-CC-PVQZ AUX)
  @DF-RHF Final Energy:  -208.06314796214508
    Total Energy =                       -208.0631479621450808
  @DF-RHF Final Energy:  -208.07617758329241
    Total Energy =                       -208.0761775832924059
  @DF-RHF Final Energy:  -230.78132994462601
    Total Energy =                       -230.7813299446260089
  @DF-RHF Final Energy:  -230.79433595755742
    Total Energy =                       -230.7943359575574505
  @DF-RHF Final Energy:  -230.78111588926157
    Total Energy =                       -230.7811158892615708
  @DF-RHF Final Energy:  -230.79428674559546
    Total Energy =                       -230.7942867455954570
  Multiplicity = 1
  @DF-RHF Final Energy:  -438.83322051640721
    Total Energy =                       -438.8332205164072093
	 Singles Energy            =      -0.0000000000000000 [Eh]
	 Same-Spin Energy          =      -0.4671529690832719 [Eh]
	 Opposite-Spin Energy      =      -1.4858042577587389 [Eh]
	 Correlation Energy        =      -1.9529572268420108 [Eh]
	 Total Energy              =    -440.7861777432491976 [Eh]
	 SCS Total Energy          =    -440.7719032820787675 [Eh]
    Molecular point group: c1

    Geometry (in Angstrom), charge = 0, multiplicity = 1:

       Center              X                  Y                   Z               Mass
    ------------   -----------------  -----------------  -----------------  -----------------
         C            0.796727713859     0.261039063283    -0.972246266598    12.000000000000
         H            1.454992713859     0.805187063283    -0.309234266598     1.007825032230
         C            1.284063713859    -0.772871936717    -1.770843266598    12.000000000000
         H            2.334050713859    -1.030837936717    -1.740037266598     1.007825032230
         C            0.418973713859    -1.474193936717    -2.609816266598    12.000000000000
         H            0.797250713859    -2.276400936717    -3.228824266598     1.007825032230
         C           -0.933663286141    -1.140048936717    -2.652452266598    12.000000000000
         H           -1.604239286141    -1.683192936717    -3.304416266598     1.007825032230
         C           -1.421230286141    -0.104506936717    -1.856154266598    12.000000000000
         H           -2.470404286141     0.155974063283    -1.891221266598     1.007825032230
         C           -0.557277286141     0.595664063283    -1.015008266598    12.000000000000
         H           -0.924944286141     1.392847063283    -0.383963266598     1.007825032230
         C            0.101983713859     0.650129063283     2.337617733402    12.000000000000
         O            0.348473713859     1.693555063283     1.750378733402    15.994914619570
         N           -0.202063286141    -0.504877936717     1.686450733402    14.003074004430
         H           -0.176863286141    -0.511892936717     0.679813733402     1.007825032230
         H           -0.357839286141    -1.360369936717     2.182152733402     1.007825032230
         C            0.124828713859     0.555237063283     3.846035733402    12.000000000000
         H            1.156542713859     0.639449063283     4.181109733402     1.007825032230
         H           -0.297075286141    -0.371405936717     4.227061733402     1.007825032230
         H           -0.424636286141     1.399083063283     4.252805733402     1.007825032230

  Charge       = 0
  Multiplicity = 1
  Basis Set: AUG-CC-PVQZ
    Blend: AUG-CC-PVQZ
  Basis Set: (AUG-CC-PVQZ AUX)
    Blend: AUG-CC-PVQZ-JKFIT

    Orbital Energies [Eh]
    ---------------------

    Doubly Occupied:

       1A    -20.509612     2A    -15.570804     3A    -11.349028
       4A    -11.236642     5A    -11.235661     6A    -11.234618
       7A    -11.234362     8A    -11.233143     9A    -11.229017
      10A    -11.227772    11A     -1.374822    12A     -1.206724
      13A     -1.151436    14A     -1.018126    15A     -1.014995
      16A     -1.000968    17A     -0.826638    18A     -0.823285
      19A     -0.793925    20A     -0.725479    21A     -0.707203
      22A     -0.664262    23A     -0.643979    24A     -0.618847
      25A     -0.612814    26A     -0.587979    27A     -0.587313
      28A     -0.582329    29A     -0.561287    30A     -0.522722
      31A     -0.501513    32A     -0.493786    33A     -0.491576
      34A     -0.422667    35A     -0.410052    36A     -0.338680
      37A     -0.336350

  @DF-RHF Final Energy:  -438.85925532049885

   => Energetics <=

    Nuclear Repulsion Energy =            489.9907839188924754
    One-Electron Energy =               -1567.5392447164956593
    Two-Electron Energy =                 638.6892054771043377
    Total Energy =                       -438.8592553204988462

  Dipole Moment: [D]
     X:    -0.6900      Y:    -3.5349      Z:     1.2720     Total:     3.8196

  Basis Set: (AUG-CC-PVQZ AUX)
    Blend: AUG-CC-PVQZ-RI
	 Reference Energy          =    -438.8592553204988462 [Eh]
	 Singles Energy            =      -0.0000000000000000 [Eh]
	 Same-Spin Energy          =      -0.4940583924034493 [Eh]
	 Opposite-Spin Energy      =      -1.6663178506405214 [Eh]
	 Correlation Energy        =      -2.1603762430439706 [Eh]
	 Total Energy              =    -441.0196315635428164 [Eh]

	 ================> DF-SCS-MP2 Energies <==================
	-----------------------------------------------------------
	 SCS Same-Spin Scale       =       0.3333333333333333 [-]
	 SCS Opposite-Spin Scale   =       1.2000000000000000 [-]
	 SCS Same-Spin Energy      =      -0.1646861308011497 [Eh]
	 SCS Opposite-Spin Energy  =      -1.9995814207686256 [Eh]
	 SCS Correlation Energy    =      -2.1642675515697753 [Eh]
	 SCS Total Energy          =    -441.0235228720686109 [Eh]
	-----------------------------------------------------------

*** Psi4 exiting successfully. Buy a developer a beer!
