                               Psi4 1.4a2.dev224

  ==> Input File <==

--------------------------------------------------------------------------
#Generated by lconvert.py for cbs job

memory 20 GB

molecule  {
0 1
  C       0.855560    0.358530    1.049750
  H       1.513830    0.902680    1.712770
  C       1.342900   -0.675380    0.251160
  H       2.392880   -0.933340    0.281960
  C       0.477810   -1.376700   -0.587820
  H       0.856080   -2.178910   -1.206820
  C      -0.874830   -1.042560   -0.630450
  H      -1.545410   -1.585700   -1.282420
  C      -1.362400   -0.007010    0.165850
  H      -2.411570    0.253470    0.130780
  C      -0.498440    0.693160    1.006990
  H      -0.866110    1.490340    1.638040
--
0 1
  C      -0.173350   -0.311730    6.245050
  O       0.073140    0.731700    5.657810
  N      -0.477390   -1.466740    5.593880
  H      -0.452190   -1.473750    4.587250
  H      -0.633170   -2.322230    6.089580
  C      -0.150500   -0.406620    7.753470
  H       0.881210   -0.322410    8.088540
  H      -0.572410   -1.333260    8.134490
  H      -0.699970    0.437220    8.160240
units angstrom
no_reorient
symmetry c1
}

set {
scf_type DF
mp2_type DF
e_convergence 7
reference rhf
}

energy('mp2/aug-cc-pv[tq]z', bsse_type='cp')
--------------------------------------------------------------------------

    Molecular point group: c1
  Charge       = 0
  Multiplicity = 1
  Basis Set: AUG-CC-PVTZ
    Blend: AUG-CC-PVTZ
  Basis Set: (AUG-CC-PVTZ AUX)
    Blend: AUG-CC-PVTZ-JKFIT
  @DF-RHF Final Energy:  -208.06294822538791
    Total Energy =                       -208.0629482253879132
  Basis Set: (AUG-CC-PVTZ AUX)
    Blend: AUG-CC-PVTZ-RI
	 Reference Energy          =    -208.0629482253879132 [Eh]
	 Singles Energy            =      -0.0000000000000000 [Eh]
	 Same-Spin Energy          =      -0.2045546251326277 [Eh]
	 Opposite-Spin Energy      =      -0.6558118311769912 [Eh]
	 Correlation Energy        =      -0.8603664563096189 [Eh]
	 Total Energy              =    -208.9233146816975193 [Eh]
	 SCS Total Energy          =    -208.9181072978445002 [Eh]
    Molecular point group: c1
  Basis Set: AUG-CC-PVQZ
    Blend: AUG-CC-PVQZ
  Basis Set: (AUG-CC-PVQZ AUX)
    Blend: AUG-CC-PVQZ-JKFIT
  @DF-RHF Final Energy:  -208.07612695832168
    Total Energy =                       -208.0761269583216801
  Basis Set: (AUG-CC-PVQZ AUX)
  @DF-RHF Final Energy:  -208.06297330749470
    Total Energy =                       -208.0629733074947012
  @DF-RHF Final Energy:  -208.07613595568344
    Total Energy =                       -208.0761359556834407
  @DF-RHF Final Energy:  -230.78115154417347
    Total Energy =                       -230.7811515441734400
  @DF-RHF Final Energy:  -230.79429912904908
    Total Energy =                       -230.7942991290490795
  @DF-RHF Final Energy:  -230.78111581196481
    Total Energy =                       -230.7811158119648098
  @DF-RHF Final Energy:  -230.79428666034846
    Total Energy =                       -230.7942866603484617
  Multiplicity = 1
  @DF-RHF Final Energy:  -438.84551427788392
    Total Energy =                       -438.8455142778839217
	 Singles Energy            =      -0.0000000000000000 [Eh]
	 Same-Spin Energy          =      -0.4603711201220109 [Eh]
	 Opposite-Spin Energy      =      -1.4750536711934481 [Eh]
	 Correlation Energy        =      -1.9354247913154590 [Eh]
	 Total Energy              =    -440.7809390691994054 [Eh]
	 SCS Total Energy          =    -440.7690357233567511 [Eh]
    Molecular point group: c1

    Geometry (in Angstrom), charge = 0, multiplicity = 1:

       Center              X                  Y                   Z               Mass
    ------------   -----------------  -----------------  -----------------  -----------------
         C            0.940638563106     0.717260906627    -1.784236826403    12.000000000000
         H            1.598908563106     1.261410906627    -1.121216826403     1.007825032230
         C            1.427978563106    -0.316649093373    -2.582826826403    12.000000000000
         H            2.477958563106    -0.574609093373    -2.552026826403     1.007825032230
         C            0.562888563106    -1.017969093373    -3.421806826403    12.000000000000
         H            0.941158563106    -1.820179093373    -4.040806826403     1.007825032230
         C           -0.789751436894    -0.683829093373    -3.464436826403    12.000000000000
         H           -1.460331436894    -1.226969093373    -4.116406826403     1.007825032230
         C           -1.277321436894     0.351720906627    -2.668136826403    12.000000000000
         H           -2.326491436894     0.612200906627    -2.703206826403     1.007825032230
         C           -0.413361436894     1.051890906627    -1.826996826403    12.000000000000
         H           -0.781031436894     1.849070906627    -1.195946826403     1.007825032230
         C           -0.088271436894     0.047000906627     3.411063173597    12.000000000000
         O            0.158218563106     1.090430906627     2.823823173597    15.994914619570
         N           -0.392311436894    -1.108009093373     2.759893173597    14.003074004430
         H           -0.367111436894    -1.115019093373     1.753263173597     1.007825032230
         H           -0.548091436894    -1.963499093373     3.255593173597     1.007825032230
         C           -0.065421436894    -0.047889093373     4.919483173597    12.000000000000
         H            0.966288563106     0.036320906627     5.254553173597     1.007825032230
         H           -0.487331436894    -0.974529093373     5.300503173597     1.007825032230
         H           -0.614891436894     0.795950906627     5.326253173597     1.007825032230

  Charge       = 0
  Multiplicity = 1
  Basis Set: AUG-CC-PVQZ
    Blend: AUG-CC-PVQZ
  Basis Set: (AUG-CC-PVQZ AUX)
    Blend: AUG-CC-PVQZ-JKFIT

    Orbital Energies [Eh]
    ---------------------

    Doubly Occupied:

       1A    -20.511958     2A    -15.584439     3A    -11.351660
       4A    -11.235972     5A    -11.232130     6A    -11.231378
       7A    -11.230727     8A    -11.230146     9A    -11.229277
      10A    -11.228183    11A     -1.374595    12A     -1.212746
      13A     -1.146034    14A     -1.010617    15A     -1.010455
      16A     -1.005259    17A     -0.820474    18A     -0.819512
      19A     -0.800120    20A     -0.727522    21A     -0.705591
      22A     -0.663941    23A     -0.640135    24A     -0.615207
      25A     -0.615123    26A     -0.584725    27A     -0.584363
      28A     -0.583658    29A     -0.562619    30A     -0.523982
      31A     -0.498930    32A     -0.491443    33A     -0.490356
      34A     -0.423533    35A     -0.414219    36A     -0.333692
      37A     -0.332880

  @DF-RHF Final Energy:  -438.87181681889012

   => Energetics <=

    Nuclear Repulsion Energy =            440.6818592010240536
    One-Electron Energy =               -1468.9921478903943353
    Two-Electron Energy =                 589.4384718704801571
    Total Energy =                       -438.8718168188901245

  Dipole Moment: [D]
     X:    -0.7323      Y:    -3.7286      Z:     1.6212     Total:     4.1312

  Basis Set: (AUG-CC-PVQZ AUX)
    Blend: AUG-CC-PVQZ-RI
	 Reference Energy          =    -438.8718168188901245 [Eh]
	 Singles Energy            =      -0.0000000000000000 [Eh]
	 Same-Spin Energy          =      -0.4874283062008288 [Eh]
	 Opposite-Spin Energy      =      -1.6583534277047010 [Eh]
	 Correlation Energy        =      -2.1457817339055296 [Eh]
	 Total Energy              =    -441.0175985527956755 [Eh]

	 ================> DF-SCS-MP2 Energies <==================
	-----------------------------------------------------------
	 SCS Same-Spin Scale       =       0.3333333333333333 [-]
	 SCS Opposite-Spin Scale   =       1.2000000000000000 [-]
	 SCS Same-Spin Energy      =      -0.1624761020669429 [Eh]
	 SCS Opposite-Spin Energy  =      -1.9900241132456411 [Eh]
	 SCS Correlation Energy    =      -2.1525002153125841 [Eh]
	 SCS Total Energy          =    -441.0243170342026815 [Eh]
	-----------------------------------------------------------

*** Psi4 exiting successfully. Buy a developer a beer!
