                               Psi4 1.4a2.dev224

  ==> Input File <==

--------------------------------------------------------------------------
#Generated by lconvert.py for cbs job

memory 20 GB

molecule  {
0 1
  C       0.855560    0.358530    1.049750
  H       1.513830    0.902680    1.712770
  C       1.342900   -0.675380    0.251160
  H       2.392880   -0.933340    0.281960
  C       0.477810   -1.376700   -0.587820
  H       0.856080   -2.178910   -1.206820
  C      -0.874830   -1.042560   -0.630450
  H      -1.545410   -1.585700   -1.282420
  C      -1.362400   -0.007010    0.165850
  H      -2.411570    0.253470    0.130780
  C      -0.498440    0.693160    1.006990
  H      -0.866110    1.490340    1.638040
--
0 1
  C      -0.046790    0.089460    5.531020
  O       0.199700    1.132880    4.943780
  N      -0.350840   -1.065550    4.879850
  H      -0.325640   -1.072560    3.873210
  H      -0.506620   -1.921040    5.375550
  C      -0.023950   -0.005430    7.039440
  H       1.007760    0.078780    7.374510
  H      -0.445850   -0.932080    7.420460
  H      -0.573410    0.838410    7.446210
units angstrom
no_reorient
symmetry c1
}

set {
scf_type DF
mp2_type DF
e_convergence 7
reference rhf
}

energy('mp2/aug-cc-pv[tq]z', bsse_type='cp')
--------------------------------------------------------------------------

    Molecular point group: c1
  Charge       = 0
  Multiplicity = 1
  Basis Set: AUG-CC-PVTZ
    Blend: AUG-CC-PVTZ
  Basis Set: (AUG-CC-PVTZ AUX)
    Blend: AUG-CC-PVTZ-JKFIT
  @DF-RHF Final Energy:  -208.06294867350388
    Total Energy =                       -208.0629486735038824
  Basis Set: (AUG-CC-PVTZ AUX)
    Blend: AUG-CC-PVTZ-RI
	 Reference Energy          =    -208.0629486735038824 [Eh]
	 Singles Energy            =      -0.0000000000000000 [Eh]
	 Same-Spin Energy          =      -0.2045545116613990 [Eh]
	 Opposite-Spin Energy      =      -0.6558115526789662 [Eh]
	 Correlation Energy        =      -0.8603660643403652 [Eh]
	 Total Energy              =    -208.9233147378442368 [Eh]
	 SCS Total Energy          =    -208.9181073739391081 [Eh]
    Molecular point group: c1
  Basis Set: AUG-CC-PVQZ
    Blend: AUG-CC-PVQZ
  Basis Set: (AUG-CC-PVQZ AUX)
    Blend: AUG-CC-PVQZ-JKFIT
  @DF-RHF Final Energy:  -208.07612743980539
    Total Energy =                       -208.0761274398053899
  Basis Set: (AUG-CC-PVQZ AUX)
  @DF-RHF Final Energy:  -208.06300436212493
    Total Energy =                       -208.0630043621249285
  @DF-RHF Final Energy:  -208.07614564570142
    Total Energy =                       -208.0761456457014162
  @DF-RHF Final Energy:  -230.78119176093529
    Total Energy =                       -230.7811917609353145
  @DF-RHF Final Energy:  -230.79430548985192
    Total Energy =                       -230.7943054898519222
  @DF-RHF Final Energy:  -230.78111581283630
    Total Energy =                       -230.7811158128363331
  @DF-RHF Final Energy:  -230.79428665811383
    Total Energy =                       -230.7942866581138333
  Multiplicity = 1
  @DF-RHF Final Energy:  -438.84670599052873
    Total Energy =                       -438.8467059905286760
	 Singles Energy            =      -0.0000000000000000 [Eh]
	 Same-Spin Energy          =      -0.4610720614465892 [Eh]
	 Opposite-Spin Energy      =      -1.4762601280757695 [Eh]
	 Correlation Energy        =      -1.9373321895223587 [Eh]
	 Total Energy              =    -440.7840381800510841 [Eh]
	 SCS Total Energy          =    -440.7719088313685347 [Eh]
    Molecular point group: c1

    Geometry (in Angstrom), charge = 0, multiplicity = 1:

       Center              X                  Y                   Z               Mass
    ------------   -----------------  -----------------  -----------------  -----------------
         C            0.886135897819     0.544484225190    -1.476730036694    12.000000000000
         H            1.544405897819     1.088634225190    -0.813710036694     1.007825032230
         C            1.373475897819    -0.489425774810    -2.275320036694    12.000000000000
         H            2.423455897819    -0.747385774810    -2.244520036694     1.007825032230
         C            0.508385897819    -1.190745774810    -3.114300036694    12.000000000000
         H            0.886655897819    -1.992955774810    -3.733300036694     1.007825032230
         C           -0.844254102181    -0.856605774810    -3.156930036694    12.000000000000
         H           -1.514834102181    -1.399745774810    -3.808900036694     1.007825032230
         C           -1.331824102181     0.178944225190    -2.360630036694    12.000000000000
         H           -2.380994102181     0.439424225190    -2.395700036694     1.007825032230
         C           -0.467864102181     0.879114225190    -1.519490036694    12.000000000000
         H           -0.835534102181     1.676294225190    -0.888440036694     1.007825032230
         C           -0.016214102181     0.275414225190     3.004539963306    12.000000000000
         O            0.230275897819     1.318834225190     2.417299963306    15.994914619570
         N           -0.320264102181    -0.879595774810     2.353369963306    14.003074004430
         H           -0.295064102181    -0.886605774810     1.346729963306     1.007825032230
         H           -0.476044102181    -1.735085774810     2.849069963306     1.007825032230
         C            0.006625897819     0.180524225190     4.512959963306    12.000000000000
         H            1.038335897819     0.264734225190     4.848029963306     1.007825032230
         H           -0.415274102181    -0.746125774810     4.893979963306     1.007825032230
         H           -0.542834102181     1.024364225190     4.919729963306     1.007825032230

  Charge       = 0
  Multiplicity = 1
  Basis Set: AUG-CC-PVQZ
    Blend: AUG-CC-PVQZ
  Basis Set: (AUG-CC-PVQZ AUX)
    Blend: AUG-CC-PVQZ-JKFIT

    Orbital Energies [Eh]
    ---------------------

    Doubly Occupied:

       1A    -20.511892     2A    -15.583086     3A    -11.351518
       4A    -11.235754     5A    -11.232718     6A    -11.231909
       7A    -11.231147     8A    -11.230685     9A    -11.229057
      10A    -11.227897    11A     -1.374659    12A     -1.211758
      13A     -1.146580    14A     -1.011150    15A     -1.010755
      16A     -1.004971    17A     -0.820741    18A     -0.819745
      19A     -0.799298    20A     -0.726407    21A     -0.705787
      22A     -0.663975    23A     -0.640130    24A     -0.615442
      25A     -0.615014    26A     -0.585115    27A     -0.584731
      28A     -0.583174    29A     -0.562306    30A     -0.523723
      31A     -0.499811    32A     -0.491317    33A     -0.490621
      34A     -0.423779    35A     -0.413705    36A     -0.334494
      37A     -0.333448

  @DF-RHF Final Energy:  -438.87295479711065

   => Energetics <=

    Nuclear Repulsion Energy =            456.0117986878964871
    One-Electron Energy =               -1499.6529131820520888
    Two-Electron Energy =                 604.7681596970448936
    Total Energy =                       -438.8729547971106513

  Dipole Moment: [D]
     X:    -0.7145      Y:    -3.6466      Z:     1.5941     Total:     4.0435

  Basis Set: (AUG-CC-PVQZ AUX)
    Blend: AUG-CC-PVQZ-RI
	 Reference Energy          =    -438.8729547971106513 [Eh]
	 Singles Energy            =      -0.0000000000000000 [Eh]
	 Same-Spin Energy          =      -0.4880923937134899 [Eh]
	 Opposite-Spin Energy      =      -1.6590988877546349 [Eh]
	 Correlation Energy        =      -2.1471912814681247 [Eh]
	 Total Energy              =    -441.0201460785787617 [Eh]

	 ================> DF-SCS-MP2 Energies <==================
	-----------------------------------------------------------
	 SCS Same-Spin Scale       =       0.3333333333333333 [-]
	 SCS Opposite-Spin Scale   =       1.2000000000000000 [-]
	 SCS Same-Spin Energy      =      -0.1626974645711633 [Eh]
	 SCS Opposite-Spin Energy  =      -1.9909186653055617 [Eh]
	 SCS Correlation Energy    =      -2.1536161298767249 [Eh]
	 SCS Total Energy          =    -441.0265709269874037 [Eh]
	-----------------------------------------------------------

*** Psi4 exiting successfully. Buy a developer a beer!
