                               Psi4 1.4a2.dev224

  ==> Input File <==

--------------------------------------------------------------------------
#Generated by lconvert.py for cbs job

memory 20 GB

molecule  {
0 1
  C       0.780150   -0.609910   -1.207560
  H       0.896190   -1.137640   -2.144140
  C       0.477940    0.750990   -1.207890
  H       0.356960    1.278170   -2.144050
  C       0.327290    1.431870   -0.000000
  H       0.091470    2.487140    0.000000
  C       0.477940    0.750990    1.207890
  H       0.356960    1.278170    2.144050
  C       0.780150   -0.609910    1.207560
  H       0.896190   -1.137640    2.144140
  C       0.931650   -1.289980    0.000000
  H       1.168490   -2.345210   -0.000000
--
0 1
  O      -4.618430   -0.479680    0.000000
  H      -4.453630   -1.424400    0.000000
  H      -3.731130   -0.108090    0.000000
units angstrom
no_reorient
symmetry c1
}

set {
scf_type DF
mp2_type DF
e_convergence 7
reference rhf
}

energy('mp2/aug-cc-pv[tq]z', bsse_type='cp')
--------------------------------------------------------------------------

    Molecular point group: c1
  Charge       = 0
  Multiplicity = 1
  Basis Set: AUG-CC-PVTZ
    Blend: AUG-CC-PVTZ
  Basis Set: (AUG-CC-PVTZ AUX)
    Blend: AUG-CC-PVTZ-JKFIT
  @DF-RHF Final Energy:   -76.06019401727843
    Total Energy =                        -76.0601940172784339
  Basis Set: (AUG-CC-PVTZ AUX)
    Blend: AUG-CC-PVTZ-RI
	 Reference Energy          =     -76.0601940172784339 [Eh]
	 Singles Energy            =      -0.0000000000000000 [Eh]
	 Same-Spin Energy          =      -0.0684267689687673 [Eh]
	 Opposite-Spin Energy      =      -0.2154165364787592 [Eh]
	 Correlation Energy        =      -0.2838433054475266 [Eh]
	 Total Energy              =     -76.3440373227259670 [Eh]
	 SCS Total Energy          =     -76.3415027840425324 [Eh]
    Molecular point group: c1
  Basis Set: AUG-CC-PVQZ
    Blend: AUG-CC-PVQZ
  Basis Set: (AUG-CC-PVQZ AUX)
    Blend: AUG-CC-PVQZ-JKFIT
  @DF-RHF Final Energy:   -76.06557284668857
    Total Energy =                        -76.0655728466885677
  Basis Set: (AUG-CC-PVQZ AUX)
  @DF-RHF Final Energy:   -76.06020503467171
    Total Energy =                        -76.0602050346716965
  @DF-RHF Final Energy:   -76.06557916446647
    Total Energy =                        -76.0655791644664703
  @DF-RHF Final Energy:  -230.78122350735131
    Total Energy =                       -230.7812235073513421
  @DF-RHF Final Energy:  -230.79438180079782
    Total Energy =                       -230.7943818007978507
  @DF-RHF Final Energy:  -230.78120260264666
    Total Energy =                       -230.7812026026466583
  @DF-RHF Final Energy:  -230.79437507040316
    Total Energy =                       -230.7943750704031345
  Multiplicity = 1
  @DF-RHF Final Energy:  -306.84255876901619
    Total Energy =                       -306.8425587690161933
	 Singles Energy            =      -0.0000000000000000 [Eh]
	 Same-Spin Energy          =      -0.3239745275901341 [Eh]
	 Opposite-Spin Energy      =      -1.0340492635404734 [Eh]
	 Correlation Energy        =      -1.3580237911306074 [Eh]
	 Total Energy              =    -308.2005825601468132 [Eh]
	 SCS Total Energy          =    -308.1914093944614592 [Eh]
    Molecular point group: c1

    Geometry (in Angstrom), charge = 0, multiplicity = 1:

       Center              X                  Y                   Z               Mass
    ------------   -----------------  -----------------  -----------------  -----------------
         C            1.123933913976    -0.571370355052    -1.207560000000    12.000000000000
         H            1.239973913976    -1.099100355052    -2.144140000000     1.007825032230
         C            0.821723913976     0.789529644948    -1.207890000000    12.000000000000
         H            0.700743913976     1.316709644948    -2.144050000000     1.007825032230
         C            0.671073913976     1.470409644948     0.000000000000    12.000000000000
         H            0.435253913976     2.525679644948     0.000000000000     1.007825032230
         C            0.821723913976     0.789529644948     1.207890000000    12.000000000000
         H            0.700743913976     1.316709644948     2.144050000000     1.007825032230
         C            1.123933913976    -0.571370355052     1.207560000000    12.000000000000
         H            1.239973913976    -1.099100355052     2.144140000000     1.007825032230
         C            1.275433913976    -1.251440355052     0.000000000000    12.000000000000
         H            1.512273913976    -2.306670355052     0.000000000000     1.007825032230
         O           -4.274646086024    -0.441140355052     0.000000000000    15.994914619570
         H           -4.109846086024    -1.385860355052     0.000000000000     1.007825032230
         H           -3.387346086024    -0.069550355052     0.000000000000     1.007825032230

  Charge       = 0
  Multiplicity = 1
  Basis Set: AUG-CC-PVQZ
    Blend: AUG-CC-PVQZ
  Basis Set: (AUG-CC-PVQZ AUX)
    Blend: AUG-CC-PVQZ-JKFIT

    Orbital Energies [Eh]
    ---------------------

    Doubly Occupied:

       1A    -20.559669     2A    -11.241369     3A    -11.240821
       4A    -11.240762     5A    -11.239579     6A    -11.239518
       7A    -11.238938     8A     -1.346136     9A     -1.156014
      10A     -1.020578    11A     -1.020434    12A     -0.830018
      13A     -0.829929    14A     -0.715610    15A     -0.706485
      16A     -0.650149    17A     -0.625059    18A     -0.594134
      19A     -0.593983    20A     -0.581674    21A     -0.508816
      22A     -0.504589    23A     -0.500928    24A     -0.500907
      25A     -0.343196    26A     -0.343177

  @DF-RHF Final Energy:  -306.86108213442139

   => Energetics <=

    Nuclear Repulsion Energy =            253.9328329157686710
    One-Electron Energy =                -918.8428850820281468
    Two-Electron Energy =                 358.0489700318380528
    Total Energy =                       -306.8610821344213946

  Dipole Moment: [D]
     X:     1.9296      Y:    -0.9112      Z:     0.0000     Total:     2.1339

  Basis Set: (AUG-CC-PVQZ AUX)
    Blend: AUG-CC-PVQZ-RI
	 Reference Energy          =    -306.8610821344213946 [Eh]
	 Singles Energy            =      -0.0000000000000000 [Eh]
	 Same-Spin Energy          =      -0.3428413830359809 [Eh]
	 Opposite-Spin Energy      =      -1.1626644041844094 [Eh]
	 Correlation Energy        =      -1.5055057872203903 [Eh]
	 Total Energy              =    -308.3665879216417807 [Eh]

	 ================> DF-SCS-MP2 Energies <==================
	-----------------------------------------------------------
	 SCS Same-Spin Scale       =       0.3333333333333333 [-]
	 SCS Opposite-Spin Scale   =       1.2000000000000000 [-]
	 SCS Same-Spin Energy      =      -0.1142804610119936 [Eh]
	 SCS Opposite-Spin Energy  =      -1.3951972850212913 [Eh]
	 SCS Correlation Energy    =      -1.5094777460332849 [Eh]
	 SCS Total Energy          =    -308.3705598804546639 [Eh]
	-----------------------------------------------------------

*** Psi4 exiting successfully. Buy a developer a beer!
