                               Psi4 1.4a2.dev224

  ==> Input File <==

--------------------------------------------------------------------------
#Generated by lconvert.py for cbs job

memory 40 GB

molecule  {
0 1
  C        0.7801470    -0.6099150    -1.2075570
  H        0.8961920    -1.1376400    -2.1441450
  C        0.4779430     0.7509940    -1.2078950
  H        0.3569640     1.2781680    -2.1440540
  C        0.3272890     1.4318680    -0.0000000
  H        0.0914650     2.4871390     0.0000000
  C        0.4779430     0.7509940     1.2078950
  H        0.3569640     1.2781680     2.1440540
  C        0.7801470    -0.6099150     1.2075570
  H        0.8961920    -1.1376400     2.1441450
  C        0.9316480    -1.2899810     0.0000000
  H        1.1684860    -2.3452140    -0.0000000
--
0 1
  O       -2.6440780    -0.2580660     0.0000000
  H       -2.4792740    -1.2027870     0.0000000
  H       -1.7567770     0.1135250     0.0000000
units angstrom
no_reorient
symmetry c1
}

set {
scf_type DF
mp2_type DF
e_convergence 7
reference rhf
}

energy('mp2/aug-cc-pv[tq]z', bsse_type='cp')
--------------------------------------------------------------------------

    Molecular point group: c1
  Charge       = 0
  Multiplicity = 1
  Basis Set: AUG-CC-PVTZ
    Blend: AUG-CC-PVTZ
  Basis Set: (AUG-CC-PVTZ AUX)
    Blend: AUG-CC-PVTZ-JKFIT
  @DF-RHF Final Energy:   -76.06019387887625
    Total Energy =                        -76.0601938788762482
  Basis Set: (AUG-CC-PVTZ AUX)
    Blend: AUG-CC-PVTZ-RI
	 Reference Energy          =     -76.0601938788762482 [Eh]
	 Singles Energy            =      -0.0000000000000000 [Eh]
	 Same-Spin Energy          =      -0.0684267995523665 [Eh]
	 Opposite-Spin Energy      =      -0.2154166276677015 [Eh]
	 Correlation Energy        =      -0.2838434272200681 [Eh]
	 Total Energy              =     -76.3440373060963111 [Eh]
	 SCS Total Energy          =     -76.3415027652616089 [Eh]
    Molecular point group: c1
  Basis Set: AUG-CC-PVQZ
    Blend: AUG-CC-PVQZ
  Basis Set: (AUG-CC-PVQZ AUX)
    Blend: AUG-CC-PVQZ-JKFIT
  @DF-RHF Final Energy:   -76.06557270092732
    Total Energy =                        -76.0655727009273335
  Basis Set: (AUG-CC-PVQZ AUX)
  @DF-RHF Final Energy:   -76.06029257309596
    Total Energy =                        -76.0602925730959640
  @DF-RHF Final Energy:   -76.06561001840063
    Total Energy =                        -76.0656100184006334
  @DF-RHF Final Energy:  -230.78137113260294
    Total Energy =                       -230.7813711326029420
  @DF-RHF Final Energy:  -230.79441032209621
    Total Energy =                       -230.7944103220962120
  @DF-RHF Final Energy:  -230.78120229730030
    Total Energy =                       -230.7812022973002968
  @DF-RHF Final Energy:  -230.79437475075531
    Total Energy =                       -230.7943747507553098
  Multiplicity = 1
  @DF-RHF Final Energy:  -306.84202999131617
    Total Energy =                       -306.8420299913161671
	 Singles Energy            =      -0.0000000000000000 [Eh]
	 Same-Spin Energy          =      -0.3267021613818547 [Eh]
	 Opposite-Spin Energy      =      -1.0388472780133400 [Eh]
	 Correlation Energy        =      -1.3655494393951946 [Eh]
	 Total Energy              =    -308.2075794307113483 [Eh]
	 SCS Total Energy          =    -308.1975474453927859 [Eh]
    Molecular point group: c1

    Geometry (in Angstrom), charge = 0, multiplicity = 1:

       Center              X                  Y                   Z               Mass
    ------------   -----------------  -----------------  -----------------  -----------------
         C            0.753744713417    -0.612926754925    -1.207557000000    12.000000000000
         H            0.869789713417    -1.140651754925    -2.144145000000     1.007825032230
         C            0.451540713417     0.747982245075    -1.207895000000    12.000000000000
         H            0.330561713417     1.275156245075    -2.144054000000     1.007825032230
         C            0.300886713417     1.428856245075     0.000000000000    12.000000000000
         H            0.065062713417     2.484127245075     0.000000000000     1.007825032230
         C            0.451540713417     0.747982245075     1.207895000000    12.000000000000
         H            0.330561713417     1.275156245075     2.144054000000     1.007825032230
         C            0.753744713417    -0.612926754925     1.207557000000    12.000000000000
         H            0.869789713417    -1.140651754925     2.144145000000     1.007825032230
         C            0.905245713417    -1.292992754925     0.000000000000    12.000000000000
         H            1.142083713417    -2.348225754925     0.000000000000     1.007825032230
         O           -2.670480286583    -0.261077754925     0.000000000000    15.994914619570
         H           -2.505676286583    -1.205798754925     0.000000000000     1.007825032230
         H           -1.783179286583     0.110513245075     0.000000000000     1.007825032230

  Charge       = 0
  Multiplicity = 1
  Basis Set: AUG-CC-PVQZ
    Blend: AUG-CC-PVQZ
  Basis Set: (AUG-CC-PVQZ AUX)
    Blend: AUG-CC-PVQZ-JKFIT

    Orbital Energies [Eh]
    ---------------------

    Doubly Occupied:

       1A    -20.540691     2A    -11.247355     3A    -11.246725
       4A    -11.246624     5A    -11.245469     6A    -11.245378
       7A    -11.244769     8A     -1.329365     9A     -1.163441
      10A     -1.027349    11A     -1.026933    12A     -0.835930
      13A     -0.835799    14A     -0.721745    15A     -0.691650
      16A     -0.655254    17A     -0.631117    18A     -0.600043
      19A     -0.599857    20A     -0.570177    21A     -0.511646
      22A     -0.506537    23A     -0.506392    24A     -0.488486
      25A     -0.351532    26A     -0.349624

  @DF-RHF Final Energy:  -306.86038955691606

   => Energetics <=

    Nuclear Repulsion Energy =            275.5979227270777869
    One-Electron Energy =                -962.0768457976080299
    Two-Electron Energy =                 379.6185335136142385
    Total Energy =                       -306.8603895569160613

  Dipole Moment: [D]
     X:     2.2482      Y:    -0.8132      Z:    -0.0000     Total:     2.3908

  Basis Set: (AUG-CC-PVQZ AUX)
    Blend: AUG-CC-PVQZ-RI
	 Reference Energy          =    -306.8603895569160613 [Eh]
	 Singles Energy            =      -0.0000000000000000 [Eh]
	 Same-Spin Energy          =      -0.3454671670015593 [Eh]
	 Opposite-Spin Energy      =      -1.1658349161207258 [Eh]
	 Correlation Energy        =      -1.5113020831222850 [Eh]
	 Total Energy              =    -308.3716916400383639 [Eh]

	 ================> DF-SCS-MP2 Energies <==================
	-----------------------------------------------------------
	 SCS Same-Spin Scale       =       0.3333333333333333 [-]
	 SCS Opposite-Spin Scale   =       1.2000000000000000 [-]
	 SCS Same-Spin Energy      =      -0.1151557223338531 [Eh]
	 SCS Opposite-Spin Energy  =      -1.3990018993448710 [Eh]
	 SCS Correlation Energy    =      -1.5141576216787240 [Eh]
	 SCS Total Energy          =    -308.3745471785948098 [Eh]
	-----------------------------------------------------------

*** Psi4 exiting successfully. Buy a developer a beer!
