                               Psi4 1.4a2.dev224

  ==> Input File <==

--------------------------------------------------------------------------
#Generated by lconvert.py for cbs job

memory 40 GB

molecule  {
0 1
  C        0.7801470    -0.6099150    -1.2075570
  H        0.8961920    -1.1376400    -2.1441450
  C        0.4779430     0.7509940    -1.2078950
  H        0.3569640     1.2781680    -2.1440540
  C        0.3272890     1.4318680    -0.0000000
  H        0.0914650     2.4871390     0.0000000
  C        0.4779430     0.7509940     1.2078950
  H        0.3569640     1.2781680     2.1440540
  C        0.7801470    -0.6099150     1.2075570
  H        0.8961920    -1.1376400     2.1441450
  C        0.9316480    -1.2899810     0.0000000
  H        1.1684860    -2.3452140    -0.0000000
--
0 1
  O       -2.2038350    -0.2086500     0.0000000
  H       -2.0390310    -1.1533710     0.0000000
  H       -1.3165340     0.1629400     0.0000000
units angstrom
no_reorient
symmetry c1
}

set {
scf_type DF
mp2_type DF
e_convergence 7
reference rhf
}

energy('mp2/aug-cc-pv[tq]z', bsse_type='cp')
--------------------------------------------------------------------------

    Molecular point group: c1
  Charge       = 0
  Multiplicity = 1
  Basis Set: AUG-CC-PVTZ
    Blend: AUG-CC-PVTZ
  Basis Set: (AUG-CC-PVTZ AUX)
    Blend: AUG-CC-PVTZ-JKFIT
  @DF-RHF Final Energy:   -76.06019388613657
    Total Energy =                        -76.0601938861365738
  Basis Set: (AUG-CC-PVTZ AUX)
    Blend: AUG-CC-PVTZ-RI
	 Reference Energy          =     -76.0601938861365738 [Eh]
	 Singles Energy            =      -0.0000000000000000 [Eh]
	 Same-Spin Energy          =      -0.0684267974569392 [Eh]
	 Opposite-Spin Energy      =      -0.2154166206606893 [Eh]
	 Correlation Energy        =      -0.2838434181176286 [Eh]
	 Total Energy              =     -76.3440373042542006 [Eh]
	 SCS Total Energy          =     -76.3415027634150505 [Eh]
    Molecular point group: c1
  Basis Set: AUG-CC-PVQZ
    Blend: AUG-CC-PVQZ
  Basis Set: (AUG-CC-PVQZ AUX)
    Blend: AUG-CC-PVQZ-JKFIT
  @DF-RHF Final Energy:   -76.06557270924669
    Total Energy =                        -76.0655727092467089
  Basis Set: (AUG-CC-PVQZ AUX)
  @DF-RHF Final Energy:   -76.06033566143725
    Total Energy =                        -76.0603356614372501
  @DF-RHF Final Energy:   -76.06562251486464
    Total Energy =                        -76.0656225148646286
  @DF-RHF Final Energy:  -230.78143307714805
    Total Energy =                       -230.7814330771480513
  @DF-RHF Final Energy:  -230.79442176158557
    Total Energy =                       -230.7944217615855678
  @DF-RHF Final Energy:  -230.78120229568788
    Total Energy =                       -230.7812022956878764
  @DF-RHF Final Energy:  -230.79437474821816
    Total Energy =                       -230.7943747482181607
  Multiplicity = 1
  @DF-RHF Final Energy:  -306.83141169709222
    Total Energy =                       -306.8314116970922214
	 Singles Energy            =      -0.0000000000000000 [Eh]
	 Same-Spin Energy          =      -0.3295006048410784 [Eh]
	 Opposite-Spin Energy      =      -1.0430646324989088 [Eh]
	 Correlation Energy        =      -1.3725652373399873 [Eh]
	 Total Energy              =    -308.2039769344322053 [Eh]
	 SCS Total Energy          =    -308.1929227910379154 [Eh]
    Molecular point group: c1

    Geometry (in Angstrom), charge = 0, multiplicity = 1:

       Center              X                  Y                   Z               Mass
    ------------   -----------------  -----------------  -----------------  -----------------
         C            0.671200156249    -0.622192131587    -1.207557000000    12.000000000000
         H            0.787245156249    -1.149917131587    -2.144145000000     1.007825032230
         C            0.368996156249     0.738716868413    -1.207895000000    12.000000000000
         H            0.248017156249     1.265890868413    -2.144054000000     1.007825032230
         C            0.218342156249     1.419590868413     0.000000000000    12.000000000000
         H           -0.017481843751     2.474861868413     0.000000000000     1.007825032230
         C            0.368996156249     0.738716868413     1.207895000000    12.000000000000
         H            0.248017156249     1.265890868413     2.144054000000     1.007825032230
         C            0.671200156249    -0.622192131587     1.207557000000    12.000000000000
         H            0.787245156249    -1.149917131587     2.144145000000     1.007825032230
         C            0.822701156249    -1.302258131587     0.000000000000    12.000000000000
         H            1.059539156249    -2.357491131587     0.000000000000     1.007825032230
         O           -2.312781843751    -0.220927131587     0.000000000000    15.994914619570
         H           -2.147977843751    -1.165648131587     0.000000000000     1.007825032230
         H           -1.425480843751     0.150662868413     0.000000000000     1.007825032230

  Charge       = 0
  Multiplicity = 1
  Basis Set: AUG-CC-PVQZ
    Blend: AUG-CC-PVQZ
  Basis Set: (AUG-CC-PVQZ AUX)
    Blend: AUG-CC-PVQZ-JKFIT

    Orbital Energies [Eh]
    ---------------------

    Doubly Occupied:

       1A    -20.527231     2A    -11.248816     3A    -11.247979
       4A    -11.247897     5A    -11.246631     6A    -11.246624
       7A    -11.245830     8A     -1.321072     9A     -1.166561
      10A     -1.030195    11A     -1.029033    12A     -0.837606
      13A     -0.837454    14A     -0.724837    15A     -0.686765
      16A     -0.656443    17A     -0.632694    18A     -0.602029
      19A     -0.601690    20A     -0.569889    21A     -0.508028
      22A     -0.507865    23A     -0.501688    24A     -0.480633
      25A     -0.354372    26A     -0.350035

  @DF-RHF Final Energy:  -306.84966292039223

   => Energetics <=

    Nuclear Repulsion Energy =            283.5086120554545914
    One-Electron Energy =                -977.8967482386229904
    Two-Electron Energy =                 387.5384732627761650
    Total Energy =                       -306.8496629203922339

  Dipole Moment: [D]
     X:     2.2980      Y:    -0.7629      Z:     0.0000     Total:     2.4214

  Basis Set: (AUG-CC-PVQZ AUX)
    Blend: AUG-CC-PVQZ-RI
	 Reference Energy          =    -306.8496629203922339 [Eh]
	 Singles Energy            =      -0.0000000000000000 [Eh]
	 Same-Spin Energy          =      -0.3482568602350691 [Eh]
	 Opposite-Spin Energy      =      -1.1693906952252149 [Eh]
	 Correlation Energy        =      -1.5176475554602840 [Eh]
	 Total Energy              =    -308.3673104758524914 [Eh]

	 ================> DF-SCS-MP2 Energies <==================
	-----------------------------------------------------------
	 SCS Same-Spin Scale       =       0.3333333333333333 [-]
	 SCS Opposite-Spin Scale   =       1.2000000000000000 [-]
	 SCS Same-Spin Energy      =      -0.1160856200783563 [Eh]
	 SCS Opposite-Spin Energy  =      -1.4032688342702577 [Eh]
	 SCS Correlation Energy    =      -1.5193544543486142 [Eh]
	 SCS Total Energy          =    -308.3690173747408494 [Eh]
	-----------------------------------------------------------

*** Psi4 exiting successfully. Buy a developer a beer!
