                               Psi4 1.4a2.dev224

  ==> Input File <==

--------------------------------------------------------------------------
#Generated by lconvert.py for cbs job

memory 40 GB

molecule  {
0 1
  C        0.7801470    -0.6099150    -1.2075570
  H        0.8961920    -1.1376400    -2.1441450
  C        0.4779430     0.7509940    -1.2078950
  H        0.3569640     1.2781680    -2.1440540
  C        0.3272890     1.4318680    -0.0000000
  H        0.0914650     2.4871390     0.0000000
  C        0.4779430     0.7509940     1.2078950
  H        0.3569640     1.2781680     2.1440540
  C        0.7801470    -0.6099150     1.2075570
  H        0.8961920    -1.1376400     2.1441450
  C        0.9316480    -1.2899810     0.0000000
  H        1.1684860    -2.3452140    -0.0000000
--
0 1
  O       -1.8936570    -0.1738340     0.0000000
  H       -1.7288530    -1.1185550     0.0000000
  H       -1.0063560     0.1977570     0.0000000
units angstrom
no_reorient
symmetry c1
}

set {
scf_type DF
mp2_type DF
e_convergence 7
reference rhf
}

energy('mp2/aug-cc-pv[tq]z', bsse_type='cp')
--------------------------------------------------------------------------

    Molecular point group: c1
  Charge       = 0
  Multiplicity = 1
  Basis Set: AUG-CC-PVTZ
    Blend: AUG-CC-PVTZ
  Basis Set: (AUG-CC-PVTZ AUX)
    Blend: AUG-CC-PVTZ-JKFIT
  @DF-RHF Final Energy:   -76.06019387887346
    Total Energy =                        -76.0601938788734628
  Basis Set: (AUG-CC-PVTZ AUX)
    Blend: AUG-CC-PVTZ-RI
	 Reference Energy          =     -76.0601938788734628 [Eh]
	 Singles Energy            =      -0.0000000000000000 [Eh]
	 Same-Spin Energy          =      -0.0684267995523295 [Eh]
	 Opposite-Spin Energy      =      -0.2154166276676100 [Eh]
	 Correlation Energy        =      -0.2838434272199396 [Eh]
	 Total Energy              =     -76.3440373060933979 [Eh]
	 SCS Total Energy          =     -76.3415027652587099 [Eh]
    Molecular point group: c1
  Basis Set: AUG-CC-PVQZ
    Blend: AUG-CC-PVQZ
  Basis Set: (AUG-CC-PVQZ AUX)
    Blend: AUG-CC-PVQZ-JKFIT
  @DF-RHF Final Energy:   -76.06557270094119
    Total Energy =                        -76.0655727009412033
  Basis Set: (AUG-CC-PVQZ AUX)
  @DF-RHF Final Energy:   -76.06037692581066
    Total Energy =                        -76.0603769258106581
  @DF-RHF Final Energy:   -76.06563460960345
    Total Energy =                        -76.0656346096034497
  @DF-RHF Final Energy:  -230.78147314914494
    Total Energy =                       -230.7814731491449720
  @DF-RHF Final Energy:  -230.79442746113799
    Total Energy =                       -230.7944274611380138
  @DF-RHF Final Energy:  -230.78120229857285
    Total Energy =                       -230.7812022985728504
  @DF-RHF Final Energy:  -230.79437475249574
    Total Energy =                       -230.7943747524957416
  @DF-RHF Final Energy:  -306.80827996292385
    Total Energy =                       -306.8082799629238480
  @DF-RHF Final Energy:  -306.82646604823452
    Total Energy =                       -306.8264660482345221
*** Psi4 exiting successfully. Buy a developer a beer!
                               Psi4 1.4a2.dev224
  @DF-RHF Final Energy:   -76.06019388613657
    Total Energy =                        -76.0601938861365738
  @DF-RHF Final Energy:   -76.06557270924669
    Total Energy =                        -76.0655727092467089
  @DF-RHF Final Energy:   -76.06033566143725
    Total Energy =                        -76.0603356614372501
  @DF-RHF Final Energy:   -76.06562251486464
    Total Energy =                        -76.0656225148646286
  @DF-RHF Final Energy:  -230.78143307714805
    Total Energy =                       -230.7814330771480513
  @DF-RHF Final Energy:  -230.79442176158557
    Total Energy =                       -230.7944217615855678
  @DF-RHF Final Energy:  -230.78120229568788
    Total Energy =                       -230.7812022956878764
  @DF-RHF Final Energy:  -230.79437474821816
    Total Energy =                       -230.7943747482181607
  @DF-RHF Final Energy:  -306.83141169709222
    Total Energy =                       -306.8314116970922214
  @DF-RHF Final Energy:  -306.84966292039223
    Total Energy =                       -306.8496629203922339
*** Psi4 exiting successfully. Buy a developer a beer!
                               Psi4 1.4a2.dev224
                               Psi4 1.4a2.dev224
                               Psi4 1.4a2.dev224
                               Psi4 1.4a2.dev224
                               Psi4 1.4a2.dev224
                               Psi4 1.4a2.dev224
                               Psi4 1.4a2.dev224
  @DF-RHF Final Energy:   -76.06019401727843
    Total Energy =                        -76.0601940172784339
  @DF-RHF Final Energy:   -76.06557284668857
    Total Energy =                        -76.0655728466885677
  @DF-RHF Final Energy:   -76.06020503467171
    Total Energy =                        -76.0602050346716965
  @DF-RHF Final Energy:   -76.06557916446647
    Total Energy =                        -76.0655791644664703
  @DF-RHF Final Energy:  -230.78122350735131
    Total Energy =                       -230.7812235073513421
  @DF-RHF Final Energy:  -230.79438180079782
    Total Energy =                       -230.7943818007978507
  @DF-RHF Final Energy:  -230.78120260264666
    Total Energy =                       -230.7812026026466583
  @DF-RHF Final Energy:  -230.79437507040316
    Total Energy =                       -230.7943750704031345
  @DF-RHF Final Energy:  -306.84255876901619
    Total Energy =                       -306.8425587690161933
  @DF-RHF Final Energy:  -306.86108213442139
    Total Energy =                       -306.8610821344213946
*** Psi4 exiting successfully. Buy a developer a beer!
                               Psi4 1.4a2.dev224
  @DF-RHF Final Energy:   -76.06019387060071
    Total Energy =                        -76.0601938706007132
  @DF-RHF Final Energy:   -76.06557269635137
    Total Energy =                        -76.0655726963513672
  @DF-RHF Final Energy:   -76.06020104508804
    Total Energy =                        -76.0602010450880357
  @DF-RHF Final Energy:   -76.06557464836220
    Total Energy =                        -76.0655746483622011
  @DF-RHF Final Energy:  -230.78121427172880
    Total Energy =                       -230.7812142717287998
  @DF-RHF Final Energy:  -230.79437870317184
    Total Energy =                       -230.7943787031718443
  @DF-RHF Final Energy:  -230.78120259846594
    Total Energy =                       -230.7812025984659385
  @DF-RHF Final Energy:  -230.79437506761820
    Total Energy =                       -230.7943750676182049
  Multiplicity = 1
  @DF-RHF Final Energy:  -306.84204798606169
    Total Energy =                       -306.8420479860616865
	 Singles Energy            =      -0.0000000000000000 [Eh]
	 Same-Spin Energy          =      -0.3238605696349246 [Eh]
	 Opposite-Spin Energy      =      -1.0338533496716451 [Eh]
	 Correlation Energy        =      -1.3577139193065697 [Eh]
	 Total Energy              =    -308.1997619053682342 [Eh]
	 SCS Total Energy          =    -308.1906255288793091 [Eh]
    Molecular point group: c1

    Geometry (in Angstrom), charge = 0, multiplicity = 1:

       Center              X                  Y                   Z               Mass
    ------------   -----------------  -----------------  -----------------  -----------------
         C            1.298407934090    -0.551786218572    -1.207560000000    12.000000000000
         H            1.414447934090    -1.079516218572    -2.144140000000     1.007825032230
         C            0.996197934090     0.809113781428    -1.207890000000    12.000000000000
         H            0.875217934090     1.336293781428    -2.144050000000     1.007825032230
         C            0.845547934090     1.489993781428     0.000000000000    12.000000000000
         H            0.609727934090     2.545263781428     0.000000000000     1.007825032230
         C            0.996197934090     0.809113781428     1.207890000000    12.000000000000
         H            0.875217934090     1.336293781428     2.144050000000     1.007825032230
         C            1.298407934090    -0.551786218572     1.207560000000    12.000000000000
         H            1.414447934090    -1.079516218572     2.144140000000     1.007825032230
         C            1.449907934090    -1.231856218572     0.000000000000    12.000000000000
         H            1.686747934090    -2.287086218572     0.000000000000     1.007825032230
         O           -5.030712065910    -0.526006218572     0.000000000000    15.994914619570
         H           -4.865902065910    -1.470726218572     0.000000000000     1.007825032230
         H           -4.143412065910    -0.154416218572     0.000000000000     1.007825032230

  Charge       = 0
  Multiplicity = 1
  Basis Set: AUG-CC-PVQZ
    Blend: AUG-CC-PVQZ
  Basis Set: (AUG-CC-PVQZ AUX)
    Blend: AUG-CC-PVQZ-JKFIT

    Orbital Energies [Eh]
    ---------------------

    Doubly Occupied:

       1A    -20.562084     2A    -11.239834     3A    -11.239281
       4A    -11.239234     5A    -11.238039     6A    -11.237991
       7A    -11.237405     8A     -1.348508     9A     -1.154375
      10A     -1.019018    11A     -1.018841    12A     -0.828507
      13A     -0.828424    14A     -0.714119    15A     -0.708840
      16A     -0.648747    17A     -0.623514    18A     -0.592672
      19A     -0.592486    20A     -0.583920    21A     -0.507052
      22A     -0.506885    23A     -0.499462    24A     -0.499460
      25A     -0.341550    26A     -0.341446

  @DF-RHF Final Energy:  -306.86058248879522

   => Energetics <=

    Nuclear Repulsion Energy =            248.0386357755978395
    One-Electron Energy =                -907.0950432682957398
    Two-Electron Energy =                 352.1958250039026552
    Total Energy =                       -306.8605824887952167

  Dipole Moment: [D]
     X:     1.8648      Y:    -0.9278      Z:     0.0000     Total:     2.0828

  Basis Set: (AUG-CC-PVQZ AUX)
    Blend: AUG-CC-PVQZ-RI
	 Reference Energy          =    -306.8605824887952167 [Eh]
	 Singles Energy            =      -0.0000000000000000 [Eh]
	 Same-Spin Energy          =      -0.3427371602533120 [Eh]
	 Opposite-Spin Energy      =      -1.1625574420815803 [Eh]
	 Correlation Energy        =      -1.5052946023348923 [Eh]
	 Total Energy              =    -308.3658770911301303 [Eh]

	 ================> DF-SCS-MP2 Energies <==================
	-----------------------------------------------------------
	 SCS Same-Spin Scale       =       0.3333333333333333 [-]
	 SCS Opposite-Spin Scale   =       1.2000000000000000 [-]
	 SCS Same-Spin Energy      =      -0.1142457200844373 [Eh]
	 SCS Opposite-Spin Energy  =      -1.3950689304978963 [Eh]
	 SCS Correlation Energy    =      -1.5093146505823336 [Eh]
	 SCS Total Energy          =    -308.3698971393775423 [Eh]
	-----------------------------------------------------------

*** Psi4 exiting successfully. Buy a developer a beer!
