                               Psi4 1.4a2.dev224

  ==> Input File <==

--------------------------------------------------------------------------
#Generated by lconvert.py for cbs job

memory 40 GB

molecule  {
0 1
  C        0.7801470    -0.6099150    -1.2075570
  H        0.8961920    -1.1376400    -2.1441450
  C        0.4779430     0.7509940    -1.2078950
  H        0.3569640     1.2781680    -2.1440540
  C        0.3272890     1.4318680    -0.0000000
  H        0.0914650     2.4871390     0.0000000
  C        0.4779430     0.7509940     1.2078950
  H        0.3569640     1.2781680     2.1440540
  C        0.7801470    -0.6099150     1.2075570
  H        0.8961920    -1.1376400     2.1441450
  C        0.9316480    -1.2899810     0.0000000
  H        1.1684860    -2.3452140    -0.0000000
--
0 1
  O       -1.8936570    -0.1738340     0.0000000
  H       -1.7288530    -1.1185550     0.0000000
  H       -1.0063560     0.1977570     0.0000000
units angstrom
no_reorient
symmetry c1
}

set {
scf_type DF
mp2_type DF
e_convergence 7
reference rhf
}

energy('mp2/aug-cc-pv[tq]z', bsse_type='cp')
--------------------------------------------------------------------------

    Molecular point group: c1
  Charge       = 0
  Multiplicity = 1
  Basis Set: AUG-CC-PVTZ
    Blend: AUG-CC-PVTZ
  Basis Set: (AUG-CC-PVTZ AUX)
    Blend: AUG-CC-PVTZ-JKFIT
  @DF-RHF Final Energy:   -76.06019387887346
    Total Energy =                        -76.0601938788734628
  Basis Set: (AUG-CC-PVTZ AUX)
    Blend: AUG-CC-PVTZ-RI
	 Reference Energy          =     -76.0601938788734628 [Eh]
	 Singles Energy            =      -0.0000000000000000 [Eh]
	 Same-Spin Energy          =      -0.0684267995523295 [Eh]
	 Opposite-Spin Energy      =      -0.2154166276676100 [Eh]
	 Correlation Energy        =      -0.2838434272199396 [Eh]
	 Total Energy              =     -76.3440373060933979 [Eh]
	 SCS Total Energy          =     -76.3415027652587099 [Eh]
    Molecular point group: c1
  Basis Set: AUG-CC-PVQZ
    Blend: AUG-CC-PVQZ
  Basis Set: (AUG-CC-PVQZ AUX)
    Blend: AUG-CC-PVQZ-JKFIT
  @DF-RHF Final Energy:   -76.06557270094119
    Total Energy =                        -76.0655727009412033
  Basis Set: (AUG-CC-PVQZ AUX)
  @DF-RHF Final Energy:   -76.06037692581066
    Total Energy =                        -76.0603769258106581
  @DF-RHF Final Energy:   -76.06563460960345
    Total Energy =                        -76.0656346096034497
  @DF-RHF Final Energy:  -230.78147314914494
    Total Energy =                       -230.7814731491449720
  @DF-RHF Final Energy:  -230.79442746113799
    Total Energy =                       -230.7944274611380138
  @DF-RHF Final Energy:  -230.78120229857285
    Total Energy =                       -230.7812022985728504
  @DF-RHF Final Energy:  -230.79437475249574
    Total Energy =                       -230.7943747524957416
  Multiplicity = 1
  @DF-RHF Final Energy:  -306.80827996292385
    Total Energy =                       -306.8082799629238480
	 Singles Energy            =      -0.0000000000000000 [Eh]
	 Same-Spin Energy          =      -0.3329215039600610 [Eh]
	 Opposite-Spin Energy      =      -1.0479426542532226 [Eh]
	 Correlation Energy        =      -1.3808641582132837 [Eh]
	 Total Energy              =    -308.1891441211371330 [Eh]
	 SCS Total Energy          =    -308.1767849826810561 [Eh]
    Molecular point group: c1

    Geometry (in Angstrom), charge = 0, multiplicity = 1:

       Center              X                  Y                   Z               Mass
    ------------   -----------------  -----------------  -----------------  -----------------
         C            0.613042489567    -0.628720062574    -1.207557000000    12.000000000000
         H            0.729087489567    -1.156445062574    -2.144145000000     1.007825032230
         C            0.310838489567     0.732188937426    -1.207895000000    12.000000000000
         H            0.189859489567     1.259362937426    -2.144054000000     1.007825032230
         C            0.160184489567     1.413062937426     0.000000000000    12.000000000000
         H           -0.075639510433     2.468333937426     0.000000000000     1.007825032230
         C            0.310838489567     0.732188937426     1.207895000000    12.000000000000
         H            0.189859489567     1.259362937426     2.144054000000     1.007825032230
         C            0.613042489567    -0.628720062574     1.207557000000    12.000000000000
         H            0.729087489567    -1.156445062574     2.144145000000     1.007825032230
         C            0.764543489567    -1.308786062574     0.000000000000    12.000000000000
         H            1.001381489567    -2.364019062574     0.000000000000     1.007825032230
         O           -2.060761510433    -0.192639062574     0.000000000000    15.994914619570
         H           -1.895957510433    -1.137360062574     0.000000000000     1.007825032230
         H           -1.173460510433     0.178951937426     0.000000000000     1.007825032230

  Charge       = 0
  Multiplicity = 1
  Basis Set: AUG-CC-PVQZ
    Blend: AUG-CC-PVQZ
  Basis Set: (AUG-CC-PVQZ AUX)
    Blend: AUG-CC-PVQZ-JKFIT

    Orbital Energies [Eh]
    ---------------------

    Doubly Occupied:

       1A    -20.512389     2A    -11.249394     3A    -11.248590
       4A    -11.248478     5A    -11.247003     6A    -11.246861
       7A    -11.246016     8A     -1.316245     9A     -1.169154
      10A     -1.033318    11A     -1.030899    12A     -0.838814
      13A     -0.838635    14A     -0.730077    15A     -0.684421
      16A     -0.657042    17A     -0.633677    18A     -0.603427
      19A     -0.603327    20A     -0.570955    21A     -0.509028
      22A     -0.508923    23A     -0.486261    24A     -0.475728
      25A     -0.355242    26A     -0.347311

  @DF-RHF Final Energy:  -306.82646604823452

   => Energetics <=

    Nuclear Repulsion Energy =            290.1743637489112189
    One-Electron Energy =                -991.2192184256908831
    Two-Electron Energy =                 394.2183886285451422
    Total Energy =                       -306.8264660482345221

  Dipole Moment: [D]
     X:     2.2604      Y:    -0.7166      Z:    -0.0000     Total:     2.3713

  Basis Set: (AUG-CC-PVQZ AUX)
    Blend: AUG-CC-PVQZ-RI
	 Reference Energy          =    -306.8264660482345221 [Eh]
	 Singles Energy            =      -0.0000000000000000 [Eh]
	 Same-Spin Energy          =      -0.3516813404944726 [Eh]
	 Opposite-Spin Energy      =      -1.1738511592427439 [Eh]
	 Correlation Energy        =      -1.5255324997372166 [Eh]
	 Total Energy              =    -308.3519985479717320 [Eh]

	 ================> DF-SCS-MP2 Energies <==================
	-----------------------------------------------------------
	 SCS Same-Spin Scale       =       0.3333333333333333 [-]
	 SCS Opposite-Spin Scale   =       1.2000000000000000 [-]
	 SCS Same-Spin Energy      =      -0.1172271134981575 [Eh]
	 SCS Opposite-Spin Energy  =      -1.4086213910912926 [Eh]
	 SCS Correlation Energy    =      -1.5258485045894501 [Eh]
	 SCS Total Energy          =    -308.3523145528239979 [Eh]
	-----------------------------------------------------------

*** Psi4 exiting successfully. Buy a developer a beer!
