                               Psi4 1.4a2.dev224

  ==> Input File <==

--------------------------------------------------------------------------
#Generated by lconvert.py for cbs job

memory 40 GB

molecule  {
0 1
  C        0.7801470    -0.6099150    -1.2075570
  H        0.8961920    -1.1376400    -2.1441450
  C        0.4779430     0.7509940    -1.2078950
  H        0.3569640     1.2781680    -2.1440540
  C        0.3272890     1.4318680    -0.0000000
  H        0.0914650     2.4871390     0.0000000
  C        0.4779430     0.7509940     1.2078950
  H        0.3569640     1.2781680     2.1440540
  C        0.7801470    -0.6099150     1.2075570
  H        0.8961920    -1.1376400     2.1441450
  C        0.9316480    -1.2899810     0.0000000
  H        1.1684860    -2.3452140    -0.0000000
--
0 1
  O       -3.0675440    -0.3055980    -0.0000000
  H       -2.9027400    -1.2503200    -0.0000000
  H       -2.1802430     0.0659920    -0.0000000
units angstrom
no_reorient
symmetry c1
}

set {
scf_type DF
mp2_type DF
e_convergence 7
reference rhf
}

energy('mp2/aug-cc-pv[tq]z', bsse_type='cp')
--------------------------------------------------------------------------

    Molecular point group: c1
  Charge       = 0
  Multiplicity = 1
  Basis Set: AUG-CC-PVTZ
    Blend: AUG-CC-PVTZ
  Basis Set: (AUG-CC-PVTZ AUX)
    Blend: AUG-CC-PVTZ-JKFIT
  @DF-RHF Final Energy:   -76.06019385398844
    Total Energy =                        -76.0601938539884372
  Basis Set: (AUG-CC-PVTZ AUX)
    Blend: AUG-CC-PVTZ-RI
	 Reference Energy          =     -76.0601938539884372 [Eh]
	 Singles Energy            =      -0.0000000000000000 [Eh]
	 Same-Spin Energy          =      -0.0684268058604851 [Eh]
	 Opposite-Spin Energy      =      -0.2154166463112111 [Eh]
	 Correlation Energy        =      -0.2838434521716962 [Eh]
	 Total Energy              =     -76.3440373061601321 [Eh]
	 SCS Total Energy          =     -76.3415027648487126 [Eh]
    Molecular point group: c1
  Basis Set: AUG-CC-PVQZ
    Blend: AUG-CC-PVQZ
  Basis Set: (AUG-CC-PVQZ AUX)
    Blend: AUG-CC-PVQZ-JKFIT
  @DF-RHF Final Energy:   -76.06557267456694
    Total Energy =                        -76.0655726745669369
  Basis Set: (AUG-CC-PVQZ AUX)
  @DF-RHF Final Energy:   -76.06025888871416
    Total Energy =                        -76.0602588887141593
  @DF-RHF Final Energy:   -76.06560177581719
    Total Energy =                        -76.0656017758171856
  @DF-RHF Final Energy:  -230.78130734858740
    Total Energy =                       -230.7813073485874042
  @DF-RHF Final Energy:  -230.79439878664940
    Total Energy =                       -230.7943987866493671
  @DF-RHF Final Energy:  -230.78120229702404
    Total Energy =                       -230.7812022970240378
  @DF-RHF Final Energy:  -230.79437475120159
    Total Energy =                       -230.7943747512015875
  Multiplicity = 1
  @DF-RHF Final Energy:  -306.84389231609970
    Total Energy =                       -306.8438923160996978
	 Singles Energy            =      -0.0000000000000000 [Eh]
	 Same-Spin Energy          =      -0.3253258858927421 [Eh]
	 Opposite-Spin Energy      =      -1.0365799345307996 [Eh]
	 Correlation Energy        =      -1.3619058204235417 [Eh]
	 Total Energy              =    -308.2057981365232422 [Eh]
	 SCS Total Energy          =    -308.1962301995009170 [Eh]
    Molecular point group: c1

    Geometry (in Angstrom), charge = 0, multiplicity = 1:

       Center              X                  Y                   Z               Mass
    ------------   -----------------  -----------------  -----------------  -----------------
         C            0.833143621396    -0.604014592484    -1.207557000000    12.000000000000
         H            0.949188621396    -1.131739592484    -2.144145000000     1.007825032230
         C            0.530939621396     0.756894407516    -1.207895000000    12.000000000000
         H            0.409960621396     1.284068407516    -2.144054000000     1.007825032230
         C            0.380285621396     1.437768407516     0.000000000000    12.000000000000
         H            0.144461621396     2.493039407516     0.000000000000     1.007825032230
         C            0.530939621396     0.756894407516     1.207895000000    12.000000000000
         H            0.409960621396     1.284068407516     2.144054000000     1.007825032230
         C            0.833143621396    -0.604014592484     1.207557000000    12.000000000000
         H            0.949188621396    -1.131739592484     2.144145000000     1.007825032230
         C            0.984644621396    -1.284080592484     0.000000000000    12.000000000000
         H            1.221482621396    -2.339313592484     0.000000000000     1.007825032230
         O           -3.014547378604    -0.299697592484     0.000000000000    15.994914619570
         H           -2.849743378604    -1.244419592484     0.000000000000     1.007825032230
         H           -2.127246378604     0.071892407516     0.000000000000     1.007825032230

  Charge       = 0
  Multiplicity = 1
  Basis Set: AUG-CC-PVQZ
    Blend: AUG-CC-PVQZ
  Basis Set: (AUG-CC-PVQZ AUX)
    Blend: AUG-CC-PVQZ-JKFIT

    Orbital Energies [Eh]
    ---------------------

    Doubly Occupied:

       1A    -20.548380     2A    -11.245792     3A    -11.245245
       4A    -11.245137     5A    -11.243997     6A    -11.243893
       7A    -11.243325     8A     -1.335561     9A     -1.161154
      10A     -1.025291    11A     -1.025162    12A     -0.834351
      13A     -0.834234    14A     -0.719942    15A     -0.696516
      16A     -0.653970    17A     -0.629523    18A     -0.598345
      19A     -0.598301    20A     -0.572939    21A     -0.513223
      22A     -0.505072    23A     -0.504961    24A     -0.494405
      25A     -0.348930    26A     -0.348037

  @DF-RHF Final Energy:  -306.86232896415891

   => Energetics <=

    Nuclear Repulsion Energy =            269.3628267509632792
    One-Electron Energy =                -949.6189408403848802
    Two-Electron Energy =                 373.3937851252626388
    Total Energy =                       -306.8623289641589054

  Dipole Moment: [D]
     X:     2.1638      Y:    -0.8481      Z:     0.0000     Total:     2.3240

  Basis Set: (AUG-CC-PVQZ AUX)
    Blend: AUG-CC-PVQZ-RI
	 Reference Energy          =    -306.8623289641589054 [Eh]
	 Singles Energy            =      -0.0000000000000000 [Eh]
	 Same-Spin Energy          =      -0.3441168578596797 [Eh]
	 Opposite-Spin Energy      =      -1.1641847868852435 [Eh]
	 Correlation Energy        =      -1.5083016447449231 [Eh]
	 Total Energy              =    -308.3706306089038094 [Eh]

	 ================> DF-SCS-MP2 Energies <==================
	-----------------------------------------------------------
	 SCS Same-Spin Scale       =       0.3333333333333333 [-]
	 SCS Opposite-Spin Scale   =       1.2000000000000000 [-]
	 SCS Same-Spin Energy      =      -0.1147056192865599 [Eh]
	 SCS Opposite-Spin Energy  =      -1.3970217442622921 [Eh]
	 SCS Correlation Energy    =      -1.5117273635488520 [Eh]
	 SCS Total Energy          =    -308.3740563277077626 [Eh]
	-----------------------------------------------------------

*** Psi4 exiting successfully. Buy a developer a beer!
