                               Psi4 1.4a2.dev224

  ==> Input File <==

--------------------------------------------------------------------------
#Generated by lconvert.py for cbs job

memory 40 GB

molecule  {
0 1
  C        0.7801470    -0.6099150    -1.2075570
  H        0.8961920    -1.1376400    -2.1441450
  C        0.4779430     0.7509940    -1.2078950
  H        0.3569640     1.2781680    -2.1440540
  C        0.3272890     1.4318680    -0.0000000
  H        0.0914650     2.4871390     0.0000000
  C        0.4779430     0.7509940     1.2078950
  H        0.3569640     1.2781680     2.1440540
  C        0.7801470    -0.6099150     1.2075570
  H        0.8961920    -1.1376400     2.1441450
  C        0.9316480    -1.2899810     0.0000000
  H        1.1684860    -2.3452140    -0.0000000
--
0 1
  O       -2.7865360    -0.2740560    -0.0000000
  H       -2.6217320    -1.2187780    -0.0000000
  H       -1.8992350     0.0975340    -0.0000000
units angstrom
no_reorient
symmetry c1
}

set {
scf_type DF
mp2_type DF
e_convergence 7
reference rhf
}

energy('mp2/aug-cc-pv[tq]z', bsse_type='cp')
--------------------------------------------------------------------------

    Molecular point group: c1
  Charge       = 0
  Multiplicity = 1
  Basis Set: AUG-CC-PVTZ
    Blend: AUG-CC-PVTZ
  Basis Set: (AUG-CC-PVTZ AUX)
    Blend: AUG-CC-PVTZ-JKFIT
  @DF-RHF Final Energy:   -76.06019385401339
    Total Energy =                        -76.0601938540133915
  Basis Set: (AUG-CC-PVTZ AUX)
    Blend: AUG-CC-PVTZ-RI
	 Reference Energy          =     -76.0601938540133915 [Eh]
	 Singles Energy            =      -0.0000000000000000 [Eh]
	 Same-Spin Energy          =      -0.0684268058604482 [Eh]
	 Opposite-Spin Energy      =      -0.2154166463111620 [Eh]
	 Correlation Energy        =      -0.2838434521716102 [Eh]
	 Total Energy              =     -76.3440373061850011 [Eh]
	 SCS Total Energy          =     -76.3415027648735958 [Eh]
    Molecular point group: c1
  Basis Set: AUG-CC-PVQZ
    Blend: AUG-CC-PVQZ
  Basis Set: (AUG-CC-PVQZ AUX)
    Blend: AUG-CC-PVQZ-JKFIT
  @DF-RHF Final Energy:   -76.06557267457255
    Total Energy =                        -76.0655726745725644
  Basis Set: (AUG-CC-PVQZ AUX)
  @DF-RHF Final Energy:   -76.06028073337237
    Total Energy =                        -76.0602807333723661
  @DF-RHF Final Energy:   -76.06560709070661
    Total Energy =                        -76.0656070907066066
  @DF-RHF Final Energy:  -230.78134732124573
    Total Energy =                       -230.7813473212457325
  @DF-RHF Final Energy:  -230.79440613954708
    Total Energy =                       -230.7944061395470499
  @DF-RHF Final Energy:  -230.78120229685882
    Total Energy =                       -230.7812022968587939
  @DF-RHF Final Energy:  -230.79437475377961
    Total Energy =                       -230.7943747537796071
  Multiplicity = 1
  @DF-RHF Final Energy:  -306.84310538694660
    Total Energy =                       -306.8431053869466041
	 Singles Energy            =      -0.0000000000000000 [Eh]
	 Same-Spin Energy          =      -0.3261349435389083 [Eh]
	 Opposite-Spin Energy      =      -1.0379441952757384 [Eh]
	 Correlation Energy        =      -1.3640791388146467 [Eh]
	 Total Energy              =    -308.2071845257612495 [Eh]
	 SCS Total Energy          =    -308.1973500691237859 [Eh]
    Molecular point group: c1

    Geometry (in Angstrom), charge = 0, multiplicity = 1:

       Center              X                  Y                   Z               Mass
    ------------   -----------------  -----------------  -----------------  -----------------
         C            0.780455263102    -0.609928645455    -1.207557000000    12.000000000000
         H            0.896500263102    -1.137653645455    -2.144145000000     1.007825032230
         C            0.478251263102     0.750980354545    -1.207895000000    12.000000000000
         H            0.357272263102     1.278154354545    -2.144054000000     1.007825032230
         C            0.327597263102     1.431854354545     0.000000000000    12.000000000000
         H            0.091773263102     2.487125354545     0.000000000000     1.007825032230
         C            0.478251263102     0.750980354545     1.207895000000    12.000000000000
         H            0.357272263102     1.278154354545     2.144054000000     1.007825032230
         C            0.780455263102    -0.609928645455     1.207557000000    12.000000000000
         H            0.896500263102    -1.137653645455     2.144145000000     1.007825032230
         C            0.931956263102    -1.289994645455     0.000000000000    12.000000000000
         H            1.168794263102    -2.345227645455     0.000000000000     1.007825032230
         O           -2.786227736898    -0.274069645455     0.000000000000    15.994914619570
         H           -2.621423736898    -1.218791645455     0.000000000000     1.007825032230
         H           -1.898926736898     0.097520354545     0.000000000000     1.007825032230

  Charge       = 0
  Multiplicity = 1
  Basis Set: AUG-CC-PVQZ
    Blend: AUG-CC-PVQZ
  Basis Set: (AUG-CC-PVQZ AUX)
    Blend: AUG-CC-PVQZ-JKFIT

    Orbital Energies [Eh]
    ---------------------

    Doubly Occupied:

       1A    -20.543711     2A    -11.246829     3A    -11.246242
       4A    -11.246134     5A    -11.244990     6A    -11.244889
       7A    -11.244302     8A     -1.331680     9A     -1.162609
      10A     -1.026607    11A     -1.026314    12A     -0.835390
      13A     -0.835264    14A     -0.721083    15A     -0.693355
      16A     -0.654826    17A     -0.630578    18A     -0.599447
      19A     -0.599317    20A     -0.570937    21A     -0.512723
      22A     -0.506042    23A     -0.505907    24A     -0.490692
      25A     -0.350607    26A     -0.349131

  @DF-RHF Final Energy:  -306.86149500210701

   => Energetics <=

    Nuclear Repulsion Energy =            273.3666900720508011
    One-Electron Energy =                -957.6171580275814676
    Two-Electron Energy =                 377.3889729534236608
    Total Energy =                       -306.8614950021070058

  Dipole Moment: [D]
     X:     2.2212      Y:    -0.8263      Z:     0.0000     Total:     2.3699

  Basis Set: (AUG-CC-PVQZ AUX)
    Blend: AUG-CC-PVQZ-RI
	 Reference Energy          =    -306.8614950021070058 [Eh]
	 Singles Energy            =      -0.0000000000000000 [Eh]
	 Same-Spin Energy          =      -0.3449074130586554 [Eh]
	 Opposite-Spin Energy      =      -1.1651453762274033 [Eh]
	 Correlation Energy        =      -1.5100527892860587 [Eh]
	 Total Energy              =    -308.3715477913930840 [Eh]

	 ================> DF-SCS-MP2 Energies <==================
	-----------------------------------------------------------
	 SCS Same-Spin Scale       =       0.3333333333333333 [-]
	 SCS Opposite-Spin Scale   =       1.2000000000000000 [-]
	 SCS Same-Spin Energy      =      -0.1149691376862184 [Eh]
	 SCS Opposite-Spin Energy  =      -1.3981744514728840 [Eh]
	 SCS Correlation Energy    =      -1.5131435891591025 [Eh]
	 SCS Total Energy          =    -308.3746385912660912 [Eh]
	-----------------------------------------------------------

*** Psi4 exiting successfully. Buy a developer a beer!
