                               Psi4 1.4a2.dev224

  ==> Input File <==

--------------------------------------------------------------------------
#Generated by lconvert.py for cbs job

memory 40 GB

molecule  {
0 1
  C        0.7801470    -0.6099150    -1.2075570
  H        0.8961920    -1.1376400    -2.1441450
  C        0.4779430     0.7509940    -1.2078950
  H        0.3569640     1.2781680    -2.1440540
  C        0.3272890     1.4318680    -0.0000000
  H        0.0914650     2.4871390     0.0000000
  C        0.4779430     0.7509940     1.2078950
  H        0.3569640     1.2781680     2.1440540
  C        0.7801470    -0.6099150     1.2075570
  H        0.8961920    -1.1376400     2.1441450
  C        0.9316480    -1.2899810     0.0000000
  H        1.1684860    -2.3452140    -0.0000000
--
0 1
  O       -2.9277110    -0.2899020    -0.0000000
  H       -2.7629070    -1.2346240    -0.0000000
  H       -2.0404100     0.0816880    -0.0000000
units angstrom
no_reorient
symmetry c1
}

set {
scf_type DF
mp2_type DF
e_convergence 7
reference rhf
}

energy('mp2/aug-cc-pv[tq]z', bsse_type='cp')
--------------------------------------------------------------------------

    Molecular point group: c1
  Charge       = 0
  Multiplicity = 1
  Basis Set: AUG-CC-PVTZ
    Blend: AUG-CC-PVTZ
  Basis Set: (AUG-CC-PVTZ AUX)
    Blend: AUG-CC-PVTZ-JKFIT
  @DF-RHF Final Energy:   -76.06019385399293
    Total Energy =                        -76.0601938539929279
  Basis Set: (AUG-CC-PVTZ AUX)
    Blend: AUG-CC-PVTZ-RI
	 Reference Energy          =     -76.0601938539929279 [Eh]
	 Singles Energy            =      -0.0000000000000000 [Eh]
	 Same-Spin Energy          =      -0.0684268058605077 [Eh]
	 Opposite-Spin Energy      =      -0.2154166463113229 [Eh]
	 Correlation Energy        =      -0.2838434521718305 [Eh]
	 Total Energy              =     -76.3440373061647648 [Eh]
	 SCS Total Energy          =     -76.3415027648533453 [Eh]
    Molecular point group: c1
  Basis Set: AUG-CC-PVQZ
    Blend: AUG-CC-PVQZ
  Basis Set: (AUG-CC-PVQZ AUX)
    Blend: AUG-CC-PVQZ-JKFIT
  @DF-RHF Final Energy:   -76.06557267456853
    Total Energy =                        -76.0655726745685428
  Basis Set: (AUG-CC-PVQZ AUX)
  @DF-RHF Final Energy:   -76.06026947801192
    Total Energy =                        -76.0602694780119180
  @DF-RHF Final Energy:   -76.06560439591587
    Total Energy =                        -76.0656043959158836
  @DF-RHF Final Energy:  -230.78132579447180
    Total Energy =                       -230.7813257944717975
  @DF-RHF Final Energy:  -230.79440225380623
    Total Energy =                       -230.7944022538062541
  @DF-RHF Final Energy:  -230.78120229486851
    Total Energy =                       -230.7812022948684785
  @DF-RHF Final Energy:  -230.79437474969421
    Total Energy =                       -230.7943747496942137
  Multiplicity = 1
  @DF-RHF Final Energy:  -306.84365875669209
    Total Energy =                       -306.8436587566920934
	 Singles Energy            =      -0.0000000000000000 [Eh]
	 Same-Spin Energy          =      -0.3256843981838019 [Eh]
	 Opposite-Spin Energy      =      -1.0372012879057402 [Eh]
	 Correlation Energy        =      -1.3628856860895420 [Eh]
	 Total Energy              =    -308.2065444427816487 [Eh]
	 SCS Total Energy          =    -308.1968617682402396 [Eh]
    Molecular point group: c1

    Geometry (in Angstrom), charge = 0, multiplicity = 1:

       Center              X                  Y                   Z               Mass
    ------------   -----------------  -----------------  -----------------  -----------------
         C            0.806925253217    -0.606957556641    -1.207557000000    12.000000000000
         H            0.922970253217    -1.134682556641    -2.144145000000     1.007825032230
         C            0.504721253217     0.753951443359    -1.207895000000    12.000000000000
         H            0.383742253217     1.281125443359    -2.144054000000     1.007825032230
         C            0.354067253217     1.434825443359     0.000000000000    12.000000000000
         H            0.118243253217     2.490096443359     0.000000000000     1.007825032230
         C            0.504721253217     0.753951443359     1.207895000000    12.000000000000
         H            0.383742253217     1.281125443359     2.144054000000     1.007825032230
         C            0.806925253217    -0.606957556641     1.207557000000    12.000000000000
         H            0.922970253217    -1.134682556641     2.144145000000     1.007825032230
         C            0.958426253217    -1.287023556641     0.000000000000    12.000000000000
         H            1.195264253217    -2.342256556641     0.000000000000     1.007825032230
         O           -2.900932746783    -0.286944556641     0.000000000000    15.994914619570
         H           -2.736128746783    -1.231666556641     0.000000000000     1.007825032230
         H           -2.013631746783     0.084645443359     0.000000000000     1.007825032230

  Charge       = 0
  Multiplicity = 1
  Basis Set: AUG-CC-PVQZ
    Blend: AUG-CC-PVQZ
  Basis Set: (AUG-CC-PVQZ AUX)
    Blend: AUG-CC-PVQZ-JKFIT

    Orbital Energies [Eh]
    ---------------------

    Doubly Occupied:

       1A    -20.546244     2A    -11.246306     3A    -11.245744
       4A    -11.245634     5A    -11.244494     6A    -11.244390
       7A    -11.243816     8A     -1.333741     9A     -1.161850
      10A     -1.025924    11A     -1.025724    12A     -0.834863
      13A     -0.834741    14A     -0.720489    15A     -0.694989
      16A     -0.654396    17A     -0.630045    18A     -0.598882
      19A     -0.598798    20A     -0.571891    21A     -0.513177
      22A     -0.505551    23A     -0.505429    24A     -0.492661
      25A     -0.349737    26A     -0.348590

  @DF-RHF Final Energy:  -306.86207401106384

   => Energetics <=

    Nuclear Repulsion Energy =            271.2928845895009999
    One-Electron Energy =                -953.4737090415928833
    Two-Electron Energy =                 375.3187504410280440
    Total Energy =                       -306.8620740110638394

  Dipole Moment: [D]
     X:     2.1926      Y:    -0.8378      Z:     0.0000     Total:     2.3472

  Basis Set: (AUG-CC-PVQZ AUX)
    Blend: AUG-CC-PVQZ-RI
	 Reference Energy          =    -306.8620740110638394 [Eh]
	 Singles Energy            =      -0.0000000000000000 [Eh]
	 Same-Spin Energy          =      -0.3444658059436397 [Eh]
	 Opposite-Spin Energy      =      -1.1646078197009406 [Eh]
	 Correlation Energy        =      -1.5090736256445805 [Eh]
	 Total Energy              =    -308.3711476367084288 [Eh]

	 ================> DF-SCS-MP2 Energies <==================
	-----------------------------------------------------------
	 SCS Same-Spin Scale       =       0.3333333333333333 [-]
	 SCS Opposite-Spin Scale   =       1.2000000000000000 [-]
	 SCS Same-Spin Energy      =      -0.1148219353145466 [Eh]
	 SCS Opposite-Spin Energy  =      -1.3975293836411287 [Eh]
	 SCS Correlation Energy    =      -1.5123513189556752 [Eh]
	 SCS Total Energy          =    -308.3744253300195055 [Eh]
	-----------------------------------------------------------

*** Psi4 exiting successfully. Buy a developer a beer!
