                               Psi4 1.4a2.dev224

  ==> Input File <==

--------------------------------------------------------------------------
#Generated by lconvert.py for cbs job

memory 20 GB

molecule  {
0 1
  C       0.780150   -0.609910   -1.207560
  H       0.896190   -1.137640   -2.144140
  C       0.477940    0.750990   -1.207890
  H       0.356960    1.278170   -2.144050
  C       0.327290    1.431870   -0.000000
  H       0.091470    2.487140    0.000000
  C       0.477940    0.750990    1.207890
  H       0.356960    1.278170    2.144050
  C       0.780150   -0.609910    1.207560
  H       0.896190   -1.137640    2.144140
  C       0.931650   -1.289980    0.000000
  H       1.168490   -2.345210   -0.000000
--
0 1
  O      -3.687900   -0.375230    0.000000
  H      -3.523100   -1.319950    0.000000
  H      -2.800600   -0.003640    0.000000
units angstrom
no_reorient
symmetry c1
}

set {
scf_type DF
mp2_type DF
e_convergence 7
reference rhf
}

energy('mp2/aug-cc-pv[tq]z', bsse_type='cp')
--------------------------------------------------------------------------

    Molecular point group: c1
  Charge       = 0
  Multiplicity = 1
  Basis Set: AUG-CC-PVTZ
    Blend: AUG-CC-PVTZ
  Basis Set: (AUG-CC-PVTZ AUX)
    Blend: AUG-CC-PVTZ-JKFIT
  @DF-RHF Final Energy:   -76.06019401727747
    Total Energy =                        -76.0601940172774675
  Basis Set: (AUG-CC-PVTZ AUX)
    Blend: AUG-CC-PVTZ-RI
	 Reference Energy          =     -76.0601940172774675 [Eh]
	 Singles Energy            =      -0.0000000000000000 [Eh]
	 Same-Spin Energy          =      -0.0684267689687907 [Eh]
	 Opposite-Spin Energy      =      -0.2154165364788237 [Eh]
	 Correlation Energy        =      -0.2838433054476144 [Eh]
	 Total Energy              =     -76.3440373227250859 [Eh]
	 SCS Total Energy          =     -76.3415027840416514 [Eh]
    Molecular point group: c1
  Basis Set: AUG-CC-PVQZ
    Blend: AUG-CC-PVQZ
  Basis Set: (AUG-CC-PVQZ AUX)
    Blend: AUG-CC-PVQZ-JKFIT
  @DF-RHF Final Energy:   -76.06557284669748
    Total Energy =                        -76.0655728466974779
  Basis Set: (AUG-CC-PVQZ AUX)
  @DF-RHF Final Energy:   -76.06022488714135
    Total Energy =                        -76.0602248871413309
  @DF-RHF Final Energy:   -76.06559093999212
    Total Energy =                        -76.0655909399921200
  @DF-RHF Final Energy:  -230.78126414283648
    Total Energy =                       -230.7812641428365055
  @DF-RHF Final Energy:  -230.79438861786520
    Total Energy =                       -230.7943886178651951
  @DF-RHF Final Energy:  -230.78120260133707
    Total Energy =                       -230.7812026013370996
  @DF-RHF Final Energy:  -230.79437506554100
    Total Energy =                       -230.7943750655409758
  Multiplicity = 1
  @DF-RHF Final Energy:  -306.84351940260433
    Total Energy =                       -306.8435194026043291
	 Singles Energy            =      -0.0000000000000000 [Eh]
	 Same-Spin Energy          =      -0.3244131378425964 [Eh]
	 Opposite-Spin Energy      =      -1.0348398454805878 [Eh]
	 Correlation Energy        =      -1.3592529833231843 [Eh]
	 Total Energy              =    -308.2027723859275170 [Eh]
	 SCS Total Energy          =    -308.1934649297952546 [Eh]
    Molecular point group: c1

    Geometry (in Angstrom), charge = 0, multiplicity = 1:

       Center              X                  Y                   Z               Mass
    ------------   -----------------  -----------------  -----------------  -----------------
         C            0.949461663920    -0.590954491531    -1.207560000000    12.000000000000
         H            1.065501663920    -1.118684491531    -2.144140000000     1.007825032230
         C            0.647251663920     0.769945508469    -1.207890000000    12.000000000000
         H            0.526271663920     1.297125508469    -2.144050000000     1.007825032230
         C            0.496601663920     1.450825508469     0.000000000000    12.000000000000
         H            0.260781663920     2.506095508469     0.000000000000     1.007825032230
         C            0.647251663920     0.769945508469     1.207890000000    12.000000000000
         H            0.526271663920     1.297125508469     2.144050000000     1.007825032230
         C            0.949461663920    -0.590954491531     1.207560000000    12.000000000000
         H            1.065501663920    -1.118684491531     2.144140000000     1.007825032230
         C            1.100961663920    -1.271024491531     0.000000000000    12.000000000000
         H            1.337801663920    -2.326254491531     0.000000000000     1.007825032230
         O           -3.518588336080    -0.356274491531     0.000000000000    15.994914619570
         H           -3.353788336080    -1.300994491531     0.000000000000     1.007825032230
         H           -2.631288336080     0.015315508469     0.000000000000     1.007825032230

  Charge       = 0
  Multiplicity = 1
  Basis Set: AUG-CC-PVQZ
    Blend: AUG-CC-PVQZ
  Basis Set: (AUG-CC-PVQZ AUX)
    Blend: AUG-CC-PVQZ-JKFIT

    Orbital Energies [Eh]
    ---------------------

    Doubly Occupied:

       1A    -20.554827     2A    -11.243702     3A    -11.243164
       4A    -11.243078     5A    -11.241920     6A    -11.241834
       7A    -11.241265     8A     -1.341448     9A     -1.158606
      10A     -1.022965    11A     -1.022915    12A     -0.832300
      13A     -0.832197    14A     -0.717865    15A     -0.701896
      16A     -0.652200    17A     -0.627410    18A     -0.596327
      19A     -0.596256    20A     -0.577403    21A     -0.511554
      22A     -0.503124    23A     -0.503058    24A     -0.500065
      25A     -0.346010    26A     -0.345735

  @DF-RHF Final Energy:  -306.86200222606561

   => Energetics <=

    Nuclear Repulsion Energy =            262.0559818926723779
    One-Electron Energy =                -935.0377209025624552
    Two-Electron Energy =                 366.1197367838245214
    Total Energy =                       -306.8620022260656128

  Dipole Moment: [D]
     X:     2.0470      Y:    -0.8820      Z:     0.0000     Total:     2.2289

  Basis Set: (AUG-CC-PVQZ AUX)
    Blend: AUG-CC-PVQZ-RI
	 Reference Energy          =    -306.8620022260656128 [Eh]
	 Singles Energy            =      -0.0000000000000000 [Eh]
	 Same-Spin Energy          =      -0.3432445448555485 [Eh]
	 Opposite-Spin Energy      =      -1.1631282747984406 [Eh]
	 Correlation Energy        =      -1.5063728196539889 [Eh]
	 Total Energy              =    -308.3683750457195742 [Eh]

	 ================> DF-SCS-MP2 Energies <==================
	-----------------------------------------------------------
	 SCS Same-Spin Scale       =       0.3333333333333333 [-]
	 SCS Opposite-Spin Scale   =       1.2000000000000000 [-]
	 SCS Same-Spin Energy      =      -0.1144148482851828 [Eh]
	 SCS Opposite-Spin Energy  =      -1.3957539297581287 [Eh]
	 SCS Correlation Energy    =      -1.5101687780433115 [Eh]
	 SCS Total Energy          =    -308.3721710041089068 [Eh]
	-----------------------------------------------------------

*** Psi4 exiting successfully. Buy a developer a beer!
