                               Psi4 1.4a2.dev224

  ==> Input File <==

--------------------------------------------------------------------------
#Generated by lconvert.py for cbs job

memory 40 GB

molecule  {
0 1
  C        0.7801470    -0.6099150    -1.2075570
  H        0.8961920    -1.1376400    -2.1441450
  C        0.4779430     0.7509940    -1.2078950
  H        0.3569640     1.2781680    -2.1440540
  C        0.3272890     1.4318680    -0.0000000
  H        0.0914650     2.4871390     0.0000000
  C        0.4779430     0.7509940     1.2078950
  H        0.3569640     1.2781680     2.1440540
  C        0.7801470    -0.6099150     1.2075570
  H        0.8961920    -1.1376400     2.1441450
  C        0.9316480    -1.2899810     0.0000000
  H        1.1684860    -2.3452140    -0.0000000
--
0 1
  O       -2.4997300    -0.2418630     0.0000000
  H       -2.3349260    -1.1865850     0.0000000
  H       -1.6124290     0.1297270     0.0000000
units angstrom
no_reorient
symmetry c1
}

set {
scf_type DF
mp2_type DF
e_convergence 7
reference rhf
}

energy('mp2/aug-cc-pv[tq]z', bsse_type='cp')
--------------------------------------------------------------------------

    Molecular point group: c1
  Charge       = 0
  Multiplicity = 1
  Basis Set: AUG-CC-PVTZ
    Blend: AUG-CC-PVTZ
  Basis Set: (AUG-CC-PVTZ AUX)
    Blend: AUG-CC-PVTZ-JKFIT
  @DF-RHF Final Energy:   -76.06019385400489
    Total Energy =                        -76.0601938540048934
  Basis Set: (AUG-CC-PVTZ AUX)
    Blend: AUG-CC-PVTZ-RI
	 Reference Energy          =     -76.0601938540048934 [Eh]
	 Singles Energy            =      -0.0000000000000000 [Eh]
	 Same-Spin Energy          =      -0.0684268058604831 [Eh]
	 Opposite-Spin Energy      =      -0.2154166463112393 [Eh]
	 Correlation Energy        =      -0.2838434521717224 [Eh]
	 Total Energy              =     -76.3440373061766167 [Eh]
	 SCS Total Energy          =     -76.3415027648652114 [Eh]
    Molecular point group: c1
  Basis Set: AUG-CC-PVQZ
    Blend: AUG-CC-PVQZ
  Basis Set: (AUG-CC-PVQZ AUX)
    Blend: AUG-CC-PVQZ-JKFIT
  @DF-RHF Final Energy:   -76.06557267458470
    Total Energy =                        -76.0655726745847005
  Basis Set: (AUG-CC-PVQZ AUX)
  @DF-RHF Final Energy:   -76.06030526911175
    Total Energy =                        -76.0603052691117512
  @DF-RHF Final Energy:   -76.06561336056375
    Total Energy =                        -76.0656133605637592
  @DF-RHF Final Energy:  -230.78139507299031
    Total Energy =                       -230.7813950729903354
  @DF-RHF Final Energy:  -230.79441458531932
    Total Energy =                       -230.7944145853193163
  @DF-RHF Final Energy:  -230.78120229831421
    Total Energy =                       -230.7812022983142128
  @DF-RHF Final Energy:  -230.79437474909005
    Total Energy =                       -230.7943747490900250
  Multiplicity = 1
  @DF-RHF Final Energy:  -306.84010919869161
    Total Energy =                       -306.8401091986916072
	 Singles Energy            =      -0.0000000000000000 [Eh]
	 Same-Spin Energy          =      -0.3274208186469958 [Eh]
	 Opposite-Spin Energy      =      -1.0399624670900951 [Eh]
	 Correlation Energy        =      -1.3673832857370909 [Eh]
	 Total Energy              =    -308.2074924844287125 [Eh]
	 SCS Total Energy          =    -308.1972044320820601 [Eh]
    Molecular point group: c1

    Geometry (in Angstrom), charge = 0, multiplicity = 1:

       Center              X                  Y                   Z               Mass
    ------------   -----------------  -----------------  -----------------  -----------------
         C            0.726679793048    -0.615964759440    -1.207557000000    12.000000000000
         H            0.842724793048    -1.143689759440    -2.144145000000     1.007825032230
         C            0.424475793048     0.744944240560    -1.207895000000    12.000000000000
         H            0.303496793048     1.272118240560    -2.144054000000     1.007825032230
         C            0.273821793048     1.425818240560     0.000000000000    12.000000000000
         H            0.037997793048     2.481089240560     0.000000000000     1.007825032230
         C            0.424475793048     0.744944240560     1.207895000000    12.000000000000
         H            0.303496793048     1.272118240560     2.144054000000     1.007825032230
         C            0.726679793048    -0.615964759440     1.207557000000    12.000000000000
         H            0.842724793048    -1.143689759440     2.144145000000     1.007825032230
         C            0.878180793048    -1.296030759440     0.000000000000    12.000000000000
         H            1.115018793048    -2.351263759440     0.000000000000     1.007825032230
         O           -2.553197206952    -0.247912759440     0.000000000000    15.994914619570
         H           -2.388393206952    -1.192634759440     0.000000000000     1.007825032230
         H           -1.665896206952     0.123677240560     0.000000000000     1.007825032230

  Charge       = 0
  Multiplicity = 1
  Basis Set: AUG-CC-PVQZ
    Blend: AUG-CC-PVQZ
  Basis Set: (AUG-CC-PVQZ AUX)
    Blend: AUG-CC-PVQZ-JKFIT

    Orbital Energies [Eh]
    ---------------------

    Doubly Occupied:

       1A    -20.537052     2A    -11.247873     3A    -11.247184
       4A    -11.247092     5A    -11.245917     6A    -11.245845
       7A    -11.245196     8A     -1.326789     9A     -1.164365
      10A     -1.028170    11A     -1.027585    12A     -0.836480
      13A     -0.836343    14A     -0.722520    15A     -0.689925
      16A     -0.655673    17A     -0.631653    18A     -0.600673
      19A     -0.600424    20A     -0.569712    21A     -0.509669
      22A     -0.507032    23A     -0.506881    24A     -0.486042
      25A     -0.352500    26A     -0.350016

  @DF-RHF Final Energy:  -306.85843473262230

   => Energetics <=

    Nuclear Repulsion Energy =            278.0131650019893073
    One-Electron Energy =                -966.9059760033227349
    Two-Electron Energy =                 382.0343762687111848
    Total Energy =                       -306.8584347326222996

  Dipole Moment: [D]
     X:     2.2720      Y:    -0.7985      Z:     0.0000     Total:     2.4082

  Basis Set: (AUG-CC-PVQZ AUX)
    Blend: AUG-CC-PVQZ-RI
	 Reference Energy          =    -306.8584347326222996 [Eh]
	 Singles Energy            =      -0.0000000000000000 [Eh]
	 Same-Spin Energy          =      -0.3461805436748125 [Eh]
	 Opposite-Spin Energy      =      -1.1667288758917591 [Eh]
	 Correlation Energy        =      -1.5129094195665718 [Eh]
	 Total Energy              =    -308.3713441521888967 [Eh]

	 ================> DF-SCS-MP2 Energies <==================
	-----------------------------------------------------------
	 SCS Same-Spin Scale       =       0.3333333333333333 [-]
	 SCS Opposite-Spin Scale   =       1.2000000000000000 [-]
	 SCS Same-Spin Energy      =      -0.1153935145582708 [Eh]
	 SCS Opposite-Spin Energy  =      -1.4000746510701110 [Eh]
	 SCS Correlation Energy    =      -1.5154681656283819 [Eh]
	 SCS Total Energy          =    -308.3739028982506625 [Eh]
	-----------------------------------------------------------

*** Psi4 exiting successfully. Buy a developer a beer!
