                               Psi4 1.4a2.dev224

  ==> Input File <==

--------------------------------------------------------------------------
#Generated by lconvert.py for cbs job

memory 40 GB

molecule  {
0 1
  C        0.7597490     1.0312750     0.3737720
  H        1.4350160     1.8756640     0.3747050
  C        1.2666180    -0.2673620     0.4212730
  H        2.3349160    -0.4291800     0.4594320
  C        0.3953210    -1.3559910     0.4249050
  H        0.7886620    -2.3624930     0.4630350
  C       -0.9822060    -1.1466540     0.3812700
  H       -1.6576560    -1.9911400     0.3851210
  C       -1.4893460     0.1511500     0.3375720
  H       -2.5579470     0.3137500     0.3077190
  C       -0.6187750     1.2403310     0.3338840
  H       -1.0117620     2.2471070     0.3043690
--
0 1
  O        0.0681080     0.3179490     3.4295090
  H        0.1542080     0.3678220     2.4723150
  C       -0.8280420    -0.7396650     3.7125640
  H       -0.9237630    -0.7963990     4.7935000
  H       -1.8201920    -0.5679670     3.2887740
  H       -0.4615820    -1.7027060     3.3496520
units angstrom
no_reorient
symmetry c1
}

set {
scf_type DF
mp2_type DF
e_convergence 7
reference rhf
}

energy('mp2/aug-cc-pv[tq]z', bsse_type='cp')
--------------------------------------------------------------------------

    Molecular point group: c1
  Charge       = 0
  Multiplicity = 1
  Basis Set: AUG-CC-PVTZ
    Blend: AUG-CC-PVTZ
  Basis Set: (AUG-CC-PVTZ AUX)
    Blend: AUG-CC-PVTZ-JKFIT
  @DF-RHF Final Energy:  -115.09200069810018
    Total Energy =                       -115.0920006981001791
  Basis Set: (AUG-CC-PVTZ AUX)
    Blend: AUG-CC-PVTZ-RI
	 Reference Energy          =    -115.0920006981001791 [Eh]
	 Singles Energy            =      -0.0000000000000000 [Eh]
	 Same-Spin Energy          =      -0.1057838556335431 [Eh]
	 Opposite-Spin Energy      =      -0.3646475667177788 [Eh]
	 Correlation Energy        =      -0.4704314223513219 [Eh]
	 Total Energy              =    -115.5624321204515041 [Eh]
	 SCS Total Energy          =    -115.5648390633726876 [Eh]
    Molecular point group: c1
  Basis Set: AUG-CC-PVQZ
    Blend: AUG-CC-PVQZ
  Basis Set: (AUG-CC-PVQZ AUX)
    Blend: AUG-CC-PVQZ-JKFIT
  @DF-RHF Final Energy:  -115.09952304247908
    Total Energy =                       -115.0995230424790776
  Basis Set: (AUG-CC-PVQZ AUX)
  @DF-RHF Final Energy:  -115.09214060904367
    Total Energy =                       -115.0921406090436676
  @DF-RHF Final Energy:  -115.09956993965773
    Total Energy =                       -115.0995699396577265
  @DF-RHF Final Energy:  -230.78145777426639
    Total Energy =                       -230.7814577742663573
  @DF-RHF Final Energy:  -230.79441562931675
    Total Energy =                       -230.7944156293167453
  @DF-RHF Final Energy:  -230.78118681262370
    Total Energy =                       -230.7811868126237300
  @DF-RHF Final Energy:  -230.79435868575996
    Total Energy =                       -230.7943586857599598
  Multiplicity = 1
  @DF-RHF Final Energy:  -345.86858886526107
    Total Energy =                       -345.8685888652610743
	 Singles Energy            =      -0.0000000000000000 [Eh]
	 Same-Spin Energy          =      -0.3673354576772104 [Eh]
	 Opposite-Spin Energy      =      -1.1932016246726238 [Eh]
	 Correlation Energy        =      -1.5605370823498341 [Eh]
	 Total Energy              =    -347.4291259476108849 [Eh]
	 SCS Total Energy          =    -347.4228759674272737 [Eh]
    Molecular point group: c1

    Geometry (in Angstrom), charge = 0, multiplicity = 1:

       Center              X                  Y                   Z               Mass
    ------------   -----------------  -----------------  -----------------  -----------------
         C            0.947078947934     1.131451990112    -0.925390792828    12.000000000000
         H            1.622345947934     1.975840990112    -0.924457792828     1.007825032230
         C            1.453947947934    -0.167185009888    -0.877889792828    12.000000000000
         H            2.522245947934    -0.329003009888    -0.839730792828     1.007825032230
         C            0.582650947934    -1.255814009888    -0.874257792828    12.000000000000
         H            0.975991947934    -2.262316009888    -0.836127792828     1.007825032230
         C           -0.794876052066    -1.046477009888    -0.917892792828    12.000000000000
         H           -1.470326052066    -1.890963009888    -0.914041792828     1.007825032230
         C           -1.302016052066     0.251326990112    -0.961590792828    12.000000000000
         H           -2.370617052066     0.413926990112    -0.991443792828     1.007825032230
         C           -0.431445052066     1.340507990112    -0.965278792828    12.000000000000
         H           -0.824432052066     2.347283990112    -0.994793792828     1.007825032230
         O            0.255437947934     0.418125990112     2.130346207172    15.994914619570
         H            0.341537947934     0.467998990112     1.173152207172     1.007825032230
         C           -0.640712052066    -0.639488009888     2.413401207172    12.000000000000
         H           -0.736433052066    -0.696222009888     3.494337207172     1.007825032230
         H           -1.632862052066    -0.467790009888     1.989611207172     1.007825032230
         H           -0.274252052066    -1.602529009888     2.050489207172     1.007825032230

  Charge       = 0
  Multiplicity = 1
  Basis Set: AUG-CC-PVQZ
    Blend: AUG-CC-PVQZ
  Basis Set: (AUG-CC-PVQZ AUX)
    Blend: AUG-CC-PVQZ-JKFIT

    Orbital Energies [Eh]
    ---------------------

    Doubly Occupied:

       1A    -20.532425     2A    -11.252572     3A    -11.246571
       4A    -11.246076     5A    -11.245995     6A    -11.244686
       7A    -11.244503     8A    -11.243976     9A     -1.337679
      10A     -1.163591    11A     -1.027314    12A     -1.026700
      13A     -0.908297    14A     -0.835392    15A     -0.835389
      16A     -0.721574    17A     -0.677910    18A     -0.654692
      19A     -0.630526    20A     -0.603295    21A     -0.599628
      22A     -0.599523    23A     -0.575857    24A     -0.514356
      25A     -0.505950    26A     -0.505880    27A     -0.486092
      28A     -0.431560    29A     -0.349831    30A     -0.349602

  @DF-RHF Final Energy:  -345.88897167818357

   => Energetics <=

    Nuclear Repulsion Energy =            356.2044657592780368
    One-Electron Energy =               -1174.9919930166959148
    Two-Electron Energy =                 472.8985555792343121
    Total Energy =                       -345.8889716781835659

  Dipole Moment: [D]
     X:    -0.7395      Y:    -0.9795      Z:    -1.7392     Total:     2.1287

  Basis Set: (AUG-CC-PVQZ AUX)
    Blend: AUG-CC-PVQZ-RI
	 Reference Energy          =    -345.8889716781835659 [Eh]
	 Singles Energy            =      -0.0000000000000000 [Eh]
	 Same-Spin Energy          =      -0.3884220593267755 [Eh]
	 Opposite-Spin Energy      =      -1.3361510787989350 [Eh]
	 Correlation Energy        =      -1.7245731381257106 [Eh]
	 Total Energy              =    -347.6135448163092860 [Eh]

	 ================> DF-SCS-MP2 Energies <==================
	-----------------------------------------------------------
	 SCS Same-Spin Scale       =       0.3333333333333333 [-]
	 SCS Opposite-Spin Scale   =       1.2000000000000000 [-]
	 SCS Same-Spin Energy      =      -0.1294740197755918 [Eh]
	 SCS Opposite-Spin Energy  =      -1.6033812945587220 [Eh]
	 SCS Correlation Energy    =      -1.7328553143343139 [Eh]
	 SCS Total Energy          =    -347.6218269925178674 [Eh]
	-----------------------------------------------------------

*** Psi4 exiting successfully. Buy a developer a beer!
