                               Psi4 1.4a2.dev224

  ==> Input File <==

--------------------------------------------------------------------------
#Generated by lconvert.py for cbs job

memory 40 GB

molecule  {
0 1
  C        0.7597490     1.0312750     0.3737720
  H        1.4350160     1.8756640     0.3747050
  C        1.2666180    -0.2673620     0.4212730
  H        2.3349160    -0.4291800     0.4594320
  C        0.3953210    -1.3559910     0.4249050
  H        0.7886620    -2.3624930     0.4630350
  C       -0.9822060    -1.1466540     0.3812700
  H       -1.6576560    -1.9911400     0.3851210
  C       -1.4893460     0.1511500     0.3375720
  H       -2.5579470     0.3137500     0.3077190
  C       -0.6187750     1.2403310     0.3338840
  H       -1.0117620     2.2471070     0.3043690
--
0 1
  O        0.0354740     0.2997460     3.8250360
  H        0.1215750     0.3496190     2.8678420
  C       -0.8606760    -0.7578680     4.1080910
  H       -0.9563970    -0.8146030     5.1890270
  H       -1.8528260    -0.5861710     3.6843010
  H       -0.4942160    -1.7209100     3.7451790
units angstrom
no_reorient
symmetry c1
}

set {
scf_type DF
mp2_type DF
e_convergence 7
reference rhf
}

energy('mp2/aug-cc-pv[tq]z', bsse_type='cp')
--------------------------------------------------------------------------

    Molecular point group: c1
  Charge       = 0
  Multiplicity = 1
  Basis Set: AUG-CC-PVTZ
    Blend: AUG-CC-PVTZ
  Basis Set: (AUG-CC-PVTZ AUX)
    Blend: AUG-CC-PVTZ-JKFIT
  @DF-RHF Final Energy:  -115.09200068738191
    Total Energy =                       -115.0920006873819119
  Basis Set: (AUG-CC-PVTZ AUX)
    Blend: AUG-CC-PVTZ-RI
	 Reference Energy          =    -115.0920006873819119 [Eh]
	 Singles Energy            =      -0.0000000000000000 [Eh]
	 Same-Spin Energy          =      -0.1057838564244165 [Eh]
	 Opposite-Spin Energy      =      -0.3646475715649142 [Eh]
	 Correlation Energy        =      -0.4704314279893308 [Eh]
	 Total Energy              =    -115.5624321153712373 [Eh]
	 SCS Total Energy          =    -115.5648390587346199 [Eh]
    Molecular point group: c1
  Basis Set: AUG-CC-PVQZ
    Blend: AUG-CC-PVQZ
  Basis Set: (AUG-CC-PVQZ AUX)
    Blend: AUG-CC-PVQZ-JKFIT
  @DF-RHF Final Energy:  -115.09952303092638
    Total Energy =                       -115.0995230309263775
  Basis Set: (AUG-CC-PVQZ AUX)
  @DF-RHF Final Energy:  -115.09210753008811
    Total Energy =                       -115.0921075300881142
  @DF-RHF Final Energy:  -115.09956047061419
    Total Energy =                       -115.0995604706141933
  @DF-RHF Final Energy:  -230.78138366401234
    Total Energy =                       -230.7813836640123668
  @DF-RHF Final Energy:  -230.79440055415327
    Total Energy =                       -230.7944005541532988
  @DF-RHF Final Energy:  -230.78118681259710
    Total Energy =                       -230.7811868125970705
  @DF-RHF Final Energy:  -230.79435868247555
    Total Energy =                       -230.7943586824755471
  Multiplicity = 1
  @DF-RHF Final Energy:  -345.87448927818275
    Total Energy =                       -345.8744892781827502
	 Singles Energy            =      -0.0000000000000000 [Eh]
	 Same-Spin Energy          =      -0.3645329166687339 [Eh]
	 Opposite-Spin Energy      =      -1.1889453647428070 [Eh]
	 Correlation Energy        =      -1.5534782814115409 [Eh]
	 Total Energy              =    -347.4279675595942649 [Eh]
	 SCS Total Energy          =    -347.4227346880970231 [Eh]
    Molecular point group: c1

    Geometry (in Angstrom), charge = 0, multiplicity = 1:

       Center              X                  Y                   Z               Mass
    ------------   -----------------  -----------------  -----------------  -----------------
         C            0.956573927794     1.136748251111    -1.040470909290    12.000000000000
         H            1.631840927794     1.981137251111    -1.039537909290     1.007825032230
         C            1.463442927794    -0.161888748889    -0.992969909290    12.000000000000
         H            2.531740927794    -0.323706748889    -0.954810909290     1.007825032230
         C            0.592145927794    -1.250517748889    -0.989337909290    12.000000000000
         H            0.985486927794    -2.257019748889    -0.951207909290     1.007825032230
         C           -0.785381072206    -1.041180748889    -1.032972909290    12.000000000000
         H           -1.460831072206    -1.885666748889    -1.029121909290     1.007825032230
         C           -1.292521072206     0.256623251111    -1.076670909290    12.000000000000
         H           -2.361122072206     0.419223251111    -1.106523909290     1.007825032230
         C           -0.421950072206     1.345804251111    -1.080358909290    12.000000000000
         H           -0.814937072206     2.352580251111    -1.109873909290     1.007825032230
         O            0.232298927794     0.405219251111     2.410793090710    15.994914619570
         H            0.318399927794     0.455092251111     1.453599090710     1.007825032230
         C           -0.663851072206    -0.652394748889     2.693848090710    12.000000000000
         H           -0.759572072206    -0.709129748889     3.774784090710     1.007825032230
         H           -1.656001072206    -0.480697748889     2.270058090710     1.007825032230
         H           -0.297391072206    -1.615436748889     2.330936090710     1.007825032230

  Charge       = 0
  Multiplicity = 1
  Basis Set: AUG-CC-PVQZ
    Blend: AUG-CC-PVQZ
  Basis Set: (AUG-CC-PVQZ AUX)
    Blend: AUG-CC-PVQZ-JKFIT

    Orbital Energies [Eh]
    ---------------------

    Doubly Occupied:

       1A    -20.539398     2A    -11.256526     3A    -11.245515
       4A    -11.244952     5A    -11.244927     6A    -11.243695
       7A    -11.243643     8A    -11.243057     9A     -1.342518
      10A     -1.161268    11A     -1.025247    12A     -1.025060
      13A     -0.911797    14A     -0.834067    15A     -0.834050
      16A     -0.719814    17A     -0.678667    18A     -0.653673
      19A     -0.629246    20A     -0.606909    21A     -0.598177
      22A     -0.598115    23A     -0.580089    24A     -0.514529
      25A     -0.504791    26A     -0.504717    27A     -0.490382
      28A     -0.436143    29A     -0.348511    30A     -0.348298

  @DF-RHF Final Energy:  -345.89496330682687

   => Energetics <=

    Nuclear Repulsion Energy =            345.9019563169150615
    One-Electron Energy =               -1154.3782730780849306
    Two-Electron Energy =                 462.5813534543430023
    Total Energy =                       -345.8949633068268668

  Dipole Moment: [D]
     X:    -0.7494      Y:    -0.9882      Z:    -1.6784     Total:     2.0869

  Basis Set: (AUG-CC-PVQZ AUX)
    Blend: AUG-CC-PVQZ-RI
	 Reference Energy          =    -345.8949633068268668 [Eh]
	 Singles Energy            =      -0.0000000000000000 [Eh]
	 Same-Spin Energy          =      -0.3856608909155194 [Eh]
	 Opposite-Spin Energy      =      -1.3326753176791795 [Eh]
	 Correlation Energy        =      -1.7183362085946987 [Eh]
	 Total Energy              =    -347.6132995154215450 [Eh]

	 ================> DF-SCS-MP2 Energies <==================
	-----------------------------------------------------------
	 SCS Same-Spin Scale       =       0.3333333333333333 [-]
	 SCS Opposite-Spin Scale   =       1.2000000000000000 [-]
	 SCS Same-Spin Energy      =      -0.1285536303051731 [Eh]
	 SCS Opposite-Spin Energy  =      -1.5992103812150154 [Eh]
	 SCS Correlation Energy    =      -1.7277640115201884 [Eh]
	 SCS Total Energy          =    -347.6227273183470743 [Eh]
	-----------------------------------------------------------

*** Psi4 exiting successfully. Buy a developer a beer!
