                               Psi4 1.4a2.dev224

  ==> Input File <==

--------------------------------------------------------------------------
#Generated by lconvert.py for cbs job

memory 40 GB

molecule  {
0 1
  C        0.7597490     1.0312750     0.3737720
  H        1.4350160     1.8756640     0.3747050
  C        1.2666180    -0.2673620     0.4212730
  H        2.3349160    -0.4291800     0.4594320
  C        0.3953210    -1.3559910     0.4249050
  H        0.7886620    -2.3624930     0.4630350
  C       -0.9822060    -1.1466540     0.3812700
  H       -1.6576560    -1.9911400     0.3851210
  C       -1.4893460     0.1511500     0.3375720
  H       -2.5579470     0.3137500     0.3077190
  C       -0.6187750     1.2403310     0.3338840
  H       -1.0117620     2.2471070     0.3043690
--
0 1
  O        0.0463110     0.3057910     3.6936890
  H        0.1324120     0.3556640     2.7364960
  C       -0.8498390    -0.7518230     3.9767450
  H       -0.9455600    -0.8085580     5.0576810
  H       -1.8419890    -0.5801260     3.5529540
  H       -0.4833790    -1.7148640     3.6138330
units angstrom
no_reorient
symmetry c1
}

set {
scf_type DF
mp2_type DF
e_convergence 7
reference rhf
}

energy('mp2/aug-cc-pv[tq]z', bsse_type='cp')
--------------------------------------------------------------------------

    Molecular point group: c1
  Charge       = 0
  Multiplicity = 1
  Basis Set: AUG-CC-PVTZ
    Blend: AUG-CC-PVTZ
  Basis Set: (AUG-CC-PVTZ AUX)
    Blend: AUG-CC-PVTZ-JKFIT
  @DF-RHF Final Energy:  -115.09200074603696
    Total Energy =                       -115.0920007460369590
  Basis Set: (AUG-CC-PVTZ AUX)
    Blend: AUG-CC-PVTZ-RI
	 Reference Energy          =    -115.0920007460369590 [Eh]
	 Singles Energy            =      -0.0000000000000000 [Eh]
	 Same-Spin Energy          =      -0.1057838434642787 [Eh]
	 Opposite-Spin Energy      =      -0.3646475380834862 [Eh]
	 Correlation Energy        =      -0.4704313815477649 [Eh]
	 Total Energy              =    -115.5624321275847279 [Eh]
	 SCS Total Energy          =    -115.5648390728918997 [Eh]
    Molecular point group: c1
  Basis Set: AUG-CC-PVQZ
    Blend: AUG-CC-PVQZ
  Basis Set: (AUG-CC-PVQZ AUX)
    Blend: AUG-CC-PVQZ-JKFIT
  @DF-RHF Final Energy:  -115.09952309215120
    Total Energy =                       -115.0995230921512018
  Basis Set: (AUG-CC-PVQZ AUX)
  @DF-RHF Final Energy:  -115.09211777581777
    Total Energy =                       -115.0921177758177691
  @DF-RHF Final Energy:  -115.09956322665893
    Total Energy =                       -115.0995632266589297
  @DF-RHF Final Energy:  -230.78140962370813
    Total Energy =                       -230.7814096237081003
  @DF-RHF Final Energy:  -230.79440531645741
    Total Energy =                       -230.7944053164574143
  @DF-RHF Final Energy:  -230.78118681505080
    Total Energy =                       -230.7811868150507735
  @DF-RHF Final Energy:  -230.79435867811989
    Total Energy =                       -230.7943586781199201
  Multiplicity = 1
  @DF-RHF Final Energy:  -345.87339702810652
    Total Energy =                       -345.8733970281065240
	 Singles Energy            =      -0.0000000000000000 [Eh]
	 Same-Spin Energy          =      -0.3652737093920961 [Eh]
	 Opposite-Spin Energy      =      -1.1901084666877622 [Eh]
	 Correlation Energy        =      -1.5553821760798583 [Eh]
	 Total Energy              =    -347.4287792041863554 [Eh]
	 SCS Total Energy          =    -347.4232850912625281 [Eh]
    Molecular point group: c1

    Geometry (in Angstrom), charge = 0, multiplicity = 1:

       Center              X                  Y                   Z               Mass
    ------------   -----------------  -----------------  -----------------  -----------------
         C            0.953420860565     1.134989425732    -1.002255126112    12.000000000000
         H            1.628687860565     1.979378425732    -1.001322126112     1.007825032230
         C            1.460289860565    -0.163647574268    -0.954754126112    12.000000000000
         H            2.528587860565    -0.325465574268    -0.916595126112     1.007825032230
         C            0.588992860565    -1.252276574268    -0.951122126112    12.000000000000
         H            0.982333860565    -2.258778574268    -0.912992126112     1.007825032230
         C           -0.788534139435    -1.042939574268    -0.994757126112    12.000000000000
         H           -1.463984139435    -1.887425574268    -0.990906126112     1.007825032230
         C           -1.295674139435     0.254864425732    -1.038455126112    12.000000000000
         H           -2.364275139435     0.417464425732    -1.068308126112     1.007825032230
         C           -0.425103139435     1.344045425732    -1.042143126112    12.000000000000
         H           -0.818090139435     2.350821425732    -1.071658126112     1.007825032230
         O            0.239982860565     0.409505425732     2.317661873888    15.994914619570
         H            0.326083860565     0.459378425732     1.360468873888     1.007825032230
         C           -0.656167139435    -0.648108574268     2.600717873888    12.000000000000
         H           -0.751888139435    -0.704843574268     3.681653873888     1.007825032230
         H           -1.648317139435    -0.476411574268     2.176926873888     1.007825032230
         H           -0.289707139435    -1.611149574268     2.237805873888     1.007825032230

  Charge       = 0
  Multiplicity = 1
  Basis Set: AUG-CC-PVQZ
    Blend: AUG-CC-PVQZ
  Basis Set: (AUG-CC-PVQZ AUX)
    Blend: AUG-CC-PVQZ-JKFIT

    Orbital Energies [Eh]
    ---------------------

    Doubly Occupied:

       1A    -20.537401     2A    -11.255344     3A    -11.245901
       4A    -11.245354     5A    -11.245310     6A    -11.244076
       7A    -11.243990     8A    -11.243424     9A     -1.340989
      10A     -1.161972    11A     -1.025861    12A     -1.025589
      13A     -0.910686    14A     -0.834507    15A     -0.834494
      16A     -0.720339    17A     -0.678124    18A     -0.654027
      19A     -0.629683    20A     -0.605752    21A     -0.598645
      22A     -0.598573    23A     -0.578775    24A     -0.514809
      25A     -0.505189    26A     -0.505114    27A     -0.489036
      28A     -0.434734    29A     -0.349011    30A     -0.348852

  @DF-RHF Final Energy:  -345.89384146971872

   => Energetics <=

    Nuclear Repulsion Energy =            349.1268405775823567
    One-Electron Energy =               -1160.8302337847901526
    Two-Electron Energy =                 465.8095517374890733
    Total Energy =                       -345.8938414697187227

  Dipole Moment: [D]
     X:    -0.7460      Y:    -0.9855      Z:    -1.7027     Total:     2.1040

  Basis Set: (AUG-CC-PVQZ AUX)
    Blend: AUG-CC-PVQZ-RI
	 Reference Energy          =    -345.8938414697187227 [Eh]
	 Singles Energy            =      -0.0000000000000000 [Eh]
	 Same-Spin Energy          =      -0.3863876450096221 [Eh]
	 Opposite-Spin Energy      =      -1.3335792746215973 [Eh]
	 Correlation Energy        =      -1.7199669196312195 [Eh]
	 Total Energy              =    -347.6138083893499697 [Eh]

	 ================> DF-SCS-MP2 Energies <==================
	-----------------------------------------------------------
	 SCS Same-Spin Scale       =       0.3333333333333333 [-]
	 SCS Opposite-Spin Scale   =       1.2000000000000000 [-]
	 SCS Same-Spin Energy      =      -0.1287958816698740 [Eh]
	 SCS Opposite-Spin Energy  =      -1.6002951295459167 [Eh]
	 SCS Correlation Energy    =      -1.7290910112157907 [Eh]
	 SCS Total Energy          =    -347.6229324809345371 [Eh]
	-----------------------------------------------------------

*** Psi4 exiting successfully. Buy a developer a beer!
