                               Psi4 1.4a2.dev224

  ==> Input File <==

--------------------------------------------------------------------------
#Generated by lconvert.py for cbs job

memory 20 GB

molecule  {
0 1
  C       0.759750    1.031270    0.373770
  H       1.435020    1.875660    0.374710
  C       1.266620   -0.267360    0.421270
  H       2.334920   -0.429180    0.459430
  C       0.395320   -1.355990    0.424900
  H       0.788660   -2.362490    0.463030
  C      -0.982210   -1.146650    0.381270
  H      -1.657660   -1.991140    0.385120
  C      -1.489350    0.151150    0.337570
  H      -2.557950    0.313750    0.307720
  C      -0.618770    1.240330    0.333880
  H      -1.011760    2.247110    0.304370
--
0 1
  O      -0.020250    0.268660    4.500370
  H       0.065850    0.318540    3.543180
  C      -0.916400   -0.788950    4.783430
  H      -1.012120   -0.845680    5.864360
  H      -1.908550   -0.617250    4.359630
  H      -0.549940   -1.751990    4.420510
units angstrom
no_reorient
symmetry c1
}

set {
scf_type DF
mp2_type DF
e_convergence 7
reference rhf
}

energy('mp2/aug-cc-pv[tq]z', bsse_type='cp')
--------------------------------------------------------------------------

    Molecular point group: c1
  Charge       = 0
  Multiplicity = 1
  Basis Set: AUG-CC-PVTZ
    Blend: AUG-CC-PVTZ
  Basis Set: (AUG-CC-PVTZ AUX)
    Blend: AUG-CC-PVTZ-JKFIT
  @DF-RHF Final Energy:  -115.09200103003992
    Total Energy =                       -115.0920010300399241
  Basis Set: (AUG-CC-PVTZ AUX)
    Blend: AUG-CC-PVTZ-RI
	 Reference Energy          =    -115.0920010300399241 [Eh]
	 Singles Energy            =      -0.0000000000000000 [Eh]
	 Same-Spin Energy          =      -0.1057837834281511 [Eh]
	 Opposite-Spin Energy      =      -0.3646473608479142 [Eh]
	 Correlation Energy        =      -0.4704311442760652 [Eh]
	 Total Energy              =    -115.5624321743159868 [Eh]
	 SCS Total Energy          =    -115.5648391242001338 [Eh]
    Molecular point group: c1
  Basis Set: AUG-CC-PVQZ
    Blend: AUG-CC-PVQZ
  Basis Set: (AUG-CC-PVQZ AUX)
    Blend: AUG-CC-PVQZ-JKFIT
  @DF-RHF Final Energy:  -115.09952338744492
    Total Energy =                       -115.0995233874449184
  Basis Set: (AUG-CC-PVQZ AUX)
  @DF-RHF Final Energy:  -115.09206317743715
    Total Energy =                       -115.0920631774371543
  @DF-RHF Final Energy:  -115.09954818040868
    Total Energy =                       -115.0995481804086751
  @DF-RHF Final Energy:  -230.78128313491339
    Total Energy =                       -230.7812831349133944
  @DF-RHF Final Energy:  -230.79438241581539
    Total Energy =                       -230.7943824158153916
  @DF-RHF Final Energy:  -230.78118677353424
    Total Energy =                       -230.7811867735342730
  @DF-RHF Final Energy:  -230.79435863430402
    Total Energy =                       -230.7943586343039897
  Multiplicity = 1
  @DF-RHF Final Energy:  -345.87538943368685
    Total Energy =                       -345.8753894336868484
	 Singles Energy            =      -0.0000000000000000 [Eh]
	 Same-Spin Energy          =      -0.3624281275380223 [Eh]
	 Opposite-Spin Energy      =      -1.1853060641511610 [Eh]
	 Correlation Energy        =      -1.5477341916891834 [Eh]
	 Total Energy              =    -347.4231236253760358 [Eh]
	 SCS Total Energy          =    -347.4185660865142609 [Eh]
    Molecular point group: c1

    Geometry (in Angstrom), charge = 0, multiplicity = 1:

       Center              X                  Y                   Z               Mass
    ------------   -----------------  -----------------  -----------------  -----------------
         C            0.972788141830     1.145787014590    -1.236962704740    12.000000000000
         H            1.648058141830     1.990177014590    -1.236022704740     1.007825032230
         C            1.479658141830    -0.152842985410    -1.189462704740    12.000000000000
         H            2.547958141830    -0.314662985410    -1.151302704740     1.007825032230
         C            0.608358141830    -1.241472985410    -1.185832704740    12.000000000000
         H            1.001698141830    -2.247972985410    -1.147702704740     1.007825032230
         C           -0.769171858170    -1.032132985410    -1.229462704740    12.000000000000
         H           -1.444621858170    -1.876622985410    -1.225612704740     1.007825032230
         C           -1.276311858170     0.265667014590    -1.273162704740    12.000000000000
         H           -2.344911858170     0.428267014590    -1.303012704740     1.007825032230
         C           -0.405731858170     1.354847014590    -1.276852704740    12.000000000000
         H           -0.798721858170     2.361627014590    -1.306362704740     1.007825032230
         O            0.192788141830     0.383177014590     2.889637295260    15.994914619570
         H            0.278888141830     0.433057014590     1.932447295260     1.007825032230
         C           -0.703361858170    -0.674432985410     3.172697295260    12.000000000000
         H           -0.799081858170    -0.731162985410     4.253627295260     1.007825032230
         H           -1.695511858170    -0.502732985410     2.748897295260     1.007825032230
         H           -0.336901858170    -1.637472985410     2.809777295260     1.007825032230

  Charge       = 0
  Multiplicity = 1
  Basis Set: AUG-CC-PVQZ
    Blend: AUG-CC-PVQZ
  Basis Set: (AUG-CC-PVQZ AUX)
    Blend: AUG-CC-PVQZ-JKFIT

    Orbital Energies [Eh]
    ---------------------

    Doubly Occupied:

       1A    -20.546387     2A    -11.261017     3A    -11.243394
       4A    -11.242812     5A    -11.242800     6A    -11.241578
       7A    -11.241557     8A    -11.240949     9A     -1.348600
      10A     -1.158319    11A     -1.022631    12A     -1.022595
      13A     -0.916369    14A     -0.831893    15A     -0.831873
      16A     -0.717511    17A     -0.682641    18A     -0.651833
      19A     -0.627024    20A     -0.611682    21A     -0.595961
      22A     -0.595933    23A     -0.585272    24A     -0.511672
      25A     -0.502757    26A     -0.502701    27A     -0.495729
      28A     -0.441618    29A     -0.345685    30A     -0.345549

  @DF-RHF Final Energy:  -345.89597219658225

   => Energetics <=

    Nuclear Repulsion Energy =            331.8423470731510179
    One-Electron Energy =               -1126.2639613106796332
    Two-Electron Energy =                 448.5256420409463658
    Total Energy =                       -345.8959721965822496

  Dipole Moment: [D]
     X:    -0.7652      Y:    -1.0002      Z:    -1.5403     Total:     1.9896

  Basis Set: (AUG-CC-PVQZ AUX)
    Blend: AUG-CC-PVQZ-RI
	 Reference Energy          =    -345.8959721965822496 [Eh]
	 Singles Energy            =      -0.0000000000000000 [Eh]
	 Same-Spin Energy          =      -0.3836238091391871 [Eh]
	 Opposite-Spin Energy      =      -1.3301508953009504 [Eh]
	 Correlation Energy        =      -1.7137747044401377 [Eh]
	 Total Energy              =    -347.6097469010223904 [Eh]

	 ================> DF-SCS-MP2 Energies <==================
	-----------------------------------------------------------
	 SCS Same-Spin Scale       =       0.3333333333333333 [-]
	 SCS Opposite-Spin Scale   =       1.2000000000000000 [-]
	 SCS Same-Spin Energy      =      -0.1278746030463957 [Eh]
	 SCS Opposite-Spin Energy  =      -1.5961810743611404 [Eh]
	 SCS Correlation Energy    =      -1.7240556774075362 [Eh]
	 SCS Total Energy          =    -347.6200278739897840 [Eh]
	-----------------------------------------------------------

*** Psi4 exiting successfully. Buy a developer a beer!
