                               Psi4 1.4a2.dev224

  ==> Input File <==

--------------------------------------------------------------------------
#Generated by lconvert.py for cbs job

memory 40 GB

molecule  {
0 1
  C        0.7597490     1.0312750     0.3737720
  H        1.4350160     1.8756640     0.3747050
  C        1.2666180    -0.2673620     0.4212730
  H        2.3349160    -0.4291800     0.4594320
  C        0.3953210    -1.3559910     0.4249050
  H        0.7886620    -2.3624930     0.4630350
  C       -0.9822060    -1.1466540     0.3812700
  H       -1.6576560    -1.9911400     0.3851210
  C       -1.4893460     0.1511500     0.3375720
  H       -2.5579470     0.3137500     0.3077190
  C       -0.6187750     1.2403310     0.3338840
  H       -1.0117620     2.2471070     0.3043690
--
0 1
  O        0.0246850     0.2937270     3.9558040
  H        0.1107850     0.3436000     2.9986100
  C       -0.8714660    -0.7638870     4.2388590
  H       -0.9671860    -0.8206210     5.3197950
  H       -1.8636150    -0.5921890     3.8150680
  H       -0.5050050    -1.7269280     3.8759470
units angstrom
no_reorient
symmetry c1
}

set {
scf_type DF
mp2_type DF
e_convergence 7
reference rhf
}

energy('mp2/aug-cc-pv[tq]z', bsse_type='cp')
--------------------------------------------------------------------------

    Molecular point group: c1
  Charge       = 0
  Multiplicity = 1
  Basis Set: AUG-CC-PVTZ
    Blend: AUG-CC-PVTZ
  Basis Set: (AUG-CC-PVTZ AUX)
    Blend: AUG-CC-PVTZ-JKFIT
  @DF-RHF Final Energy:  -115.09200069262222
    Total Energy =                       -115.0920006926222214
  Basis Set: (AUG-CC-PVTZ AUX)
    Blend: AUG-CC-PVTZ-RI
	 Reference Energy          =    -115.0920006926222214 [Eh]
	 Singles Energy            =      -0.0000000000000000 [Eh]
	 Same-Spin Energy          =      -0.1057838556346017 [Eh]
	 Opposite-Spin Energy      =      -0.3646475782554396 [Eh]
	 Correlation Energy        =      -0.4704314338900413 [Eh]
	 Total Energy              =    -115.5624321265122632 [Eh]
	 SCS Total Energy          =    -115.5648390717402805 [Eh]
    Molecular point group: c1
  Basis Set: AUG-CC-PVQZ
    Blend: AUG-CC-PVQZ
  Basis Set: (AUG-CC-PVQZ AUX)
    Blend: AUG-CC-PVQZ-JKFIT
  @DF-RHF Final Energy:  -115.09952303577741
    Total Energy =                       -115.0995230357774091
  Basis Set: (AUG-CC-PVQZ AUX)
  @DF-RHF Final Energy:  -115.09209780792246
    Total Energy =                       -115.0920978079224568
  @DF-RHF Final Energy:  -115.09955791409254
    Total Energy =                       -115.0995579140925429
  @DF-RHF Final Energy:  -230.78135783298433
    Total Energy =                       -230.7813578329843267
  @DF-RHF Final Energy:  -230.79439650478139
    Total Energy =                       -230.7943965047813890
  @DF-RHF Final Energy:  -230.78118681849020
    Total Energy =                       -230.7811868184901982
  @DF-RHF Final Energy:  -230.79435868377553
    Total Energy =                       -230.7943586837754992
  Multiplicity = 1
  @DF-RHF Final Energy:  -345.87509594661191
    Total Energy =                       -345.8750959466119070
	 Singles Energy            =      -0.0000000000000000 [Eh]
	 Same-Spin Energy          =      -0.3639347327830151 [Eh]
	 Opposite-Spin Energy      =      -1.1879718334483089 [Eh]
	 Correlation Energy        =      -1.5519065662313241 [Eh]
	 Total Energy              =    -347.4270025128432167 [Eh]
	 SCS Total Energy          =    -347.4219737243442410 [Eh]
    Molecular point group: c1

    Geometry (in Angstrom), charge = 0, multiplicity = 1:

       Center              X                  Y                   Z               Mass
    ------------   -----------------  -----------------  -----------------  -----------------
         C            0.959713147412     1.138499475064    -1.078518357499    12.000000000000
         H            1.634980147412     1.982888475064    -1.077585357499     1.007825032230
         C            1.466582147412    -0.160137524936    -1.031017357499    12.000000000000
         H            2.534880147412    -0.321955524936    -0.992858357499     1.007825032230
         C            0.595285147412    -1.248766524936    -1.027385357499    12.000000000000
         H            0.988626147412    -2.255268524936    -0.989255357499     1.007825032230
         C           -0.782241852588    -1.039429524936    -1.071020357499    12.000000000000
         H           -1.457691852588    -1.883915524936    -1.067169357499     1.007825032230
         C           -1.289381852588     0.258374475064    -1.114718357499    12.000000000000
         H           -2.357982852588     0.420974475064    -1.144571357499     1.007825032230
         C           -0.418810852588     1.347555475064    -1.118406357499    12.000000000000
         H           -0.811797852588     2.354331475064    -1.147921357499     1.007825032230
         O            0.224649147412     0.400951475064     2.503513642501    15.994914619570
         H            0.310749147412     0.450824475064     1.546319642501     1.007825032230
         C           -0.671501852588    -0.656662524936     2.786568642501    12.000000000000
         H           -0.767221852588    -0.713396524936     3.867504642501     1.007825032230
         H           -1.663650852588    -0.484964524936     2.362777642501     1.007825032230
         H           -0.305040852588    -1.619703524936     2.423656642501     1.007825032230

  Charge       = 0
  Multiplicity = 1
  Basis Set: AUG-CC-PVQZ
    Blend: AUG-CC-PVQZ
  Basis Set: (AUG-CC-PVQZ AUX)
    Blend: AUG-CC-PVQZ-JKFIT

    Orbital Energies [Eh]
    ---------------------

    Doubly Occupied:

       1A    -20.541133     2A    -11.257589     3A    -11.245110
       4A    -11.244536     5A    -11.244524     6A    -11.243288
       7A    -11.243261     8A    -11.242661     9A     -1.343931
      10A     -1.160616    11A     -1.024679    12A     -1.024547
      13A     -0.912834    14A     -0.833629    15A     -0.833610
      16A     -0.719324    17A     -0.679362    18A     -0.653313
      19A     -0.628805    20A     -0.607992    21A     -0.597721
      22A     -0.597667    23A     -0.581295    24A     -0.514076
      25A     -0.504389    26A     -0.504317    27A     -0.491626
      28A     -0.437427    29A     -0.347962    30A     -0.347737

  @DF-RHF Final Energy:  -345.89559897207641

   => Energetics <=

    Nuclear Repulsion Energy =            342.8663579902492984
    One-Electron Energy =               -1148.3059862354152756
    Two-Electron Energy =                 459.5440292730895635
    Total Energy =                       -345.8955989720764137

  Dipole Moment: [D]
     X:    -0.7527      Y:    -0.9908      Z:    -1.6521     Total:     2.0682

  Basis Set: (AUG-CC-PVQZ AUX)
    Blend: AUG-CC-PVQZ-RI
	 Reference Energy          =    -345.8955989720764137 [Eh]
	 Singles Energy            =      -0.0000000000000000 [Eh]
	 Same-Spin Energy          =      -0.3850768285773708 [Eh]
	 Opposite-Spin Energy      =      -1.3319526988046906 [Eh]
	 Correlation Energy        =      -1.7170295273820613 [Eh]
	 Total Energy              =    -347.6126284994584807 [Eh]

	 ================> DF-SCS-MP2 Energies <==================
	-----------------------------------------------------------
	 SCS Same-Spin Scale       =       0.3333333333333333 [-]
	 SCS Opposite-Spin Scale   =       1.2000000000000000 [-]
	 SCS Same-Spin Energy      =      -0.1283589428591236 [Eh]
	 SCS Opposite-Spin Energy  =      -1.5983432385656287 [Eh]
	 SCS Correlation Energy    =      -1.7267021814247523 [Eh]
	 SCS Total Energy          =    -347.6223011535011551 [Eh]
	-----------------------------------------------------------

*** Psi4 exiting successfully. Buy a developer a beer!
