                               Psi4 1.4a2.dev224

  ==> Input File <==

--------------------------------------------------------------------------
#Generated by lconvert.py for cbs job

memory 20 GB

molecule  {
0 1
  C       0.759750    1.031270    0.373770
  H       1.435020    1.875660    0.374710
  C       1.266620   -0.267360    0.421270
  H       2.334920   -0.429180    0.459430
  C       0.395320   -1.355990    0.424900
  H       0.788660   -2.362490    0.463030
  C      -0.982210   -1.146650    0.381270
  H      -1.657660   -1.991140    0.385120
  C      -1.489350    0.151150    0.337570
  H      -2.557950    0.313750    0.307720
  C      -0.618770    1.240330    0.333880
  H      -1.011760    2.247110    0.304370
--
0 1
  O      -0.087650    0.231070    5.317220
  H      -0.001540    0.280950    4.360030
  C      -0.983800   -0.826540    5.600270
  H      -1.079520   -0.883280    6.681210
  H      -1.975950   -0.654840    5.176480
  H      -0.617330   -1.789580    5.237360
units angstrom
no_reorient
symmetry c1
}

set {
scf_type DF
mp2_type DF
e_convergence 7
reference rhf
}

energy('mp2/aug-cc-pv[tq]z', bsse_type='cp')
--------------------------------------------------------------------------

    Molecular point group: c1
  Charge       = 0
  Multiplicity = 1
  Basis Set: AUG-CC-PVTZ
    Blend: AUG-CC-PVTZ
  Basis Set: (AUG-CC-PVTZ AUX)
    Blend: AUG-CC-PVTZ-JKFIT
  @DF-RHF Final Energy:  -115.09200096234960
    Total Energy =                       -115.0920009623496014
  Basis Set: (AUG-CC-PVTZ AUX)
    Blend: AUG-CC-PVTZ-RI
	 Reference Energy          =    -115.0920009623496014 [Eh]
	 Singles Energy            =      -0.0000000000000000 [Eh]
	 Same-Spin Energy          =      -0.1057837978451152 [Eh]
	 Opposite-Spin Energy      =      -0.3646473936342635 [Eh]
	 Correlation Energy        =      -0.4704311914793786 [Eh]
	 Total Energy              =    -115.5624321538289792 [Eh]
	 SCS Total Energy          =    -115.5648391006590856 [Eh]
    Molecular point group: c1
  Basis Set: AUG-CC-PVQZ
    Blend: AUG-CC-PVQZ
  Basis Set: (AUG-CC-PVQZ AUX)
    Blend: AUG-CC-PVQZ-JKFIT
  @DF-RHF Final Energy:  -115.09952331572401
    Total Energy =                       -115.0995233157240136
  Basis Set: (AUG-CC-PVQZ AUX)
  @DF-RHF Final Energy:  -115.09203121153381
    Total Energy =                       -115.0920312115338078
  @DF-RHF Final Energy:  -115.09953714682020
    Total Energy =                       -115.0995371468201967
  @DF-RHF Final Energy:  -230.78122818428858
    Total Energy =                       -230.7812281842885795
  @DF-RHF Final Energy:  -230.79437159935642
    Total Energy =                       -230.7943715993563956
  @DF-RHF Final Energy:  -230.78118676888232
    Total Energy =                       -230.7811867688823213
  @DF-RHF Final Energy:  -230.79435863143223
    Total Energy =                       -230.7943586314322602
  Multiplicity = 1
  @DF-RHF Final Energy:  -345.87455012960908
    Total Energy =                       -345.8745501296090765
	 Singles Energy            =      -0.0000000000000000 [Eh]
	 Same-Spin Energy          =      -0.3615968349526636 [Eh]
	 Opposite-Spin Energy      =      -1.1838060389058600 [Eh]
	 Correlation Energy        =      -1.5454028738585235 [Eh]
	 Total Energy              =    -347.4199530034675831 [Eh]
	 SCS Total Energy          =    -347.4156496546136736 [Eh]
    Molecular point group: c1

    Geometry (in Angstrom), charge = 0, multiplicity = 1:

       Center              X                  Y                   Z               Mass
    ------------   -----------------  -----------------  -----------------  -----------------
         C            0.992398250422     1.156724062609    -1.474627293844    12.000000000000
         H            1.667668250422     2.001114062609    -1.473687293844     1.007825032230
         C            1.499268250422    -0.141905937391    -1.427127293844    12.000000000000
         H            2.567568250422    -0.303725937391    -1.388967293844     1.007825032230
         C            0.627968250422    -1.230535937391    -1.423497293844    12.000000000000
         H            1.021308250422    -2.237035937391    -1.385367293844     1.007825032230
         C           -0.749561749578    -1.021195937391    -1.467127293844    12.000000000000
         H           -1.425011749578    -1.865685937391    -1.463277293844     1.007825032230
         C           -1.256701749578     0.276604062609    -1.510827293844    12.000000000000
         H           -2.325301749578     0.439204062609    -1.540677293844     1.007825032230
         C           -0.386121749578     1.365784062609    -1.514517293844    12.000000000000
         H           -0.779111749578     2.372564062609    -1.544027293844     1.007825032230
         O            0.144998250422     0.356524062609     3.468822706156    15.994914619570
         H            0.231108250422     0.406404062609     2.511632706156     1.007825032230
         C           -0.751151749578    -0.701085937391     3.751872706156    12.000000000000
         H           -0.846871749578    -0.757825937391     4.832812706156     1.007825032230
         H           -1.743301749578    -0.529385937391     3.328082706156     1.007825032230
         H           -0.384681749578    -1.664125937391     3.388962706156     1.007825032230

  Charge       = 0
  Multiplicity = 1
  Basis Set: AUG-CC-PVQZ
    Blend: AUG-CC-PVQZ
  Basis Set: (AUG-CC-PVQZ AUX)
    Blend: AUG-CC-PVQZ-JKFIT

    Orbital Energies [Eh]
    ---------------------

    Doubly Occupied:

       1A    -20.550791     2A    -11.264123     3A    -11.241259
       4A    -11.240677     5A    -11.240665     6A    -11.239448
       7A    -11.239419     8A    -11.238815     9A     -1.352806
      10A     -1.155859    11A     -1.020348    12A     -1.020343
      13A     -0.919694    14A     -0.829809    15A     -0.829790
      16A     -0.715425    17A     -0.686378    18A     -0.649981
      19A     -0.624866    20A     -0.615145    21A     -0.593891
      22A     -0.593885    23A     -0.588879    24A     -0.508785
      25A     -0.500766    26A     -0.500724    27A     -0.499375
      28A     -0.445393    29A     -0.343102    30A     -0.343068

  @DF-RHF Final Energy:  -345.89518994290461

   => Energetics <=

    Nuclear Repulsion Energy =            319.0667756380908031
    One-Electron Energy =               -1100.7369146008866210
    Two-Electron Energy =                 435.7749490198912099
    Total Energy =                       -345.8951899429046080

  Dipole Moment: [D]
     X:    -0.7807      Y:    -1.0122      Z:    -1.4102     Total:     1.9034

  Basis Set: (AUG-CC-PVQZ AUX)
    Blend: AUG-CC-PVQZ-RI
	 Reference Energy          =    -345.8951899429046080 [Eh]
	 Singles Energy            =      -0.0000000000000000 [Eh]
	 Same-Spin Energy          =      -0.3828466403500381 [Eh]
	 Opposite-Spin Energy      =      -1.3292135383957713 [Eh]
	 Correlation Energy        =      -1.7120601787458094 [Eh]
	 Total Energy              =    -347.6072501216503952 [Eh]

	 ================> DF-SCS-MP2 Energies <==================
	-----------------------------------------------------------
	 SCS Same-Spin Scale       =       0.3333333333333333 [-]
	 SCS Opposite-Spin Scale   =       1.2000000000000000 [-]
	 SCS Same-Spin Energy      =      -0.1276155467833460 [Eh]
	 SCS Opposite-Spin Energy  =      -1.5950562460749256 [Eh]
	 SCS Correlation Energy    =      -1.7226717928582715 [Eh]
	 SCS Total Energy          =    -347.6178617357628582 [Eh]
	-----------------------------------------------------------

*** Psi4 exiting successfully. Buy a developer a beer!
