                               Psi4 1.4a2.dev224

  ==> Input File <==

--------------------------------------------------------------------------
#Generated by lconvert.py for cbs job

memory 40 GB

molecule  {
0 1
  C        0.7597490     1.0312750     0.3737720
  H        1.4350160     1.8756640     0.3747050
  C        1.2666180    -0.2673620     0.4212730
  H        2.3349160    -0.4291800     0.4594320
  C        0.3953210    -1.3559910     0.4249050
  H        0.7886620    -2.3624930     0.4630350
  C       -0.9822060    -1.1466540     0.3812700
  H       -1.6576560    -1.9911400     0.3851210
  C       -1.4893460     0.1511500     0.3375720
  H       -2.5579470     0.3137500     0.3077190
  C       -0.6187750     1.2403310     0.3338840
  H       -1.0117620     2.2471070     0.3043690
--
0 1
  O        0.0571780     0.3118520     3.5619810
  H        0.1432790     0.3617250     2.6047870
  C       -0.8389720    -0.7457620     3.8450360
  H       -0.9346930    -0.8024960     4.9259720
  H       -1.8311220    -0.5740640     3.4212460
  H       -0.4725120    -1.7088030     3.4821240
units angstrom
no_reorient
symmetry c1
}

set {
scf_type DF
mp2_type DF
e_convergence 7
reference rhf
}

energy('mp2/aug-cc-pv[tq]z', bsse_type='cp')
--------------------------------------------------------------------------

    Molecular point group: c1
  Charge       = 0
  Multiplicity = 1
  Basis Set: AUG-CC-PVTZ
    Blend: AUG-CC-PVTZ
  Basis Set: (AUG-CC-PVTZ AUX)
    Blend: AUG-CC-PVTZ-JKFIT
  @DF-RHF Final Energy:  -115.09200069989761
    Total Energy =                       -115.0920006998976106
  Basis Set: (AUG-CC-PVTZ AUX)
    Blend: AUG-CC-PVTZ-RI
	 Reference Energy          =    -115.0920006998976106 [Eh]
	 Singles Energy            =      -0.0000000000000000 [Eh]
	 Same-Spin Energy          =      -0.1057838554948803 [Eh]
	 Opposite-Spin Energy      =      -0.3646475666942071 [Eh]
	 Correlation Energy        =      -0.4704314221890873 [Eh]
	 Total Energy              =    -115.5624321220867046 [Eh]
	 SCS Total Energy          =    -115.5648390650956259 [Eh]
    Molecular point group: c1
  Basis Set: AUG-CC-PVQZ
    Blend: AUG-CC-PVQZ
  Basis Set: (AUG-CC-PVQZ AUX)
    Blend: AUG-CC-PVQZ-JKFIT
  @DF-RHF Final Energy:  -115.09952304408559
    Total Energy =                       -115.0995230440855863
  Basis Set: (AUG-CC-PVQZ AUX)
  @DF-RHF Final Energy:  -115.09212860926797
    Total Energy =                       -115.0921286092679736
  @DF-RHF Final Energy:  -115.09956622891906
    Total Energy =                       -115.0995662289190591
  @DF-RHF Final Energy:  -230.78143465983482
    Total Energy =                       -230.7814346598348152
  @DF-RHF Final Energy:  -230.79441050644172
    Total Energy =                       -230.7944105064416931
  @DF-RHF Final Energy:  -230.78118681458406
    Total Energy =                       -230.7811868145840890
  @DF-RHF Final Energy:  -230.79435868201162
    Total Energy =                       -230.7943586820115911
  Multiplicity = 1
  @DF-RHF Final Energy:  -345.87156119318411
    Total Energy =                       -345.8715611931841067
	 Singles Energy            =      -0.0000000000000000 [Eh]
	 Same-Spin Energy          =      -0.3661918931685089 [Eh]
	 Opposite-Spin Energy      =      -1.1915061170126406 [Eh]
	 Correlation Energy        =      -1.5576980101811495 [Eh]
	 Total Energy              =    -347.4292592033652340 [Eh]
	 SCS Total Energy          =    -347.4234324979887560 [Eh]
    Molecular point group: c1

    Geometry (in Angstrom), charge = 0, multiplicity = 1:

       Center              X                  Y                   Z               Mass
    ------------   -----------------  -----------------  -----------------  -----------------
         C            0.950259064719     1.133225935936    -0.963934035610    12.000000000000
         H            1.625526064719     1.977614935936    -0.963001035610     1.007825032230
         C            1.457128064719    -0.165411064064    -0.916433035610    12.000000000000
         H            2.525426064719    -0.327229064064    -0.878274035610     1.007825032230
         C            0.585831064719    -1.254040064064    -0.912801035610    12.000000000000
         H            0.979172064719    -2.260542064064    -0.874671035610     1.007825032230
         C           -0.791695935281    -1.044703064064    -0.956436035610    12.000000000000
         H           -1.467145935281    -1.889189064064    -0.952585035610     1.007825032230
         C           -1.298835935281     0.253100935936    -1.000134035610    12.000000000000
         H           -2.367436935281     0.415700935936    -1.029987035610     1.007825032230
         C           -0.428264935281     1.342281935936    -1.003822035610    12.000000000000
         H           -0.821251935281     2.349057935936    -1.033337035610     1.007825032230
         O            0.247688064719     0.413802935936     2.224274964390    15.994914619570
         H            0.333789064719     0.463675935936     1.267080964390     1.007825032230
         C           -0.648461935281    -0.643811064064     2.507329964390    12.000000000000
         H           -0.744182935281    -0.700545064064     3.588265964390     1.007825032230
         H           -1.640611935281    -0.472113064064     2.083539964390     1.007825032230
         H           -0.282001935281    -1.606852064064     2.144417964390     1.007825032230

  Charge       = 0
  Multiplicity = 1
  Basis Set: AUG-CC-PVQZ
    Blend: AUG-CC-PVQZ
  Basis Set: (AUG-CC-PVQZ AUX)
    Blend: AUG-CC-PVQZ-JKFIT

    Orbital Energies [Eh]
    ---------------------

    Doubly Occupied:

       1A    -20.535098     2A    -11.254032     3A    -11.246256
       4A    -11.245731     5A    -11.245668     6A    -11.244415
       7A    -11.244284     8A    -11.243740     9A     -1.339363
      10A     -1.162740    11A     -1.026537    12A     -1.026134
      13A     -0.909515    14A     -0.834948    15A     -0.834940
      16A     -0.720914    17A     -0.677830    18A     -0.654368
      19A     -0.630110    20A     -0.604539    21A     -0.599127
      22A     -0.599041    23A     -0.577361    24A     -0.514804
      25A     -0.505577    26A     -0.505502    27A     -0.487600
      28A     -0.433204    29A     -0.349404    30A     -0.349375

  @DF-RHF Final Energy:  -345.89197544657543

   => Energetics <=

    Nuclear Repulsion Energy =            352.5515589409574204
    One-Electron Energy =               -1167.6827518476309251
    Two-Electron Energy =                 469.2392174600980752
    Total Energy =                       -345.8919754465754295

  Dipole Moment: [D]
     X:    -0.7427      Y:    -0.9826      Z:    -1.7236     Total:     2.1184

  Basis Set: (AUG-CC-PVQZ AUX)
    Blend: AUG-CC-PVQZ-RI
	 Reference Energy          =    -345.8919754465754295 [Eh]
	 Singles Energy            =      -0.0000000000000000 [Eh]
	 Same-Spin Energy          =      -0.3872920995054133 [Eh]
	 Opposite-Spin Energy      =      -1.3347158797222405 [Eh]
	 Correlation Energy        =      -1.7220079792276537 [Eh]
	 Total Energy              =    -347.6139834258030987 [Eh]

	 ================> DF-SCS-MP2 Energies <==================
	-----------------------------------------------------------
	 SCS Same-Spin Scale       =       0.3333333333333333 [-]
	 SCS Opposite-Spin Scale   =       1.2000000000000000 [-]
	 SCS Same-Spin Energy      =      -0.1290973665018044 [Eh]
	 SCS Opposite-Spin Energy  =      -1.6016590556666885 [Eh]
	 SCS Correlation Energy    =      -1.7307564221684930 [Eh]
	 SCS Total Energy          =    -347.6227318687439265 [Eh]
	-----------------------------------------------------------

*** Psi4 exiting successfully. Buy a developer a beer!
