                               Psi4 1.4a2.dev224

  ==> Input File <==

--------------------------------------------------------------------------
#Generated by lconvert.py for cbs job

memory 40 GB

molecule  {
0 1
  C        0.7597490     1.0312750     0.3737720
  H        1.4350160     1.8756640     0.3747050
  C        1.2666180    -0.2673620     0.4212730
  H        2.3349160    -0.4291800     0.4594320
  C        0.3953210    -1.3559910     0.4249050
  H        0.7886620    -2.3624930     0.4630350
  C       -0.9822060    -1.1466540     0.3812700
  H       -1.6576560    -1.9911400     0.3851210
  C       -1.4893460     0.1511500     0.3375720
  H       -2.5579470     0.3137500     0.3077190
  C       -0.6187750     1.2403310     0.3338840
  H       -1.0117620     2.2471070     0.3043690
--
0 1
  O        0.0901860     0.3302650     3.1619210
  H        0.1762860     0.3801380     2.2047270
  C       -0.8059640    -0.7273500     3.4449760
  H       -0.9016850    -0.7840840     4.5259120
  H       -1.7981140    -0.5556520     3.0211850
  H       -0.4395040    -1.6903910     3.0820640
units angstrom
no_reorient
symmetry c1
}

set {
scf_type DF
mp2_type DF
e_convergence 7
reference rhf
}

energy('mp2/aug-cc-pv[tq]z', bsse_type='cp')
--------------------------------------------------------------------------

    Molecular point group: c1
  Charge       = 0
  Multiplicity = 1
  Basis Set: AUG-CC-PVTZ
    Blend: AUG-CC-PVTZ
  Basis Set: (AUG-CC-PVTZ AUX)
    Blend: AUG-CC-PVTZ-JKFIT
  @DF-RHF Final Energy:  -115.09200067917287
    Total Energy =                       -115.0920006791728696
  Basis Set: (AUG-CC-PVTZ AUX)
    Blend: AUG-CC-PVTZ-RI
	 Reference Energy          =    -115.0920006791728696 [Eh]
	 Singles Energy            =      -0.0000000000000000 [Eh]
	 Same-Spin Energy          =      -0.1057838568280044 [Eh]
	 Opposite-Spin Energy      =      -0.3646475852184809 [Eh]
	 Correlation Energy        =      -0.4704314420464853 [Eh]
	 Total Energy              =    -115.5624321212193593 [Eh]
	 SCS Total Energy          =    -115.5648390670443746 [Eh]
    Molecular point group: c1
  Basis Set: AUG-CC-PVQZ
    Blend: AUG-CC-PVQZ
  Basis Set: (AUG-CC-PVQZ AUX)
    Blend: AUG-CC-PVQZ-JKFIT
  @DF-RHF Final Energy:  -115.09952302175878
    Total Energy =                       -115.0995230217587846
  Basis Set: (AUG-CC-PVQZ AUX)
  @DF-RHF Final Energy:  -115.09216935739765
    Total Energy =                       -115.0921693573976512
  @DF-RHF Final Energy:  -115.09958001433810
    Total Energy =                       -115.0995800143381018
  @DF-RHF Final Energy:  -230.78150147573419
    Total Energy =                       -230.7815014757342169
  @DF-RHF Final Energy:  -230.79442442531172
    Total Energy =                       -230.7944244253117176
  @DF-RHF Final Energy:  -230.78118681365322
    Total Energy =                       -230.7811868136532212
  @DF-RHF Final Energy:  -230.79435868071886
    Total Energy =                       -230.7943586807188581
  Multiplicity = 1
  @DF-RHF Final Energy:  -345.85662890991773
    Total Energy =                       -345.8566289099177311
	 Singles Energy            =      -0.0000000000000000 [Eh]
	 Same-Spin Energy          =      -0.3705410717017641 [Eh]
	 Opposite-Spin Energy      =      -1.1977994867443194 [Eh]
	 Correlation Energy        =      -1.5683405584460834 [Eh]
	 Total Energy              =    -347.4249694683638268 [Eh]
	 SCS Total Energy          =    -347.4175019845781662 [Eh]
    Molecular point group: c1

    Geometry (in Angstrom), charge = 0, multiplicity = 1:

       Center              X                  Y                   Z               Mass
    ------------   -----------------  -----------------  -----------------  -----------------
         C            0.940655268106     1.127868738575    -0.847535016041    12.000000000000
         H            1.615922268106     1.972257738575    -0.846602016041     1.007825032230
         C            1.447524268106    -0.170768261425    -0.800034016041    12.000000000000
         H            2.515822268106    -0.332586261425    -0.761875016041     1.007825032230
         C            0.576227268106    -1.259397261425    -0.796402016041    12.000000000000
         H            0.969568268106    -2.265899261425    -0.758272016041     1.007825032230
         C           -0.801299731894    -1.050060261425    -0.840037016041    12.000000000000
         H           -1.476749731894    -1.894546261425    -0.836186016041     1.007825032230
         C           -1.308439731894     0.247743738575    -0.883735016041    12.000000000000
         H           -2.377040731894     0.410343738575    -0.913588016041     1.007825032230
         C           -0.437868731894     1.336924738575    -0.887423016041    12.000000000000
         H           -0.830855731894     2.343700738575    -0.916938016041     1.007825032230
         O            0.271092268106     0.426858738575     1.940613983959    15.994914619570
         H            0.357192268106     0.476731738575     0.983419983959     1.007825032230
         C           -0.625057731894    -0.630756261425     2.223668983959    12.000000000000
         H           -0.720778731894    -0.687490261425     3.304604983959     1.007825032230
         H           -1.617207731894    -0.459058261425     1.799877983959     1.007825032230
         H           -0.258597731894    -1.593797261425     1.860756983959     1.007825032230

  Charge       = 0
  Multiplicity = 1
  Basis Set: AUG-CC-PVQZ
    Blend: AUG-CC-PVQZ
  Basis Set: (AUG-CC-PVQZ AUX)
    Blend: AUG-CC-PVQZ-JKFIT

    Orbital Energies [Eh]
    ---------------------

    Doubly Occupied:

       1A    -20.525691     2A    -11.249159     3A    -11.247054
       4A    -11.246647     5A    -11.246560     6A    -11.244886
       7A    -11.244625     8A    -11.244015     9A     -1.334526
      10A     -1.165632    11A     -1.029465    12A     -1.027938
      13A     -0.905835    14A     -0.836338    15A     -0.836312
      16A     -0.723437    17A     -0.679747    18A     -0.655272
      19A     -0.631339    20A     -0.601076    21A     -0.600765
      22A     -0.600426    23A     -0.572721    24A     -0.511305
      25A     -0.506634    26A     -0.506607    27A     -0.482966
      28A     -0.428052    29A     -0.350265    30A     -0.348806

  @DF-RHF Final Energy:  -345.87694276046602

   => Energetics <=

    Nuclear Repulsion Energy =            364.2911691272066719
    One-Electron Energy =               -1191.1680162604689031
    Two-Electron Energy =                 480.9999043727962089
    Total Energy =                       -345.8769427604660223

  Dipole Moment: [D]
     X:    -0.7340      Y:    -0.9735      Z:    -1.7444     Total:     2.1282

  Basis Set: (AUG-CC-PVQZ AUX)
    Blend: AUG-CC-PVQZ-RI
	 Reference Energy          =    -345.8769427604660223 [Eh]
	 Singles Energy            =      -0.0000000000000000 [Eh]
	 Same-Spin Energy          =      -0.3916013966649586 [Eh]
	 Opposite-Spin Energy      =      -1.3402169194631697 [Eh]
	 Correlation Energy        =      -1.7318183161281282 [Eh]
	 Total Energy              =    -347.6087610765941349 [Eh]

	 ================> DF-SCS-MP2 Energies <==================
	-----------------------------------------------------------
	 SCS Same-Spin Scale       =       0.3333333333333333 [-]
	 SCS Opposite-Spin Scale   =       1.2000000000000000 [-]
	 SCS Same-Spin Energy      =      -0.1305337988883195 [Eh]
	 SCS Opposite-Spin Energy  =      -1.6082603033558036 [Eh]
	 SCS Correlation Energy    =      -1.7387941022441231 [Eh]
	 SCS Total Energy          =    -347.6157368627101505 [Eh]
	-----------------------------------------------------------

*** Psi4 exiting successfully. Buy a developer a beer!
