                               Psi4 1.4a2.dev224

  ==> Input File <==

--------------------------------------------------------------------------
#Generated by lconvert.py for cbs job

memory 40 GB

molecule  {
0 1
  C        0.7597490     1.0312750     0.3737720
  H        1.4350160     1.8756640     0.3747050
  C        1.2666180    -0.2673620     0.4212730
  H        2.3349160    -0.4291800     0.4594320
  C        0.3953210    -1.3559910     0.4249050
  H        0.7886620    -2.3624930     0.4630350
  C       -0.9822060    -1.1466540     0.3812700
  H       -1.6576560    -1.9911400     0.3851210
  C       -1.4893460     0.1511500     0.3375720
  H       -2.5579470     0.3137500     0.3077190
  C       -0.6187750     1.2403310     0.3338840
  H       -1.0117620     2.2471070     0.3043690
--
0 1
  O        0.1126520     0.3427960     2.8896380
  H        0.1987520     0.3926690     1.9324450
  C       -0.7834990    -0.7148180     3.1726930
  H       -0.8792200    -0.7715530     4.2536290
  H       -1.7756490    -0.5431200     2.7489030
  H       -0.4170390    -1.6778590     2.8097820
units angstrom
no_reorient
symmetry c1
}

set {
scf_type DF
mp2_type DF
e_convergence 7
reference rhf
}

energy('mp2/aug-cc-pv[tq]z', bsse_type='cp')
--------------------------------------------------------------------------

    Molecular point group: c1
  Charge       = 0
  Multiplicity = 1
  Basis Set: AUG-CC-PVTZ
    Blend: AUG-CC-PVTZ
  Basis Set: (AUG-CC-PVTZ AUX)
    Blend: AUG-CC-PVTZ-JKFIT
  @DF-RHF Final Energy:  -115.09200073308477
    Total Energy =                       -115.0920007330847739
  Basis Set: (AUG-CC-PVTZ AUX)
    Blend: AUG-CC-PVTZ-RI
	 Reference Energy          =    -115.0920007330847739 [Eh]
	 Singles Energy            =      -0.0000000000000000 [Eh]
	 Same-Spin Energy          =      -0.1057838472194064 [Eh]
	 Opposite-Spin Energy      =      -0.3646475494655063 [Eh]
	 Correlation Energy        =      -0.4704313966849126 [Eh]
	 Total Energy              =    -115.5624321297696895 [Eh]
	 SCS Total Energy          =    -115.5648390748498571 [Eh]
    Molecular point group: c1
  Basis Set: AUG-CC-PVQZ
    Blend: AUG-CC-PVQZ
  Basis Set: (AUG-CC-PVQZ AUX)
    Blend: AUG-CC-PVQZ-JKFIT
  @DF-RHF Final Energy:  -115.09952307891733
    Total Energy =                       -115.0995230789173291
  Basis Set: (AUG-CC-PVQZ AUX)
  @DF-RHF Final Energy:  -115.09220835802830
    Total Energy =                       -115.0922083580283015
  @DF-RHF Final Energy:  -115.09959304340958
    Total Energy =                       -115.0995930434095840
  @DF-RHF Final Energy:  -230.78156928443221
    Total Energy =                       -230.7815692844321802
  @DF-RHF Final Energy:  -230.79443327213116
    Total Energy =                       -230.7944332721311298
  @DF-RHF Final Energy:  -230.78118681244857
    Total Energy =                       -230.7811868124485954
  @DF-RHF Final Energy:  -230.79435868374114
    Total Energy =                       -230.7943586837411658
  @DF-RHF Final Energy:  -345.82862406860067
    Total Energy =                       -345.8286240686006749
  @DF-RHF Final Energy:  -345.84887265786062
    Total Energy =                       -345.8488726578606247
*** Psi4 exiting successfully. Buy a developer a beer!
                               Psi4 1.4a2.dev224
  @DF-RHF Final Energy:  -115.09200067917287
    Total Energy =                       -115.0920006791728696
  @DF-RHF Final Energy:  -115.09952302175878
    Total Energy =                       -115.0995230217587846
  @DF-RHF Final Energy:  -115.09216935739765
    Total Energy =                       -115.0921693573976512
  @DF-RHF Final Energy:  -115.09958001433810
    Total Energy =                       -115.0995800143381018
  @DF-RHF Final Energy:  -230.78150147573419
    Total Energy =                       -230.7815014757342169
  @DF-RHF Final Energy:  -230.79442442531172
    Total Energy =                       -230.7944244253117176
  @DF-RHF Final Energy:  -230.78118681365322
    Total Energy =                       -230.7811868136532212
  @DF-RHF Final Energy:  -230.79435868071886
    Total Energy =                       -230.7943586807188581
  @DF-RHF Final Energy:  -345.85662890991773
    Total Energy =                       -345.8566289099177311
  @DF-RHF Final Energy:  -345.87694276046602
    Total Energy =                       -345.8769427604660223
*** Psi4 exiting successfully. Buy a developer a beer!
                               Psi4 1.4a2.dev224
                               Psi4 1.4a2.dev224
                               Psi4 1.4a2.dev224
                               Psi4 1.4a2.dev224
                               Psi4 1.4a2.dev224
                               Psi4 1.4a2.dev224
                               Psi4 1.4a2.dev224
  @DF-RHF Final Energy:  -115.09200096234960
    Total Energy =                       -115.0920009623496014
  @DF-RHF Final Energy:  -115.09952331572401
    Total Energy =                       -115.0995233157240136
  @DF-RHF Final Energy:  -115.09203121153381
    Total Energy =                       -115.0920312115338078
  @DF-RHF Final Energy:  -115.09953714682020
    Total Energy =                       -115.0995371468201967
  @DF-RHF Final Energy:  -230.78122818428858
    Total Energy =                       -230.7812281842885795
  @DF-RHF Final Energy:  -230.79437159935642
    Total Energy =                       -230.7943715993563956
  @DF-RHF Final Energy:  -230.78118676888232
    Total Energy =                       -230.7811867688823213
  @DF-RHF Final Energy:  -230.79435863143223
    Total Energy =                       -230.7943586314322602
  @DF-RHF Final Energy:  -345.87455012960908
    Total Energy =                       -345.8745501296090765
  @DF-RHF Final Energy:  -345.89518994290461
    Total Energy =                       -345.8951899429046080
*** Psi4 exiting successfully. Buy a developer a beer!
                               Psi4 1.4a2.dev224
  @DF-RHF Final Energy:  -115.09200030665659
    Total Energy =                       -115.0920003066565869
  @DF-RHF Final Energy:  -115.09952263808864
    Total Energy =                       -115.0995226380886436
  @DF-RHF Final Energy:  -115.09201868173994
    Total Energy =                       -115.0920186817399440
  @DF-RHF Final Energy:  -115.09952940168726
    Total Energy =                       -115.0995294016872634
  @DF-RHF Final Energy:  -230.78121133019187
    Total Energy =                       -230.7812113301918657
  @DF-RHF Final Energy:  -230.79436601646489
    Total Energy =                       -230.7943660164648918
  @DF-RHF Final Energy:  -230.78118677016101
    Total Energy =                       -230.7811867701610140
  @DF-RHF Final Energy:  -230.79435863015172
    Total Energy =                       -230.7943586301517485
  Multiplicity = 1
  @DF-RHF Final Energy:  -345.87398463663499
    Total Energy =                       -345.8739846366349866
	 Singles Energy            =      -0.0000000000000000 [Eh]
	 Same-Spin Energy          =      -0.3613312743874663 [Eh]
	 Opposite-Spin Energy      =      -1.1833262825180220 [Eh]
	 Correlation Energy        =      -1.5446575569054883 [Eh]
	 Total Energy              =    -347.4186421935404496 [Eh]
	 SCS Total Energy          =    -347.4144199337857799 [Eh]
    Molecular point group: c1

    Geometry (in Angstrom), charge = 0, multiplicity = 1:

       Center              X                  Y                   Z               Mass
    ------------   -----------------  -----------------  -----------------  -----------------
         C            1.012005815713     1.167661293748    -1.712292881573    12.000000000000
         H            1.687275815713     2.012051293748    -1.711352881573     1.007825032230
         C            1.518875815713    -0.130968706252    -1.664792881573    12.000000000000
         H            2.587175815713    -0.292788706252    -1.626632881573     1.007825032230
         C            0.647575815713    -1.219598706252    -1.661162881573    12.000000000000
         H            1.040915815713    -2.226098706252    -1.623032881573     1.007825032230
         C           -0.729954184287    -1.010258706252    -1.704792881573    12.000000000000
         H           -1.405404184287    -1.854748706252    -1.700942881573     1.007825032230
         C           -1.237094184287     0.287541293748    -1.748492881573    12.000000000000
         H           -2.305694184287     0.450141293748    -1.778342881573     1.007825032230
         C           -0.366514184287     1.376721293748    -1.752182881573    12.000000000000
         H           -0.759504184287     2.383501293748    -1.781692881573     1.007825032230
         O            0.097215815713     0.329871293748     4.048007118427    15.994914619570
         H            0.183315815713     0.379741293748     3.090807118427     1.007825032230
         C           -0.798934184287    -0.727738706252     4.331057118427    12.000000000000
         H           -0.894654184287    -0.784478706252     5.411997118427     1.007825032230
         H           -1.791084184287    -0.556048706252     3.907267118427     1.007825032230
         H           -0.432474184287    -1.690788706252     3.968147118427     1.007825032230

  Charge       = 0
  Multiplicity = 1
  Basis Set: AUG-CC-PVQZ
    Blend: AUG-CC-PVQZ
  Basis Set: (AUG-CC-PVQZ AUX)
    Blend: AUG-CC-PVQZ-JKFIT

    Orbital Energies [Eh]
    ---------------------

    Doubly Occupied:

       1A    -20.553183     2A    -11.265889     3A    -11.239774
       4A    -11.239198     5A    -11.239185     6A    -11.237964
       7A    -11.237941     8A    -11.237338     9A     -1.355131
      10A     -1.154246    11A     -1.018822    12A     -1.018806
      13A     -0.921586    14A     -0.828359    15A     -0.828341
      16A     -0.713989    17A     -0.688575    18A     -0.648654
      19A     -0.623375    20A     -0.617107    21A     -0.592468
      22A     -0.592462    23A     -0.590897    24A     -0.506984
      25A     -0.501376    26A     -0.499369    27A     -0.499335
      28A     -0.447500    29A     -0.341424    30A     -0.341421

  @DF-RHF Final Energy:  -345.89464524061481

   => Energetics <=

    Nuclear Repulsion Energy =            309.4183250196060726
    One-Electron Energy =               -1081.4645383360102642
    Two-Electron Energy =                 426.1515680757893847
    Total Energy =                       -345.8946452406148069

  Dipole Moment: [D]
     X:    -0.7927      Y:    -1.0227      Z:    -1.3305     Total:     1.8559

  Basis Set: (AUG-CC-PVQZ AUX)
    Blend: AUG-CC-PVQZ-RI
	 Reference Energy          =    -345.8946452406148069 [Eh]
	 Singles Energy            =      -0.0000000000000000 [Eh]
	 Same-Spin Energy          =      -0.3826055792885668 [Eh]
	 Opposite-Spin Energy      =      -1.3289291463955313 [Eh]
	 Correlation Energy        =      -1.7115347256840980 [Eh]
	 Total Energy              =    -347.6061799662988960 [Eh]

	 ================> DF-SCS-MP2 Energies <==================
	-----------------------------------------------------------
	 SCS Same-Spin Scale       =       0.3333333333333333 [-]
	 SCS Opposite-Spin Scale   =       1.2000000000000000 [-]
	 SCS Same-Spin Energy      =      -0.1275351930961889 [Eh]
	 SCS Opposite-Spin Energy  =      -1.5947149756746375 [Eh]
	 SCS Correlation Energy    =      -1.7222501687708265 [Eh]
	 SCS Total Energy          =    -347.6168954093856200 [Eh]
	-----------------------------------------------------------

*** Psi4 exiting successfully. Buy a developer a beer!
