                               Psi4 1.4a2.dev224

  ==> Input File <==

--------------------------------------------------------------------------
#Generated by lconvert.py for cbs job

memory 40 GB

molecule  {
0 1
  C        0.7597490     1.0312750     0.3737720
  H        1.4350160     1.8756640     0.3747050
  C        1.2666180    -0.2673620     0.4212730
  H        2.3349160    -0.4291800     0.4594320
  C        0.3953210    -1.3559910     0.4249050
  H        0.7886620    -2.3624930     0.4630350
  C       -0.9822060    -1.1466540     0.3812700
  H       -1.6576560    -1.9911400     0.3851210
  C       -1.4893460     0.1511500     0.3375720
  H       -2.5579470     0.3137500     0.3077190
  C       -0.6187750     1.2403310     0.3338840
  H       -1.0117620     2.2471070     0.3043690
--
0 1
  O        0.1126520     0.3427960     2.8896380
  H        0.1987520     0.3926690     1.9324450
  C       -0.7834990    -0.7148180     3.1726930
  H       -0.8792200    -0.7715530     4.2536290
  H       -1.7756490    -0.5431200     2.7489030
  H       -0.4170390    -1.6778590     2.8097820
units angstrom
no_reorient
symmetry c1
}

set {
scf_type DF
mp2_type DF
e_convergence 7
reference rhf
}

energy('mp2/aug-cc-pv[tq]z', bsse_type='cp')
--------------------------------------------------------------------------

    Molecular point group: c1
  Charge       = 0
  Multiplicity = 1
  Basis Set: AUG-CC-PVTZ
    Blend: AUG-CC-PVTZ
  Basis Set: (AUG-CC-PVTZ AUX)
    Blend: AUG-CC-PVTZ-JKFIT
  @DF-RHF Final Energy:  -115.09200073308477
    Total Energy =                       -115.0920007330847739
  Basis Set: (AUG-CC-PVTZ AUX)
    Blend: AUG-CC-PVTZ-RI
	 Reference Energy          =    -115.0920007330847739 [Eh]
	 Singles Energy            =      -0.0000000000000000 [Eh]
	 Same-Spin Energy          =      -0.1057838472194064 [Eh]
	 Opposite-Spin Energy      =      -0.3646475494655063 [Eh]
	 Correlation Energy        =      -0.4704313966849126 [Eh]
	 Total Energy              =    -115.5624321297696895 [Eh]
	 SCS Total Energy          =    -115.5648390748498571 [Eh]
    Molecular point group: c1
  Basis Set: AUG-CC-PVQZ
    Blend: AUG-CC-PVQZ
  Basis Set: (AUG-CC-PVQZ AUX)
    Blend: AUG-CC-PVQZ-JKFIT
  @DF-RHF Final Energy:  -115.09952307891733
    Total Energy =                       -115.0995230789173291
  Basis Set: (AUG-CC-PVQZ AUX)
  @DF-RHF Final Energy:  -115.09220835802830
    Total Energy =                       -115.0922083580283015
  @DF-RHF Final Energy:  -115.09959304340958
    Total Energy =                       -115.0995930434095840
  @DF-RHF Final Energy:  -230.78156928443221
    Total Energy =                       -230.7815692844321802
  @DF-RHF Final Energy:  -230.79443327213116
    Total Energy =                       -230.7944332721311298
  @DF-RHF Final Energy:  -230.78118681244857
    Total Energy =                       -230.7811868124485954
  @DF-RHF Final Energy:  -230.79435868374114
    Total Energy =                       -230.7943586837411658
  Multiplicity = 1
  @DF-RHF Final Energy:  -345.82862406860067
    Total Energy =                       -345.8286240686006749
	 Singles Energy            =      -0.0000000000000000 [Eh]
	 Same-Spin Energy          =      -0.3755518142614788 [Eh]
	 Opposite-Spin Energy      =      -1.2047946712701376 [Eh]
	 Correlation Energy        =      -1.5803464855316163 [Eh]
	 Total Energy              =    -347.4089705541322814 [Eh]
	 SCS Total Energy          =    -347.3995616122119827 [Eh]
    Molecular point group: c1

    Geometry (in Angstrom), charge = 0, multiplicity = 1:

       Center              X                  Y                   Z               Mass
    ------------   -----------------  -----------------  -----------------  -----------------
         C            0.934118834658     1.124222668138    -0.768313247397    12.000000000000
         H            1.609385834658     1.968611668138    -0.767380247397     1.007825032230
         C            1.440987834658    -0.174414331862    -0.720812247397    12.000000000000
         H            2.509285834658    -0.336232331862    -0.682653247397     1.007825032230
         C            0.569690834658    -1.263043331862    -0.717180247397    12.000000000000
         H            0.963031834658    -2.269545331862    -0.679050247397     1.007825032230
         C           -0.807836165342    -1.053706331862    -0.760815247397    12.000000000000
         H           -1.483286165342    -1.898192331862    -0.756964247397     1.007825032230
         C           -1.314976165342     0.244097668138    -0.804513247397    12.000000000000
         H           -2.383577165342     0.406697668138    -0.834366247397     1.007825032230
         C           -0.444405165342     1.333278668138    -0.808201247397    12.000000000000
         H           -0.837392165342     2.340054668138    -0.837716247397     1.007825032230
         O            0.287021834658     0.435743668138     1.747552752603    15.994914619570
         H            0.373121834658     0.485616668138     0.790359752603     1.007825032230
         C           -0.609129165342    -0.621870331862     2.030607752603    12.000000000000
         H           -0.704850165342    -0.678605331862     3.111543752603     1.007825032230
         H           -1.601279165342    -0.450172331862     1.606817752603     1.007825032230
         H           -0.242669165342    -1.584911331862     1.667696752603     1.007825032230

  Charge       = 0
  Multiplicity = 1
  Basis Set: AUG-CC-PVQZ
    Blend: AUG-CC-PVQZ
  Basis Set: (AUG-CC-PVQZ AUX)
    Blend: AUG-CC-PVQZ-JKFIT

    Orbital Energies [Eh]
    ---------------------

    Doubly Occupied:

       1A    -20.516632     2A    -11.247401     3A    -11.247099
       4A    -11.247076     5A    -11.245042     6A    -11.244255
       7A    -11.244041     8A    -11.243148     9A     -1.333306
      10A     -1.168252    11A     -1.033570    12A     -1.029500
      13A     -0.903601    14A     -0.837541    15A     -0.837492
      16A     -0.727197    17A     -0.684305    18A     -0.655756
      19A     -0.632325    20A     -0.602453    21A     -0.602335
      22A     -0.598972    23A     -0.569877    24A     -0.507459
      25A     -0.507395    26A     -0.503782    27A     -0.479493
      28A     -0.424769    29A     -0.349169    30A     -0.344599

  @DF-RHF Final Energy:  -345.84887265786062

   => Energetics <=

    Nuclear Repulsion Energy =            373.6310118889372234
    One-Electron Energy =               -1209.8240827254296619
    Two-Electron Energy =                 490.3441981786318138
    Total Energy =                       -345.8488726578606247

  Dipole Moment: [D]
     X:    -0.7320      Y:    -0.9688      Z:    -1.6883     Total:     2.0796

  Basis Set: (AUG-CC-PVQZ AUX)
    Blend: AUG-CC-PVQZ-RI
	 Reference Energy          =    -345.8488726578606247 [Eh]
	 Singles Energy            =      -0.0000000000000000 [Eh]
	 Same-Spin Energy          =      -0.3965941079968400 [Eh]
	 Opposite-Spin Energy      =      -1.3465872766891533 [Eh]
	 Correlation Energy        =      -1.7431813846859934 [Eh]
	 Total Energy              =    -347.5920540425466356 [Eh]

	 ================> DF-SCS-MP2 Energies <==================
	-----------------------------------------------------------
	 SCS Same-Spin Scale       =       0.3333333333333333 [-]
	 SCS Opposite-Spin Scale   =       1.2000000000000000 [-]
	 SCS Same-Spin Energy      =      -0.1321980359989466 [Eh]
	 SCS Opposite-Spin Energy  =      -1.6159047320269839 [Eh]
	 SCS Correlation Energy    =      -1.7481027680259307 [Eh]
	 SCS Total Energy          =    -347.5969754258865692 [Eh]
	-----------------------------------------------------------

*** Psi4 exiting successfully. Buy a developer a beer!
