                               Psi4 1.4a2.dev224

  ==> Input File <==

--------------------------------------------------------------------------
#Generated by lconvert.py for cbs job

memory 40 GB

molecule  {
0 1
  C        0.6923150     1.0882920     0.3248410
  H        1.2819490     1.9919470     0.2525160
  C        1.3181870    -0.1568700     0.2868960
  H        2.3931430    -0.2194760     0.1884070
  C        0.5580180    -1.3219500     0.3814000
  H        1.0439190    -2.2875740     0.3576150
  C       -0.8275520    -1.2414220     0.5116850
  H       -1.4167010    -2.1452520     0.5853390
  C       -1.4534110     0.0036710     0.5483810
  H       -2.5282330     0.0657030     0.6498430
  C       -0.6934610     1.1684010     0.4562290
  H       -1.1787350     2.1344100     0.4857270
--
0 1
  N        0.2599190    -0.2367330     4.0131660
  H        0.3945380    -0.1926930     3.0100950
  H        0.4014120     0.7084140     4.3456390
  C       -1.1161800    -0.6431160     4.2906020
  H       -1.2740570    -0.6716640     5.3671580
  H       -1.8874820    -0.0027360     3.8504830
  H       -1.2708720    -1.6526840     3.9149810
units angstrom
no_reorient
symmetry c1
}

set {
scf_type DF
mp2_type DF
e_convergence 7
reference rhf
}

energy('mp2/aug-cc-pv[tq]z', bsse_type='cp')
--------------------------------------------------------------------------

    Molecular point group: c1
  Charge       = 0
  Multiplicity = 1
  Basis Set: AUG-CC-PVTZ
    Blend: AUG-CC-PVTZ
  Basis Set: (AUG-CC-PVTZ AUX)
    Blend: AUG-CC-PVTZ-JKFIT
  @DF-RHF Final Energy:   -95.25534053112344
    Total Energy =                        -95.2553405311234371
  Basis Set: (AUG-CC-PVTZ AUX)
    Blend: AUG-CC-PVTZ-RI
	 Reference Energy          =     -95.2553405311234371 [Eh]
	 Singles Energy            =      -0.0000000000000000 [Eh]
	 Same-Spin Energy          =      -0.0954239210580648 [Eh]
	 Opposite-Spin Energy      =      -0.3517039337987044 [Eh]
	 Correlation Energy        =      -0.4471278548567692 [Eh]
	 Total Energy              =     -95.7024683859802110 [Eh]
	 SCS Total Energy          =     -95.7091932253678976 [Eh]
    Molecular point group: c1
  Basis Set: AUG-CC-PVQZ
    Blend: AUG-CC-PVQZ
  Basis Set: (AUG-CC-PVQZ AUX)
    Blend: AUG-CC-PVQZ-JKFIT
  @DF-RHF Final Energy:   -95.26132477202766
    Total Energy =                        -95.2613247720276632
  Basis Set: (AUG-CC-PVQZ AUX)
  @DF-RHF Final Energy:   -95.25539062899284
    Total Energy =                        -95.2553906289928420
  @DF-RHF Final Energy:   -95.26134188847684
    Total Energy =                        -95.2613418884768350
  @DF-RHF Final Energy:  -230.78141539797366
    Total Energy =                       -230.7814153979736602
  @DF-RHF Final Energy:  -230.79444069869311
    Total Energy =                       -230.7944406986931085
  @DF-RHF Final Energy:  -230.78122657953020
    Total Energy =                       -230.7812265795301983
  @DF-RHF Final Energy:  -230.79440013962892
    Total Energy =                       -230.7944001396289195
  Multiplicity = 1
  @DF-RHF Final Energy:  -326.03635838239467
    Total Energy =                       -326.0363583823946669
	 Singles Energy            =      -0.0000000000000000 [Eh]
	 Same-Spin Energy          =      -0.3540937598226980 [Eh]
	 Opposite-Spin Energy      =      -1.1759604255755451 [Eh]
	 Correlation Energy        =      -1.5300541853982432 [Eh]
	 Total Energy              =    -327.5664125677928951 [Eh]
	 SCS Total Energy          =    -327.5655421463595758 [Eh]
    Molecular point group: c1

    Geometry (in Angstrom), charge = 0, multiplicity = 1:

       Center              X                  Y                   Z               Mass
    ------------   -----------------  -----------------  -----------------  -----------------
         C            0.863716867226     1.260997518480    -1.150877797296    12.000000000000
         H            1.453350867226     2.164652518480    -1.223202797296     1.007825032230
         C            1.489588867226     0.015835518480    -1.188822797296    12.000000000000
         H            2.564544867226    -0.046770481520    -1.287311797296     1.007825032230
         C            0.729419867226    -1.149244481520    -1.094318797296    12.000000000000
         H            1.215320867226    -2.114868481520    -1.118103797296     1.007825032230
         C           -0.656150132774    -1.068716481520    -0.964033797296    12.000000000000
         H           -1.245299132774    -1.972546481520    -0.890379797296     1.007825032230
         C           -1.282009132774     0.176376518480    -0.927337797296    12.000000000000
         H           -2.356831132774     0.238408518480    -0.825875797296     1.007825032230
         C           -0.522059132774     1.341106518480    -1.019489797296    12.000000000000
         H           -1.007333132774     2.307115518480    -0.989991797296     1.007825032230
         N            0.431320867226    -0.064027481520     2.537447202704    14.003074004430
         H            0.565939867226    -0.019987481520     1.534376202704     1.007825032230
         H            0.572813867226     0.881119518480     2.869920202704     1.007825032230
         C           -0.944778132774    -0.470410481520     2.814883202704    12.000000000000
         H           -1.102655132774    -0.498958481520     3.891439202704     1.007825032230
         H           -1.716080132774     0.169969518480     2.374764202704     1.007825032230
         H           -1.099470132774    -1.479978481520     2.439262202704     1.007825032230

  Charge       = 0
  Multiplicity = 1
  Basis Set: AUG-CC-PVQZ
    Blend: AUG-CC-PVQZ
  Basis Set: (AUG-CC-PVQZ AUX)
    Blend: AUG-CC-PVQZ-JKFIT

    Orbital Energies [Eh]
    ---------------------

    Doubly Occupied:

       1A    -15.524389     2A    -11.241167     3A    -11.240503
       4A    -11.240402     5A    -11.239332     6A    -11.239167
       7A    -11.238528     8A    -11.229492     9A     -1.159974
      10A     -1.155399    11A     -1.020699    12A     -1.020611
      13A     -0.885125    14A     -0.829841    15A     -0.829782
      16A     -0.715581    17A     -0.650433    18A     -0.649642
      19A     -0.624979    20A     -0.595105    21A     -0.593923
      22A     -0.593334    23A     -0.544591    24A     -0.511466
      25A     -0.502354    26A     -0.500619    27A     -0.500570
      28A     -0.382307    29A     -0.343707    30A     -0.343495

  @DF-RHF Final Energy:  -326.05533760081710

   => Energetics <=

    Nuclear Repulsion Energy =            343.7049768450457350
    One-Electron Energy =               -1121.2275776611054425
    Two-Electron Energy =                 451.4672632152426104
    Total Energy =                       -326.0553376008170972

  Dipole Moment: [D]
     X:    -0.8297      Y:     0.9088      Z:    -0.9843     Total:     1.5758

  Basis Set: (AUG-CC-PVQZ AUX)
    Blend: AUG-CC-PVQZ-RI
	 Reference Energy          =    -326.0553376008170972 [Eh]
	 Singles Energy            =      -0.0000000000000000 [Eh]
	 Same-Spin Energy          =      -0.3742264954070927 [Eh]
	 Opposite-Spin Energy      =      -1.3146030767567995 [Eh]
	 Correlation Energy        =      -1.6888295721638922 [Eh]
	 Total Energy              =    -327.7441671729810082 [Eh]

	 ================> DF-SCS-MP2 Energies <==================
	-----------------------------------------------------------
	 SCS Same-Spin Scale       =       0.3333333333333333 [-]
	 SCS Opposite-Spin Scale   =       1.2000000000000000 [-]
	 SCS Same-Spin Energy      =      -0.1247421651356976 [Eh]
	 SCS Opposite-Spin Energy  =      -1.5775236921081595 [Eh]
	 SCS Correlation Energy    =      -1.7022658572438569 [Eh]
	 SCS Total Energy          =    -327.7576034580609416 [Eh]
	-----------------------------------------------------------

*** Psi4 exiting successfully. Buy a developer a beer!
