                               Psi4 1.4a2.dev224

  ==> Input File <==

--------------------------------------------------------------------------
#Generated by lconvert.py for cbs job

memory 40 GB

molecule  {
0 1
  C        0.6923150     1.0882920     0.3248410
  H        1.2819490     1.9919470     0.2525160
  C        1.3181870    -0.1568700     0.2868960
  H        2.3931430    -0.2194760     0.1884070
  C        0.5580180    -1.3219500     0.3814000
  H        1.0439190    -2.2875740     0.3576150
  C       -0.8275520    -1.2414220     0.5116850
  H       -1.4167010    -2.1452520     0.5853390
  C       -1.4534110     0.0036710     0.5483810
  H       -2.5282330     0.0657030     0.6498430
  C       -0.6934610     1.1684010     0.4562290
  H       -1.1787350     2.1344100     0.4857270
--
0 1
  N        0.2883820    -0.2103930     3.7232620
  H        0.4230010    -0.1663520     2.7201910
  H        0.4298750     0.7347540     4.0557350
  C       -1.0877170    -0.6167760     4.0006980
  H       -1.2455940    -0.6453230     5.0772540
  H       -1.8590190     0.0236050     3.5605790
  H       -1.2424090    -1.6263440     3.6250760
units angstrom
no_reorient
symmetry c1
}

set {
scf_type DF
mp2_type DF
e_convergence 7
reference rhf
}

energy('mp2/aug-cc-pv[tq]z', bsse_type='cp')
--------------------------------------------------------------------------

    Molecular point group: c1
  Charge       = 0
  Multiplicity = 1
  Basis Set: AUG-CC-PVTZ
    Blend: AUG-CC-PVTZ
  Basis Set: (AUG-CC-PVTZ AUX)
    Blend: AUG-CC-PVTZ-JKFIT
  @DF-RHF Final Energy:   -95.25534052336505
    Total Energy =                        -95.2553405233650494
  Basis Set: (AUG-CC-PVTZ AUX)
    Blend: AUG-CC-PVTZ-RI
	 Reference Energy          =     -95.2553405233650494 [Eh]
	 Singles Energy            =      -0.0000000000000000 [Eh]
	 Same-Spin Energy          =      -0.0954239196930111 [Eh]
	 Opposite-Spin Energy      =      -0.3517039394814175 [Eh]
	 Correlation Energy        =      -0.4471278591744287 [Eh]
	 Total Energy              =     -95.7024683825394789 [Eh]
	 SCS Total Energy          =     -95.7091932239737559 [Eh]
    Molecular point group: c1
  Basis Set: AUG-CC-PVQZ
    Blend: AUG-CC-PVQZ
  Basis Set: (AUG-CC-PVQZ AUX)
    Blend: AUG-CC-PVQZ-JKFIT
  @DF-RHF Final Energy:   -95.26132476393983
    Total Energy =                        -95.2613247639398253
  Basis Set: (AUG-CC-PVQZ AUX)
  @DF-RHF Final Energy:   -95.25540373964864
    Total Energy =                        -95.2554037396486422
  @DF-RHF Final Energy:   -95.26134576390631
    Total Energy =                        -95.2613457639063057
  @DF-RHF Final Energy:  -230.78146714302869
    Total Energy =                       -230.7814671430286921
  @DF-RHF Final Energy:  -230.79445197282092
    Total Energy =                       -230.7944519728209229
  @DF-RHF Final Energy:  -230.78122657660197
    Total Energy =                       -230.7812265766019664
  @DF-RHF Final Energy:  -230.79440013416644
    Total Energy =                       -230.7944001341664375
  Multiplicity = 1
  @DF-RHF Final Energy:  -326.03327446622876
    Total Energy =                       -326.0332744662287610
	 Singles Energy            =      -0.0000000000000000 [Eh]
	 Same-Spin Energy          =      -0.3558322025614606 [Eh]
	 Opposite-Spin Energy      =      -1.1787147688286082 [Eh]
	 Correlation Energy        =      -1.5345469713900688 [Eh]
	 Total Energy              =    -327.5678214376188180 [Eh]
	 SCS Total Energy          =    -327.5663429230102679 [Eh]
    Molecular point group: c1

    Geometry (in Angstrom), charge = 0, multiplicity = 1:

       Center              X                  Y                   Z               Mass
    ------------   -----------------  -----------------  -----------------  -----------------
         C            0.855617490524     1.253502230871    -1.068383261702    12.000000000000
         H            1.445251490524     2.157157230871    -1.140708261702     1.007825032230
         C            1.481489490524     0.008340230871    -1.106328261702    12.000000000000
         H            2.556445490524    -0.054265769129    -1.204817261702     1.007825032230
         C            0.721320490524    -1.156739769129    -1.011824261702    12.000000000000
         H            1.207221490524    -2.122363769129    -1.035609261702     1.007825032230
         C           -0.664249509476    -1.076211769129    -0.881539261702    12.000000000000
         H           -1.253398509476    -1.980041769129    -0.807885261702     1.007825032230
         C           -1.290108509476     0.168881230871    -0.844843261702    12.000000000000
         H           -2.364930509476     0.230913230871    -0.743381261702     1.007825032230
         C           -0.530158509476     1.333611230871    -0.936995261702    12.000000000000
         H           -1.015432509476     2.299620230871    -0.907497261702     1.007825032230
         N            0.451684490524    -0.045182769129     2.330037738298    14.003074004430
         H            0.586303490524    -0.001141769129     1.326966738298     1.007825032230
         H            0.593177490524     0.899964230871     2.662510738298     1.007825032230
         C           -0.924414509476    -0.451565769129     2.607473738298    12.000000000000
         H           -1.082291509476    -0.480112769129     3.684029738298     1.007825032230
         H           -1.695716509476     0.188815230871     2.167354738298     1.007825032230
         H           -1.079106509476    -1.461133769129     2.231851738298     1.007825032230

  Charge       = 0
  Multiplicity = 1
  Basis Set: AUG-CC-PVQZ
    Blend: AUG-CC-PVQZ
  Basis Set: (AUG-CC-PVQZ AUX)
    Blend: AUG-CC-PVQZ-JKFIT

    Orbital Energies [Eh]
    ---------------------

    Doubly Occupied:

       1A    -15.520960     2A    -11.241657     3A    -11.240931
       4A    -11.240784     5A    -11.239805     6A    -11.239514
       7A    -11.238888     8A    -11.227556     9A     -1.160879
      10A     -1.153118    11A     -1.021523    12A     -1.021367
      13A     -0.883371    14A     -0.830450    15A     -0.830352
      16A     -0.716329    17A     -0.650319    18A     -0.649507
      19A     -0.625517    20A     -0.595567    21A     -0.594579
      22A     -0.592493    23A     -0.542897    24A     -0.511695
      25A     -0.501256    26A     -0.501094    27A     -0.498802
      28A     -0.379977    29A     -0.344429    30A     -0.344095

  @DF-RHF Final Energy:  -326.05220352986260

   => Energetics <=

    Nuclear Repulsion Energy =            350.5734727404591808
    One-Electron Energy =               -1134.9719240240947329
    Two-Electron Energy =                 458.3462477537729001
    Total Energy =                       -326.0522035298625951

  Dipole Moment: [D]
     X:    -0.8299      Y:     0.8983      Z:    -1.0211     Total:     1.5932

  Basis Set: (AUG-CC-PVQZ AUX)
    Blend: AUG-CC-PVQZ-RI
	 Reference Energy          =    -326.0522035298625951 [Eh]
	 Singles Energy            =      -0.0000000000000000 [Eh]
	 Same-Spin Energy          =      -0.3759261325827813 [Eh]
	 Opposite-Spin Energy      =      -1.3167379349054849 [Eh]
	 Correlation Energy        =      -1.6926640674882663 [Eh]
	 Total Energy              =    -327.7448675973508898 [Eh]

	 ================> DF-SCS-MP2 Energies <==================
	-----------------------------------------------------------
	 SCS Same-Spin Scale       =       0.3333333333333333 [-]
	 SCS Opposite-Spin Scale   =       1.2000000000000000 [-]
	 SCS Same-Spin Energy      =      -0.1253087108609271 [Eh]
	 SCS Opposite-Spin Energy  =      -1.5800855218865817 [Eh]
	 SCS Correlation Energy    =      -1.7053942327475089 [Eh]
	 SCS Total Energy          =    -327.7575977626100894 [Eh]
	-----------------------------------------------------------

*** Psi4 exiting successfully. Buy a developer a beer!
