                               Psi4 1.4a2.dev224

  ==> Input File <==

--------------------------------------------------------------------------
#Generated by lconvert.py for cbs job

memory 40 GB

molecule  {
0 1
  C        0.6923150     1.0882920     0.3248410
  H        1.2819490     1.9919470     0.2525160
  C        1.3181870    -0.1568700     0.2868960
  H        2.3931430    -0.2194760     0.1884070
  C        0.5580180    -1.3219500     0.3814000
  H        1.0439190    -2.2875740     0.3576150
  C       -0.8275520    -1.2414220     0.5116850
  H       -1.4167010    -2.1452520     0.5853390
  C       -1.4534110     0.0036710     0.5483810
  H       -2.5282330     0.0657030     0.6498430
  C       -0.6934610     1.1684010     0.4562290
  H       -1.1787350     2.1344100     0.4857270
--
0 1
  N        0.3300090    -0.1718710     3.2992860
  H        0.4646270    -0.1278300     2.2962150
  H        0.4715010     0.7732760     3.6317580
  C       -1.0460910    -0.5782540     3.5767220
  H       -1.2039670    -0.6068010     4.6532780
  H       -1.8173930     0.0621270     3.1366030
  H       -1.2007830    -1.5878220     3.2011000
units angstrom
no_reorient
symmetry c1
}

set {
scf_type DF
mp2_type DF
e_convergence 7
reference rhf
}

energy('mp2/aug-cc-pv[tq]z', bsse_type='cp')
--------------------------------------------------------------------------

    Molecular point group: c1
  Charge       = 0
  Multiplicity = 1
  Basis Set: AUG-CC-PVTZ
    Blend: AUG-CC-PVTZ
  Basis Set: (AUG-CC-PVTZ AUX)
    Blend: AUG-CC-PVTZ-JKFIT
  @DF-RHF Final Energy:   -95.25534051759175
    Total Energy =                        -95.2553405175917476
  Basis Set: (AUG-CC-PVTZ AUX)
    Blend: AUG-CC-PVTZ-RI
	 Reference Energy          =     -95.2553405175917476 [Eh]
	 Singles Energy            =      -0.0000000000000000 [Eh]
	 Same-Spin Energy          =      -0.0954239157354922 [Eh]
	 Opposite-Spin Energy      =      -0.3517039438556236 [Eh]
	 Correlation Energy        =      -0.4471278595911159 [Eh]
	 Total Energy              =     -95.7024683771828677 [Eh]
	 SCS Total Energy          =     -95.7091932221303239 [Eh]
    Molecular point group: c1
  Basis Set: AUG-CC-PVQZ
    Blend: AUG-CC-PVQZ
  Basis Set: (AUG-CC-PVQZ AUX)
    Blend: AUG-CC-PVQZ-JKFIT
  @DF-RHF Final Energy:   -95.26132475729803
    Total Energy =                        -95.2613247572980271
  Basis Set: (AUG-CC-PVQZ AUX)
  @DF-RHF Final Energy:   -95.25542950994381
    Total Energy =                        -95.2554295099438093
  @DF-RHF Final Energy:   -95.26135414586456
    Total Energy =                        -95.2613541458645585
  @DF-RHF Final Energy:  -230.78155289000023
    Total Energy =                       -230.7815528900002278
  @DF-RHF Final Energy:  -230.79446932698582
    Total Energy =                       -230.7944693269858476
  @DF-RHF Final Energy:  -230.78122657904231
    Total Energy =                       -230.7812265790423112
  @DF-RHF Final Energy:  -230.79440013543788
    Total Energy =                       -230.7944001354378543
  Multiplicity = 1
  @DF-RHF Final Energy:  -326.01832877461317
    Total Energy =                       -326.0183287746131668
	 Singles Energy            =      -0.0000000000000000 [Eh]
	 Same-Spin Energy          =      -0.3603003904104066 [Eh]
	 Opposite-Spin Energy      =      -1.1853861514303858 [Eh]
	 Correlation Energy        =      -1.5456865418407926 [Eh]
	 Total Energy              =    -327.5640153164539470 [Eh]
	 SCS Total Energy          =    -327.5608922864664123 [Eh]
    Molecular point group: c1

    Geometry (in Angstrom), charge = 0, multiplicity = 1:

       Center              X                  Y                   Z               Mass
    ------------   -----------------  -----------------  -----------------  -----------------
         C            0.843772338178     1.242540484416    -0.947737454868    12.000000000000
         H            1.433406338178     2.146195484416    -1.020062454868     1.007825032230
         C            1.469644338178    -0.002621515584    -0.985682454868    12.000000000000
         H            2.544600338178    -0.065227515584    -1.084171454868     1.007825032230
         C            0.709475338178    -1.167701515584    -0.891178454868    12.000000000000
         H            1.195376338178    -2.133325515584    -0.914963454868     1.007825032230
         C           -0.676094661822    -1.087173515584    -0.760893454868    12.000000000000
         H           -1.265243661822    -1.991003515584    -0.687239454868     1.007825032230
         C           -1.301953661822     0.157919484416    -0.724197454868    12.000000000000
         H           -2.376775661822     0.219951484416    -0.622735454868     1.007825032230
         C           -0.542003661822     1.322649484416    -0.816349454868    12.000000000000
         H           -1.027277661822     2.288658484416    -0.786851454868     1.007825032230
         N            0.481466338178    -0.017622515584     2.026707545132    14.003074004430
         H            0.616084338178     0.026418484416     1.023636545132     1.007825032230
         H            0.622958338178     0.927524484416     2.359179545132     1.007825032230
         C           -0.894633661822    -0.424005515584     2.304143545132    12.000000000000
         H           -1.052509661822    -0.452552515584     3.380699545132     1.007825032230
         H           -1.665935661822     0.216375484416     1.864024545132     1.007825032230
         H           -1.049325661822    -1.433573515584     1.928521545132     1.007825032230

  Charge       = 0
  Multiplicity = 1
  Basis Set: AUG-CC-PVQZ
    Blend: AUG-CC-PVQZ
  Basis Set: (AUG-CC-PVQZ AUX)
    Blend: AUG-CC-PVQZ-JKFIT

    Orbital Energies [Eh]
    ---------------------

    Doubly Occupied:

       1A    -15.513441     2A    -11.242030     3A    -11.241264
       4A    -11.240899     5A    -11.240167     6A    -11.239468
       7A    -11.238862     8A    -11.223834     9A     -1.166795
      10A     -1.145904    11A     -1.023437    12A     -1.022734
      13A     -0.880953    14A     -0.831469    15A     -0.831173
      16A     -0.718064    17A     -0.652077    18A     -0.650660
      19A     -0.626185    20A     -0.597810    21A     -0.595724
      22A     -0.591218    23A     -0.540785    24A     -0.510039
      25A     -0.501870    26A     -0.501761    27A     -0.490338
      28A     -0.376549    29A     -0.344740    30A     -0.343061

  @DF-RHF Final Energy:  -326.03716040812503

   => Energetics <=

    Nuclear Repulsion Energy =            362.3235507300740323
    One-Electron Energy =               -1158.4748000801832859
    Two-Electron Energy =                 470.1140889419842779
    Total Energy =                       -326.0371604081250325

  Dipole Moment: [D]
     X:    -0.8444      Y:     0.8719      Z:    -1.0383     Total:     1.5973

  Basis Set: (AUG-CC-PVQZ AUX)
    Blend: AUG-CC-PVQZ-RI
	 Reference Energy          =    -326.0371604081250325 [Eh]
	 Singles Energy            =      -0.0000000000000000 [Eh]
	 Same-Spin Energy          =      -0.3803371037521188 [Eh]
	 Opposite-Spin Energy      =      -1.3223967268559536 [Eh]
	 Correlation Energy        =      -1.7027338306080724 [Eh]
	 Total Energy              =    -327.7398942387330862 [Eh]

	 ================> DF-SCS-MP2 Energies <==================
	-----------------------------------------------------------
	 SCS Same-Spin Scale       =       0.3333333333333333 [-]
	 SCS Opposite-Spin Scale   =       1.2000000000000000 [-]
	 SCS Same-Spin Energy      =      -0.1267790345840396 [Eh]
	 SCS Opposite-Spin Energy  =      -1.5868760722271442 [Eh]
	 SCS Correlation Energy    =      -1.7136551068111838 [Eh]
	 SCS Total Energy          =    -327.7508155149362210 [Eh]
	-----------------------------------------------------------

*** Psi4 exiting successfully. Buy a developer a beer!
