                               Psi4 1.4a2.dev224

  ==> Input File <==

--------------------------------------------------------------------------
#Generated by lconvert.py for cbs job

memory 40 GB

molecule  {
0 1
  C        0.6923150     1.0882920     0.3248410
  H        1.2819490     1.9919470     0.2525160
  C        1.3181870    -0.1568700     0.2868960
  H        2.3931430    -0.2194760     0.1884070
  C        0.5580180    -1.3219500     0.3814000
  H        1.0439190    -2.2875740     0.3576150
  C       -0.8275520    -1.2414220     0.5116850
  H       -1.4167010    -2.1452520     0.5853390
  C       -1.4534110     0.0036710     0.5483810
  H       -2.5282330     0.0657030     0.6498430
  C       -0.6934610     1.1684010     0.4562290
  H       -1.1787350     2.1344100     0.4857270
--
0 1
  N        0.2746450    -0.2231050     3.8631800
  H        0.4092640    -0.1790650     2.8601090
  H        0.4161380     0.7220410     4.1956520
  C       -1.1014540    -0.6294890     4.1406160
  H       -1.2593310    -0.6580360     5.2171710
  H       -1.8727560     0.0108920     3.7004970
  H       -1.2561460    -1.6390570     3.7649940
units angstrom
no_reorient
symmetry c1
}

set {
scf_type DF
mp2_type DF
e_convergence 7
reference rhf
}

energy('mp2/aug-cc-pv[tq]z', bsse_type='cp')
--------------------------------------------------------------------------

    Molecular point group: c1
  Charge       = 0
  Multiplicity = 1
  Basis Set: AUG-CC-PVTZ
    Blend: AUG-CC-PVTZ
  Basis Set: (AUG-CC-PVTZ AUX)
    Blend: AUG-CC-PVTZ-JKFIT
  @DF-RHF Final Energy:   -95.25534056392677
    Total Energy =                        -95.2553405639267652
  Basis Set: (AUG-CC-PVTZ AUX)
    Blend: AUG-CC-PVTZ-RI
	 Reference Energy          =     -95.2553405639267652 [Eh]
	 Singles Energy            =      -0.0000000000000000 [Eh]
	 Same-Spin Energy          =      -0.0954239134073691 [Eh]
	 Opposite-Spin Energy      =      -0.3517039140362078 [Eh]
	 Correlation Energy        =      -0.4471278274435768 [Eh]
	 Total Energy              =     -95.7024683913703456 [Eh]
	 SCS Total Energy          =     -95.7091932319059993 [Eh]
    Molecular point group: c1
  Basis Set: AUG-CC-PVQZ
    Blend: AUG-CC-PVQZ
  Basis Set: (AUG-CC-PVQZ AUX)
    Blend: AUG-CC-PVQZ-JKFIT
  @DF-RHF Final Energy:   -95.26132480603651
    Total Energy =                        -95.2613248060365123
  Basis Set: (AUG-CC-PVQZ AUX)
  @DF-RHF Final Energy:   -95.25539711095153
    Total Energy =                        -95.2553971109515345
  @DF-RHF Final Energy:   -95.26134376637427
    Total Energy =                        -95.2613437663742673
  @DF-RHF Final Energy:  -230.78144179882511
    Total Energy =                       -230.7814417988250852
  @DF-RHF Final Energy:  -230.79444605468925
    Total Energy =                       -230.7944460546892742
  @DF-RHF Final Energy:  -230.78122657814282
    Total Energy =                       -230.7812265781428209
  @DF-RHF Final Energy:  -230.79440013813860
    Total Energy =                       -230.7944001381385988
  Multiplicity = 1
  @DF-RHF Final Energy:  -326.03514639020989
    Total Energy =                       -326.0351463902098885
	 Singles Energy            =      -0.0000000000000000 [Eh]
	 Same-Spin Energy          =      -0.3548957998131376 [Eh]
	 Opposite-Spin Energy      =      -1.1772515207910799 [Eh]
	 Correlation Energy        =      -1.5321473206042175 [Eh]
	 Total Energy              =    -327.5672937108141127 [Eh]
	 SCS Total Energy          =    -327.5661468150968858 [Eh]
    Molecular point group: c1

    Geometry (in Angstrom), charge = 0, multiplicity = 1:

       Center              X                  Y                   Z               Mass
    ------------   -----------------  -----------------  -----------------  -----------------
         C            0.859526464903     1.257119689411    -1.108198041015    12.000000000000
         H            1.449160464903     2.160774689411    -1.180523041015     1.007825032230
         C            1.485398464903     0.011957689411    -1.146143041015    12.000000000000
         H            2.560354464903    -0.050648310589    -1.244632041015     1.007825032230
         C            0.725229464903    -1.153122310589    -1.051639041015    12.000000000000
         H            1.211130464903    -2.118746310589    -1.075424041015     1.007825032230
         C           -0.660340535097    -1.072594310589    -0.921354041015    12.000000000000
         H           -1.249489535097    -1.976424310589    -0.847700041015     1.007825032230
         C           -1.286199535097     0.172498689411    -0.884658041015    12.000000000000
         H           -2.361021535097     0.234530689411    -0.783196041015     1.007825032230
         C           -0.526249535097     1.337228689411    -0.976810041015    12.000000000000
         H           -1.011523535097     2.303237689411    -0.947312041015     1.007825032230
         N            0.441856464903    -0.054277310589     2.430140958985    14.003074004430
         H            0.576475464903    -0.010237310589     1.427069958985     1.007825032230
         H            0.583349464903     0.890868689411     2.762612958985     1.007825032230
         C           -0.934242535097    -0.460661310589     2.707576958985    12.000000000000
         H           -1.092119535097    -0.489208310589     3.784131958985     1.007825032230
         H           -1.705544535097     0.179719689411     2.267457958985     1.007825032230
         H           -1.088934535097    -1.470229310589     2.331954958985     1.007825032230

  Charge       = 0
  Multiplicity = 1
  Basis Set: AUG-CC-PVQZ
    Blend: AUG-CC-PVQZ
  Basis Set: (AUG-CC-PVQZ AUX)
    Blend: AUG-CC-PVQZ-JKFIT

    Orbital Energies [Eh]
    ---------------------

    Doubly Occupied:

       1A    -15.522744     2A    -11.241434     3A    -11.240740
       4A    -11.240622     5A    -11.239593     6A    -11.239372
       7A    -11.238737     8A    -11.228543     9A     -1.160143
      10A     -1.154520    11A     -1.021105    12A     -1.020992
      13A     -0.884232    14A     -0.830154    15A     -0.830078
      16A     -0.715949    17A     -0.650136    18A     -0.649689
      19A     -0.625264    20A     -0.595213    21A     -0.594255
      22A     -0.592969    23A     -0.543716    24A     -0.511687
      25A     -0.501192    26A     -0.500861    27A     -0.500419
      28A     -0.381136    29A     -0.344099    30A     -0.343850

  @DF-RHF Final Energy:  -326.05409997332856

   => Energetics <=

    Nuclear Repulsion Energy =            347.1526992820790269
    One-Electron Energy =               -1128.1266858340327417
    Two-Electron Energy =                 454.9198865786250963
    Total Energy =                       -326.0540999733285616

  Dipole Moment: [D]
     X:    -0.8293      Y:     0.9038      Z:    -1.0047     Total:     1.5856

  Basis Set: (AUG-CC-PVQZ AUX)
    Blend: AUG-CC-PVQZ-RI
	 Reference Energy          =    -326.0540999733285616 [Eh]
	 Singles Energy            =      -0.0000000000000000 [Eh]
	 Same-Spin Energy          =      -0.3750092001708987 [Eh]
	 Opposite-Spin Energy      =      -1.3155841323479991 [Eh]
	 Correlation Energy        =      -1.6905933325188978 [Eh]
	 Total Energy              =    -327.7446933058474769 [Eh]

	 ================> DF-SCS-MP2 Energies <==================
	-----------------------------------------------------------
	 SCS Same-Spin Scale       =       0.3333333333333333 [-]
	 SCS Opposite-Spin Scale   =       1.2000000000000000 [-]
	 SCS Same-Spin Energy      =      -0.1250030667236329 [Eh]
	 SCS Opposite-Spin Energy  =      -1.5787009588175989 [Eh]
	 SCS Correlation Energy    =      -1.7037040255412317 [Eh]
	 SCS Total Energy          =    -327.7578039988698038 [Eh]
	-----------------------------------------------------------

*** Psi4 exiting successfully. Buy a developer a beer!
