                               Psi4 1.4a2.dev224

  ==> Input File <==

--------------------------------------------------------------------------
#Generated by lconvert.py for cbs job

memory 20 GB

molecule  {
0 1
  C       0.692320    1.088290    0.324840
  H       1.281950    1.991950    0.252520
  C       1.318190   -0.156870    0.286900
  H       2.393140   -0.219480    0.188410
  C       0.558020   -1.321950    0.381400
  H       1.043920   -2.287570    0.357620
  C      -0.827550   -1.241420    0.511680
  H      -1.416700   -2.145250    0.585340
  C      -1.453410    0.003670    0.548380
  H      -2.528230    0.065700    0.649840
  C      -0.693460    1.168400    0.456230
  H      -1.178740    2.134410    0.485730
--
0 1
  N       0.103880   -0.381140    5.602480
  H       0.238500   -0.337100    4.599410
  H       0.245370    0.564010    5.934950
  C      -1.272220   -0.787520    5.879920
  H      -1.430090   -0.816070    6.956470
  H      -2.043520   -0.147140    5.439800
  H      -1.426910   -1.797090    5.504290
units angstrom
no_reorient
symmetry c1
}

set {
scf_type DF
mp2_type DF
e_convergence 7
reference rhf
}

energy('mp2/aug-cc-pv[tq]z', bsse_type='cp')
--------------------------------------------------------------------------

    Molecular point group: c1
  Charge       = 0
  Multiplicity = 1
  Basis Set: AUG-CC-PVTZ
    Blend: AUG-CC-PVTZ
  Basis Set: (AUG-CC-PVTZ AUX)
    Blend: AUG-CC-PVTZ-JKFIT
  @DF-RHF Final Energy:   -95.25534052209274
    Total Energy =                        -95.2553405220927374
  Basis Set: (AUG-CC-PVTZ AUX)
    Blend: AUG-CC-PVTZ-RI
	 Reference Energy          =     -95.2553405220927374 [Eh]
	 Singles Energy            =      -0.0000000000000000 [Eh]
	 Same-Spin Energy          =      -0.0954239219058488 [Eh]
	 Opposite-Spin Energy      =      -0.3517039482980722 [Eh]
	 Correlation Energy        =      -0.4471278702039209 [Eh]
	 Total Energy              =     -95.7024683922966517 [Eh]
	 SCS Total Energy          =     -95.7091932340190397 [Eh]
    Molecular point group: c1
  Basis Set: AUG-CC-PVQZ
    Blend: AUG-CC-PVQZ
  Basis Set: (AUG-CC-PVQZ AUX)
    Blend: AUG-CC-PVQZ-JKFIT
  @DF-RHF Final Energy:   -95.26132476316431
    Total Energy =                        -95.2613247631643105
  Basis Set: (AUG-CC-PVQZ AUX)
  @DF-RHF Final Energy:   -95.25535511758940
    Total Energy =                        -95.2553551175894029
  @DF-RHF Final Energy:   -95.26133062877496
    Total Energy =                        -95.2613306287749566
  @DF-RHF Final Energy:  -230.78126814109248
    Total Energy =                       -230.7812681410924824
  @DF-RHF Final Energy:  -230.79441242331382
    Total Energy =                       -230.7944124233138155
  @DF-RHF Final Energy:  -230.78122666007809
    Total Energy =                       -230.7812266600780617
  @DF-RHF Final Energy:  -230.79440022194188
    Total Energy =                       -230.7944002219418849
  Multiplicity = 1
  @DF-RHF Final Energy:  -326.03724997864219
    Total Energy =                       -326.0372499786421940
	 Singles Energy            =      -0.0000000000000000 [Eh]
	 Same-Spin Energy          =      -0.3512166756105899 [Eh]
	 Opposite-Spin Energy      =      -1.1708643528532736 [Eh]
	 Correlation Energy        =      -1.5220810284638635 [Eh]
	 Total Energy              =    -327.5593310071060387 [Eh]
	 SCS Total Energy          =    -327.5593594272696691 [Eh]
    Molecular point group: c1

    Geometry (in Angstrom), charge = 0, multiplicity = 1:

       Center              X                  Y                   Z               Mass
    ------------   -----------------  -----------------  -----------------  -----------------
         C            0.908122558888     1.302087495116    -1.603131226336    12.000000000000
         H            1.497752558888     2.205747495116    -1.675451226336     1.007825032230
         C            1.533992558888     0.056927495116    -1.641071226336    12.000000000000
         H            2.608942558888    -0.005682504884    -1.739561226336     1.007825032230
         C            0.773822558888    -1.108152504884    -1.546571226336    12.000000000000
         H            1.259722558888    -2.073772504884    -1.570351226336     1.007825032230
         C           -0.611747441112    -1.027622504884    -1.416291226336    12.000000000000
         H           -1.200897441112    -1.931452504884    -1.342631226336     1.007825032230
         C           -1.237607441112     0.217467495116    -1.379591226336    12.000000000000
         H           -2.312427441112     0.279497495116    -1.278131226336     1.007825032230
         C           -0.477657441112     1.382197495116    -1.471741226336    12.000000000000
         H           -0.962937441112     2.348207495116    -1.442241226336     1.007825032230
         N            0.319682558888    -0.167342504884     3.674508773664    14.003074004430
         H            0.454302558888    -0.123302504884     2.671438773664     1.007825032230
         H            0.461172558888     0.777807495116     4.006978773664     1.007825032230
         C           -1.056417441112    -0.573722504884     3.951948773664    12.000000000000
         H           -1.214287441112    -0.602272504884     5.028498773664     1.007825032230
         H           -1.827717441112     0.066657495116     3.511828773664     1.007825032230
         H           -1.211107441112    -1.583292504884     3.576318773664     1.007825032230

  Charge       = 0
  Multiplicity = 1
  Basis Set: AUG-CC-PVQZ
    Blend: AUG-CC-PVQZ
  Basis Set: (AUG-CC-PVQZ AUX)
    Blend: AUG-CC-PVQZ-JKFIT

    Orbital Energies [Eh]
    ---------------------

    Doubly Occupied:

       1A    -15.533194     2A    -11.238502     3A    -11.237916
       4A    -11.237871     5A    -11.236668     6A    -11.236656
       7A    -11.236022     8A    -11.235203     9A     -1.166591
      10A     -1.153228    11A     -1.017728    12A     -1.017662
      13A     -0.891226    14A     -0.827180    15A     -0.827163
      16A     -0.712852    17A     -0.656878    18A     -0.647332
      19A     -0.622300    20A     -0.600236    21A     -0.591324
      22A     -0.591231    23A     -0.550874    24A     -0.511887
      25A     -0.505868    26A     -0.498168    27A     -0.498101
      28A     -0.389678    29A     -0.340291    30A     -0.340230

  @DF-RHF Final Energy:  -326.05636487035525

   => Energetics <=

    Nuclear Repulsion Energy =            317.2721374128950629
    One-Electron Energy =               -1068.3568744985966532
    Two-Electron Energy =                 425.0283722153463373
    Total Energy =                       -326.0563648703552531

  Dipole Moment: [D]
     X:    -0.8523      Y:     0.9321      Z:    -0.7834     Total:     1.4863

  Basis Set: (AUG-CC-PVQZ AUX)
    Blend: AUG-CC-PVQZ-RI
	 Reference Energy          =    -326.0563648703552531 [Eh]
	 Singles Energy            =      -0.0000000000000000 [Eh]
	 Same-Spin Energy          =      -0.3714712470976377 [Eh]
	 Opposite-Spin Energy      =      -1.3111869002282528 [Eh]
	 Correlation Energy        =      -1.6826581473258906 [Eh]
	 Total Energy              =    -327.7390230176811201 [Eh]

	 ================> DF-SCS-MP2 Energies <==================
	-----------------------------------------------------------
	 SCS Same-Spin Scale       =       0.3333333333333333 [-]
	 SCS Opposite-Spin Scale   =       1.2000000000000000 [-]
	 SCS Same-Spin Energy      =      -0.1238237490325459 [Eh]
	 SCS Opposite-Spin Energy  =      -1.5734242802739034 [Eh]
	 SCS Correlation Energy    =      -1.6972480293064494 [Eh]
	 SCS Total Energy          =    -327.7536128996616753 [Eh]
	-----------------------------------------------------------

*** Psi4 exiting successfully. Buy a developer a beer!
