                               Psi4 1.4a2.dev224

  ==> Input File <==

--------------------------------------------------------------------------
#Generated by lconvert.py for cbs job

memory 40 GB

molecule  {
0 1
  C        0.6923150     1.0882920     0.3248410
  H        1.2819490     1.9919470     0.2525160
  C        1.3181870    -0.1568700     0.2868960
  H        2.3931430    -0.2194760     0.1884070
  C        0.5580180    -1.3219500     0.3814000
  H        1.0439190    -2.2875740     0.3576150
  C       -0.8275520    -1.2414220     0.5116850
  H       -1.4167010    -2.1452520     0.5853390
  C       -1.4534110     0.0036710     0.5483810
  H       -2.5282330     0.0657030     0.6498430
  C       -0.6934610     1.1684010     0.4562290
  H       -1.1787350     2.1344100     0.4857270
--
0 1
  N        0.3582160    -0.1457670     3.0119850
  H        0.4928350    -0.1017260     2.0089130
  H        0.4997090     0.7993800     3.3444570
  C       -1.0178830    -0.5521500     3.2894200
  H       -1.1757600    -0.5806970     4.3659760
  H       -1.7891850     0.0882310     2.8493010
  H       -1.1725750    -1.5617180     2.9137990
units angstrom
no_reorient
symmetry c1
}

set {
scf_type DF
mp2_type DF
e_convergence 7
reference rhf
}

energy('mp2/aug-cc-pv[tq]z', bsse_type='cp')
--------------------------------------------------------------------------

    Molecular point group: c1
  Charge       = 0
  Multiplicity = 1
  Basis Set: AUG-CC-PVTZ
    Blend: AUG-CC-PVTZ
  Basis Set: (AUG-CC-PVTZ AUX)
    Blend: AUG-CC-PVTZ-JKFIT
  @DF-RHF Final Energy:   -95.25534050574578
    Total Energy =                        -95.2553405057457780
  Basis Set: (AUG-CC-PVTZ AUX)
    Blend: AUG-CC-PVTZ-RI
	 Reference Energy          =     -95.2553405057457780 [Eh]
	 Singles Energy            =      -0.0000000000000000 [Eh]
	 Same-Spin Energy          =      -0.0954239241639963 [Eh]
	 Opposite-Spin Energy      =      -0.3517039485556074 [Eh]
	 Correlation Energy        =      -0.4471278727196037 [Eh]
	 Total Energy              =     -95.7024683784653831 [Eh]
	 SCS Total Energy          =     -95.7091932187338443 [Eh]
    Molecular point group: c1
  Basis Set: AUG-CC-PVQZ
    Blend: AUG-CC-PVQZ
  Basis Set: (AUG-CC-PVQZ AUX)
    Blend: AUG-CC-PVQZ-JKFIT
  @DF-RHF Final Energy:   -95.26132474573211
    Total Energy =                        -95.2613247457321108
  Basis Set: (AUG-CC-PVQZ AUX)
  @DF-RHF Final Energy:   -95.25545405161427
    Total Energy =                        -95.2554540516142652
  @DF-RHF Final Energy:   -95.26136186470671
    Total Energy =                        -95.2613618647067142
  @DF-RHF Final Energy:  -230.78162162574108
    Total Energy =                       -230.7816216257410815
  @DF-RHF Final Energy:  -230.79447919276907
    Total Energy =                       -230.7944791927690744
  @DF-RHF Final Energy:  -230.78122657442040
    Total Energy =                       -230.7812265744204296
  @DF-RHF Final Energy:  -230.79440013555836
    Total Energy =                       -230.7944001355583623
  Multiplicity = 1
  @DF-RHF Final Energy:  -325.99013768543313
    Total Energy =                       -325.9901376854331261
	 Singles Energy            =      -0.0000000000000000 [Eh]
	 Same-Spin Energy          =      -0.3655035421422655 [Eh]
	 Opposite-Spin Energy      =      -1.1928272056652445 [Eh]
	 Correlation Energy        =      -1.5583307478075099 [Eh]
	 Total Energy              =    -327.5484684332406573 [Eh]
	 SCS Total Energy          =    -327.5433648462788483 [Eh]
    Molecular point group: c1

    Geometry (in Angstrom), charge = 0, multiplicity = 1:

       Center              X                  Y                   Z               Mass
    ------------   -----------------  -----------------  -----------------  -----------------
         C            0.835745661389     1.235112380230    -0.865983495484    12.000000000000
         H            1.425379661389     2.138767380230    -0.938308495484     1.007825032230
         C            1.461617661389    -0.010049619770    -0.903928495484    12.000000000000
         H            2.536573661389    -0.072655619770    -1.002417495484     1.007825032230
         C            0.701448661389    -1.175129619770    -0.809424495484    12.000000000000
         H            1.187349661389    -2.140753619770    -0.833209495484     1.007825032230
         C           -0.684121338611    -1.094601619770    -0.679139495484    12.000000000000
         H           -1.273270338611    -1.998431619770    -0.605485495484     1.007825032230
         C           -1.309980338611     0.150491380230    -0.642443495484    12.000000000000
         H           -2.384802338611     0.212523380230    -0.540981495484     1.007825032230
         C           -0.550030338611     1.315221380230    -0.734595495484    12.000000000000
         H           -1.035304338611     2.281230380230    -0.705097495484     1.007825032230
         N            0.501646661389     0.001053380230     1.821160504516    14.003074004430
         H            0.636265661389     0.045094380230     0.818088504516     1.007825032230
         H            0.643139661389     0.946200380230     2.153632504516     1.007825032230
         C           -0.874452338611    -0.405329619770     2.098595504516    12.000000000000
         H           -1.032329338611    -0.433876619770     3.175151504516     1.007825032230
         H           -1.645754338611     0.235051380230     1.658476504516     1.007825032230
         H           -1.029144338611    -1.414897619770     1.722974504516     1.007825032230

  Charge       = 0
  Multiplicity = 1
  Basis Set: AUG-CC-PVQZ
    Blend: AUG-CC-PVQZ
  Basis Set: (AUG-CC-PVQZ AUX)
    Blend: AUG-CC-PVQZ-JKFIT

    Orbital Energies [Eh]
    ---------------------

    Doubly Occupied:

       1A    -15.505689     2A    -11.241916     3A    -11.241297
       4A    -11.240576     5A    -11.240042     6A    -11.239023
       7A    -11.237932     8A    -11.220649     9A     -1.176335
      10A     -1.137955    11A     -1.026539    12A     -1.024136
      13A     -0.880202    14A     -0.832603    15A     -0.831831
      16A     -0.720719    17A     -0.657250    18A     -0.651895
      19A     -0.626646    20A     -0.600776    21A     -0.596835
      22A     -0.590869    23A     -0.540412    24A     -0.508576
      25A     -0.502344    26A     -0.502120    27A     -0.479058
      28A     -0.375319    29A     -0.343125    30A     -0.338273

  @DF-RHF Final Energy:  -326.00889694300469

   => Energetics <=

    Nuclear Repulsion Energy =            371.6837695633151384
    One-Electron Energy =               -1177.1634414148054475
    Two-Electron Energy =                 479.4707749084856800
    Total Energy =                       -326.0088969430046859

  Dipole Moment: [D]
     X:    -0.8779      Y:     0.8380      Z:    -0.9938     Total:     1.5687

  Basis Set: (AUG-CC-PVQZ AUX)
    Blend: AUG-CC-PVQZ-RI
	 Reference Energy          =    -326.0088969430046859 [Eh]
	 Singles Energy            =      -0.0000000000000000 [Eh]
	 Same-Spin Energy          =      -0.3855166139202635 [Eh]
	 Opposite-Spin Energy      =      -1.3291171570923619 [Eh]
	 Correlation Energy        =      -1.7146337710126254 [Eh]
	 Total Energy              =    -327.7235307140173290 [Eh]

	 ================> DF-SCS-MP2 Energies <==================
	-----------------------------------------------------------
	 SCS Same-Spin Scale       =       0.3333333333333333 [-]
	 SCS Opposite-Spin Scale   =       1.2000000000000000 [-]
	 SCS Same-Spin Energy      =      -0.1285055379734212 [Eh]
	 SCS Opposite-Spin Energy  =      -1.5949405885108343 [Eh]
	 SCS Correlation Energy    =      -1.7234461264842555 [Eh]
	 SCS Total Energy          =    -327.7323430694889339 [Eh]
	-----------------------------------------------------------

*** Psi4 exiting successfully. Buy a developer a beer!
