                               Psi4 1.4a2.dev224

  ==> Input File <==

--------------------------------------------------------------------------
#Generated by lconvert.py for cbs job

memory 20 GB

molecule  {
0 1
  C       0.692320    1.088290    0.324840
  H       1.281950    1.991950    0.252520
  C       1.318190   -0.156870    0.286900
  H       2.393140   -0.219480    0.188410
  C       0.558020   -1.321950    0.381400
  H       1.043920   -2.287570    0.357620
  C      -0.827550   -1.241420    0.511680
  H      -1.416700   -2.145250    0.585340
  C      -1.453410    0.003670    0.548380
  H      -2.528230    0.065700    0.649840
  C      -0.693460    1.168400    0.456230
  H      -1.178740    2.134410    0.485730
--
0 1
  N       0.019260   -0.459450    6.464380
  H       0.153880   -0.415410    5.461310
  H       0.160750    0.485700    6.796860
  C      -1.356840   -0.865830    6.741820
  H      -1.514720   -0.894380    7.818380
  H      -2.128140   -0.225450    6.301700
  H      -1.511530   -1.875400    6.366200
units angstrom
no_reorient
symmetry c1
}

set {
scf_type DF
mp2_type DF
e_convergence 7
reference rhf
}

energy('mp2/aug-cc-pv[tq]z', bsse_type='cp')
--------------------------------------------------------------------------

    Molecular point group: c1
  Charge       = 0
  Multiplicity = 1
  Basis Set: AUG-CC-PVTZ
    Blend: AUG-CC-PVTZ
  Basis Set: (AUG-CC-PVTZ AUX)
    Blend: AUG-CC-PVTZ-JKFIT
  @DF-RHF Final Energy:   -95.25534041227407
    Total Energy =                        -95.2553404122740659
  Basis Set: (AUG-CC-PVTZ AUX)
    Blend: AUG-CC-PVTZ-RI
	 Reference Energy          =     -95.2553404122740659 [Eh]
	 Singles Energy            =      -0.0000000000000000 [Eh]
	 Same-Spin Energy          =      -0.0954239291386464 [Eh]
	 Opposite-Spin Energy      =      -0.3517040231217085 [Eh]
	 Correlation Energy        =      -0.4471279522603548 [Eh]
	 Total Energy              =     -95.7024683645344254 [Eh]
	 SCS Total Energy          =     -95.7091932163996688 [Eh]
    Molecular point group: c1
  Basis Set: AUG-CC-PVQZ
    Blend: AUG-CC-PVQZ
  Basis Set: (AUG-CC-PVQZ AUX)
    Blend: AUG-CC-PVQZ-JKFIT
  @DF-RHF Final Energy:   -95.26132464477170
    Total Energy =                        -95.2613246447717046
  Basis Set: (AUG-CC-PVQZ AUX)
  @DF-RHF Final Energy:   -95.25534822288772
    Total Energy =                        -95.2553482228877186
  @DF-RHF Final Energy:   -95.26132798727841
    Total Energy =                        -95.2613279872784062
  @DF-RHF Final Energy:  -230.78125130555230
    Total Energy =                       -230.7812513055523027
  @DF-RHF Final Energy:  -230.79440741886503
    Total Energy =                       -230.7944074188650347
  @DF-RHF Final Energy:  -230.78122665942840
    Total Energy =                       -230.7812266594283983
  @DF-RHF Final Energy:  -230.79440022069488
    Total Energy =                       -230.7944002206949108
  Multiplicity = 1
  @DF-RHF Final Energy:  -326.03696005379857
    Total Energy =                       -326.0369600537985662
	 Singles Energy            =      -0.0000000000000000 [Eh]
	 Same-Spin Energy          =      -0.3509645058056992 [Eh]
	 Opposite-Spin Energy      =      -1.1704074884098739 [Eh]
	 Correlation Energy        =      -1.5213719942155730 [Eh]
	 Total Energy              =    -327.5583320480141651 [Eh]
	 SCS Total Energy          =    -327.5584372084923075 [Eh]
    Molecular point group: c1

    Geometry (in Angstrom), charge = 0, multiplicity = 1:

       Center              X                  Y                   Z               Mass
    ------------   -----------------  -----------------  -----------------  -----------------
         C            0.932201956216     1.324371238558    -1.848392114818    12.000000000000
         H            1.521831956216     2.228031238558    -1.920712114818     1.007825032230
         C            1.558071956216     0.079211238558    -1.886332114818    12.000000000000
         H            2.633021956216     0.016601238558    -1.984822114818     1.007825032230
         C            0.797901956216    -1.085868761442    -1.791832114818    12.000000000000
         H            1.283801956216    -2.051488761442    -1.815612114818     1.007825032230
         C           -0.587668043784    -1.005338761442    -1.661552114818    12.000000000000
         H           -1.176818043784    -1.909168761442    -1.587892114818     1.007825032230
         C           -1.213528043784     0.239751238558    -1.624852114818    12.000000000000
         H           -2.288348043784     0.301781238558    -1.523392114818     1.007825032230
         C           -0.453578043784     1.404481238558    -1.717002114818    12.000000000000
         H           -0.938858043784     2.370491238558    -1.687502114818     1.007825032230
         N            0.259141956216    -0.223368761442     4.291147885182    14.003074004430
         H            0.393761956216    -0.179328761442     3.288077885182     1.007825032230
         H            0.400631956216     0.721781238558     4.623627885182     1.007825032230
         C           -1.116958043784    -0.629748761442     4.568587885182    12.000000000000
         H           -1.274838043784    -0.658298761442     5.645147885182     1.007825032230
         H           -1.888258043784     0.010631238558     4.128467885182     1.007825032230
         H           -1.271648043784    -1.639318761442     4.192967885182     1.007825032230

  Charge       = 0
  Multiplicity = 1
  Basis Set: AUG-CC-PVQZ
    Blend: AUG-CC-PVQZ
  Basis Set: (AUG-CC-PVQZ AUX)
    Blend: AUG-CC-PVQZ-JKFIT

    Orbital Energies [Eh]
    ---------------------

    Doubly Occupied:

       1A    -15.535100     2A    -11.237645     3A    -11.237063
       4A    -11.237035     5A    -11.236559     6A    -11.235816
       7A    -11.235810     8A    -11.235186     9A     -1.168406
      10A     -1.152312    11A     -1.016857    12A     -1.016784
      13A     -0.892716    14A     -0.826347    15A     -0.826334
      16A     -0.712028    17A     -0.658683    18A     -0.646565
      19A     -0.621446    20A     -0.601797    21A     -0.590511
      22A     -0.590411    23A     -0.552428    24A     -0.513350
      25A     -0.504899    26A     -0.497371    27A     -0.497295
      28A     -0.391388    29A     -0.339342    30A     -0.339291

  @DF-RHF Final Energy:  -326.05609372485947

   => Energetics <=

    Nuclear Repulsion Energy =            307.9641689397714117
    One-Electron Energy =               -1049.7469629235902175
    Two-Electron Energy =                 415.7267002589593403
    Total Energy =                       -326.0560937248594655

  Dipole Moment: [D]
     X:    -0.8647      Y:     0.9369      Z:    -0.7276     Total:     1.4679

  Basis Set: (AUG-CC-PVQZ AUX)
    Blend: AUG-CC-PVQZ-RI
	 Reference Energy          =    -326.0560937248594655 [Eh]
	 Singles Energy            =      -0.0000000000000000 [Eh]
	 Same-Spin Energy          =      -0.3712411583792737 [Eh]
	 Opposite-Spin Energy      =      -1.3108970759913117 [Eh]
	 Correlation Energy        =      -1.6821382343705853 [Eh]
	 Total Energy              =    -327.7382319592300632 [Eh]

	 ================> DF-SCS-MP2 Energies <==================
	-----------------------------------------------------------
	 SCS Same-Spin Scale       =       0.3333333333333333 [-]
	 SCS Opposite-Spin Scale   =       1.2000000000000000 [-]
	 SCS Same-Spin Energy      =      -0.1237470527930912 [Eh]
	 SCS Opposite-Spin Energy  =      -1.5730764911895740 [Eh]
	 SCS Correlation Energy    =      -1.6968235439826653 [Eh]
	 SCS Total Energy          =    -327.7529172688421113 [Eh]
	-----------------------------------------------------------

*** Psi4 exiting successfully. Buy a developer a beer!
