                               Psi4 1.4a2.dev224

  ==> Input File <==

--------------------------------------------------------------------------
#Generated by lconvert.py for cbs job

memory 40 GB

molecule  {
0 1
  C        0.6923150     1.0882920     0.3248410
  H        1.2819490     1.9919470     0.2525160
  C        1.3181870    -0.1568700     0.2868960
  H        2.3931430    -0.2194760     0.1884070
  C        0.5580180    -1.3219500     0.3814000
  H        1.0439190    -2.2875740     0.3576150
  C       -0.8275520    -1.2414220     0.5116850
  H       -1.4167010    -2.1452520     0.5853390
  C       -1.4534110     0.0036710     0.5483810
  H       -2.5282330     0.0657030     0.6498430
  C       -0.6934610     1.1684010     0.4562290
  H       -1.1787350     2.1344100     0.4857270
--
0 1
  N        0.2449170    -0.2506170     4.1659760
  H        0.3795350    -0.2065770     3.1629050
  H        0.3864090     0.6945300     4.4984490
  C       -1.1311830    -0.6570010     4.4434120
  H       -1.2890600    -0.6855480     5.5199680
  H       -1.9024850    -0.0166200     4.0032930
  H       -1.2858750    -1.6665680     4.0677900
units angstrom
no_reorient
symmetry c1
}

set {
scf_type DF
mp2_type DF
e_convergence 7
reference rhf
}

energy('mp2/aug-cc-pv[tq]z', bsse_type='cp')
--------------------------------------------------------------------------

    Molecular point group: c1
  Charge       = 0
  Multiplicity = 1
  Basis Set: AUG-CC-PVTZ
    Blend: AUG-CC-PVTZ
  Basis Set: (AUG-CC-PVTZ AUX)
    Blend: AUG-CC-PVTZ-JKFIT
  @DF-RHF Final Energy:   -95.25534052494766
    Total Energy =                        -95.2553405249476555
  Basis Set: (AUG-CC-PVTZ AUX)
    Blend: AUG-CC-PVTZ-RI
	 Reference Energy          =     -95.2553405249476555 [Eh]
	 Singles Energy            =      -0.0000000000000000 [Eh]
	 Same-Spin Energy          =      -0.0954239149936008 [Eh]
	 Opposite-Spin Energy      =      -0.3517039419818397 [Eh]
	 Correlation Energy        =      -0.4471278569754406 [Eh]
	 Total Energy              =     -95.7024683819230972 [Eh]
	 SCS Total Energy          =     -95.7091932269903936 [Eh]
    Molecular point group: c1
  Basis Set: AUG-CC-PVQZ
    Blend: AUG-CC-PVQZ
  Basis Set: (AUG-CC-PVQZ AUX)
    Blend: AUG-CC-PVQZ-JKFIT
  @DF-RHF Final Energy:   -95.26132476473327
    Total Energy =                        -95.2613247647332742
  Basis Set: (AUG-CC-PVQZ AUX)
  @DF-RHF Final Energy:   -95.25538477109559
    Total Energy =                        -95.2553847710955921
  @DF-RHF Final Energy:   -95.26134029459060
    Total Energy =                        -95.2613402945905960
  @DF-RHF Final Energy:  -230.78138934405828
    Total Energy =                       -230.7813893440582547
  @DF-RHF Final Energy:  -230.79443612874530
    Total Energy =                       -230.7944361287453034
  @DF-RHF Final Energy:  -230.78122658230842
    Total Energy =                       -230.7812265823084203
  @DF-RHF Final Energy:  -230.79440013704800
    Total Energy =                       -230.7944001370480009
  Multiplicity = 1
  @DF-RHF Final Energy:  -326.03705603889358
    Total Energy =                       -326.0370560388935814
	 Singles Energy            =      -0.0000000000000000 [Eh]
	 Same-Spin Energy          =      -0.3534471038119384 [Eh]
	 Opposite-Spin Energy      =      -1.1748799101624350 [Eh]
	 Correlation Energy        =      -1.5283270139743734 [Eh]
	 Total Energy              =    -327.5653830528679578 [Eh]
	 SCS Total Energy          =    -327.5647276323591655 [Eh]
    Molecular point group: c1

    Geometry (in Angstrom), charge = 0, multiplicity = 1:

       Center              X                  Y                   Z               Mass
    ------------   -----------------  -----------------  -----------------  -----------------
         C            0.867985963775     1.264948432900    -1.194361108648    12.000000000000
         H            1.457619963775     2.168603432900    -1.266686108648     1.007825032230
         C            1.493857963775     0.019786432900    -1.232306108648    12.000000000000
         H            2.568813963775    -0.042819567100    -1.330795108648     1.007825032230
         C            0.733688963775    -1.145293567100    -1.137802108648    12.000000000000
         H            1.219589963775    -2.110917567100    -1.161587108648     1.007825032230
         C           -0.651881036225    -1.064765567100    -1.007517108648    12.000000000000
         H           -1.241030036225    -1.968595567100    -0.933863108648     1.007825032230
         C           -1.277740036225     0.180327432900    -0.970821108648    12.000000000000
         H           -2.352562036225     0.242359432900    -0.869359108648     1.007825032230
         C           -0.517790036225     1.345057432900    -1.062973108648    12.000000000000
         H           -1.003064036225     2.311066432900    -1.033475108648     1.007825032230
         N            0.420587963775    -0.073960567100     2.646773891352    14.003074004430
         H            0.555205963775    -0.029920567100     1.643702891352     1.007825032230
         H            0.562079963775     0.871186432900     2.979246891352     1.007825032230
         C           -0.955512036225    -0.480344567100     2.924209891352    12.000000000000
         H           -1.113389036225    -0.508891567100     4.000765891352     1.007825032230
         H           -1.726814036225     0.160036432900     2.484090891352     1.007825032230
         H           -1.110204036225    -1.489911567100     2.548587891352     1.007825032230

  Charge       = 0
  Multiplicity = 1
  Basis Set: AUG-CC-PVQZ
    Blend: AUG-CC-PVQZ
  Basis Set: (AUG-CC-PVQZ AUX)
    Blend: AUG-CC-PVQZ-JKFIT

    Orbital Energies [Eh]
    ---------------------

    Doubly Occupied:

       1A    -15.525831     2A    -11.240877     3A    -11.240238
       4A    -11.240148     5A    -11.239046     6A    -11.238923
       7A    -11.238281     8A    -11.230356     9A     -1.160411
      10A     -1.155643    11A     -1.020315    12A     -1.020243
      13A     -0.885985    14A     -0.829528    15A     -0.829479
      16A     -0.715234    17A     -0.651078    18A     -0.649400
      19A     -0.624680    20A     -0.595385    21A     -0.593600
      22A     -0.593390    23A     -0.545451    24A     -0.511118
      25A     -0.503678    26A     -0.500358    27A     -0.500307
      28A     -0.383405    29A     -0.343290    30A     -0.343102

  @DF-RHF Final Energy:  -326.05606068864012

   => Energetics <=

    Nuclear Repulsion Energy =            340.4069281960914282
    One-Electron Energy =               -1114.6284016881270418
    Two-Electron Energy =                 448.1654128033954407
    Total Energy =                       -326.0560606886401160

  Dipole Moment: [D]
     X:    -0.8309      Y:     0.9129      Z:    -0.9618     Total:     1.5649

  Basis Set: (AUG-CC-PVQZ AUX)
    Blend: AUG-CC-PVQZ-RI
	 Reference Energy          =    -326.0560606886401160 [Eh]
	 Singles Energy            =      -0.0000000000000000 [Eh]
	 Same-Spin Energy          =      -0.3735972130821137 [Eh]
	 Opposite-Spin Energy      =      -1.3138146274034348 [Eh]
	 Correlation Energy        =      -1.6874118404855485 [Eh]
	 Total Energy              =    -327.7434725291256541 [Eh]

	 ================> DF-SCS-MP2 Energies <==================
	-----------------------------------------------------------
	 SCS Same-Spin Scale       =       0.3333333333333333 [-]
	 SCS Opposite-Spin Scale   =       1.2000000000000000 [-]
	 SCS Same-Spin Energy      =      -0.1245324043607046 [Eh]
	 SCS Opposite-Spin Energy  =      -1.5765775528841217 [Eh]
	 SCS Correlation Energy    =      -1.7011099572448263 [Eh]
	 SCS Total Energy          =    -327.7571706458849690 [Eh]
	-----------------------------------------------------------

*** Psi4 exiting successfully. Buy a developer a beer!
