                               Psi4 1.4a2.dev224

  ==> Input File <==

--------------------------------------------------------------------------
#Generated by lconvert.py for cbs job

memory 40 GB

molecule  {
0 1
  C        0.6923150     1.0882920     0.3248410
  H        1.2819490     1.9919470     0.2525160
  C        1.3181870    -0.1568700     0.2868960
  H        2.3931430    -0.2194760     0.1884070
  C        0.5580180    -1.3219500     0.3814000
  H        1.0439190    -2.2875740     0.3576150
  C       -0.8275520    -1.2414220     0.5116850
  H       -1.4167010    -2.1452520     0.5853390
  C       -1.4534110     0.0036710     0.5483810
  H       -2.5282330     0.0657030     0.6498430
  C       -0.6934610     1.1684010     0.4562290
  H       -1.1787350     2.1344100     0.4857270
--
0 1
  N        0.3021850    -0.1976200     3.5826840
  H        0.4368030    -0.1535790     2.5796130
  H        0.4436770     0.7475270     3.9151560
  C       -1.0739150    -0.6040030     3.8601200
  H       -1.2317910    -0.6325500     4.9366750
  H       -1.8452170     0.0363770     3.4200010
  H       -1.2286070    -1.6135710     3.4844980
units angstrom
no_reorient
symmetry c1
}

set {
scf_type DF
mp2_type DF
e_convergence 7
reference rhf
}

energy('mp2/aug-cc-pv[tq]z', bsse_type='cp')
--------------------------------------------------------------------------

    Molecular point group: c1
  Charge       = 0
  Multiplicity = 1
  Basis Set: AUG-CC-PVTZ
    Blend: AUG-CC-PVTZ
  Basis Set: (AUG-CC-PVTZ AUX)
    Blend: AUG-CC-PVTZ-JKFIT
  @DF-RHF Final Energy:   -95.25534052795398
    Total Energy =                        -95.2553405279539760
  Basis Set: (AUG-CC-PVTZ AUX)
    Blend: AUG-CC-PVTZ-RI
	 Reference Energy          =     -95.2553405279539760 [Eh]
	 Singles Energy            =      -0.0000000000000000 [Eh]
	 Same-Spin Energy          =      -0.0954239173593606 [Eh]
	 Opposite-Spin Energy      =      -0.3517039361774613 [Eh]
	 Correlation Energy        =      -0.4471278535368219 [Eh]
	 Total Energy              =     -95.7024683814908030 [Eh]
	 SCS Total Energy          =     -95.7091932238200513 [Eh]
    Molecular point group: c1
  Basis Set: AUG-CC-PVQZ
    Blend: AUG-CC-PVQZ
  Basis Set: (AUG-CC-PVQZ AUX)
    Blend: AUG-CC-PVQZ-JKFIT
  @DF-RHF Final Energy:   -95.26132476898709
    Total Energy =                        -95.2613247689870946
  Basis Set: (AUG-CC-PVQZ AUX)
  @DF-RHF Final Energy:   -95.25541123692267
    Total Energy =                        -95.2554112369226686
  @DF-RHF Final Energy:   -95.26134817304218
    Total Energy =                        -95.2613481730421796
  @DF-RHF Final Energy:  -230.78149434710127
    Total Energy =                       -230.7814943471012725
  @DF-RHF Final Energy:  -230.79445822878247
    Total Energy =                       -230.7944582287825028
  @DF-RHF Final Energy:  -230.78122657950598
    Total Energy =                       -230.7812265795059830
  @DF-RHF Final Energy:  -230.79440013636915
    Total Energy =                       -230.7944001363691200
  Multiplicity = 1
  @DF-RHF Final Energy:  -326.03028786174718
    Total Energy =                       -326.0302878617471833
	 Singles Energy            =      -0.0000000000000000 [Eh]
	 Same-Spin Energy          =      -0.3570019922468279 [Eh]
	 Opposite-Spin Energy      =      -1.1805006130733158 [Eh]
	 Correlation Energy        =      -1.5375026053201437 [Eh]
	 Total Energy              =    -327.5677904670673115 [Eh]
	 SCS Total Energy          =    -327.5658892615174409 [Eh]
    Molecular point group: c1

    Geometry (in Angstrom), charge = 0, multiplicity = 1:

       Center              X                  Y                   Z               Mass
    ------------   -----------------  -----------------  -----------------  -----------------
         C            0.851689882266     1.249867579722    -1.028380637100    12.000000000000
         H            1.441323882266     2.153522579722    -1.100705637100     1.007825032230
         C            1.477561882266     0.004705579722    -1.066325637100    12.000000000000
         H            2.552517882266    -0.057900420278    -1.164814637100     1.007825032230
         C            0.717392882266    -1.160374420278    -0.971821637100    12.000000000000
         H            1.203293882266    -2.125998420278    -0.995606637100     1.007825032230
         C           -0.668177117734    -1.079846420278    -0.841536637100    12.000000000000
         H           -1.257326117734    -1.983676420278    -0.767882637100     1.007825032230
         C           -1.294036117734     0.165246579722    -0.804840637100    12.000000000000
         H           -2.368858117734     0.227278579722    -0.703378637100     1.007825032230
         C           -0.534086117734     1.329976579722    -0.896992637100    12.000000000000
         H           -1.019360117734     2.295985579722    -0.867494637100     1.007825032230
         N            0.461559882266    -0.036044420278     2.229462362900    14.003074004430
         H            0.596177882266     0.007996579722     1.226391362900     1.007825032230
         H            0.603051882266     0.909102579722     2.561934362900     1.007825032230
         C           -0.914540117734    -0.442427420278     2.506898362900    12.000000000000
         H           -1.072416117734    -0.470974420278     3.583453362900     1.007825032230
         H           -1.685842117734     0.197952579722     2.066779362900     1.007825032230
         H           -1.069232117734    -1.451995420278     2.131276362900     1.007825032230

  Charge       = 0
  Multiplicity = 1
  Basis Set: AUG-CC-PVQZ
    Blend: AUG-CC-PVQZ
  Basis Set: (AUG-CC-PVQZ AUX)
    Blend: AUG-CC-PVQZ-JKFIT

    Orbital Energies [Eh]
    ---------------------

    Doubly Occupied:

       1A    -15.518866     2A    -11.241842     3A    -11.241086
       4A    -11.240893     5A    -11.239978     6A    -11.239590
       7A    -11.238980     8A    -11.226451     9A     -1.162155
      10A     -1.151222    11A     -1.022009    12A     -1.021773
      13A     -0.882507    14A     -0.830758    15A     -0.830623
      16A     -0.716773    17A     -0.650621    18A     -0.649565
      19A     -0.625755    20A     -0.596104    21A     -0.594923
      22A     -0.592010    23A     -0.542102    24A     -0.511433
      25A     -0.501468    26A     -0.501321    27A     -0.496630
      28A     -0.378781    29A     -0.344693    30A     -0.344159

  @DF-RHF Final Energy:  -326.04918923610893

   => Energetics <=

    Nuclear Repulsion Energy =            354.2261809996655870
    One-Electron Energy =               -1142.2805926904170519
    Two-Electron Energy =                 462.0052224546425919
    Total Energy =                       -326.0491892361089299

  Dipole Moment: [D]
     X:    -0.8321      Y:     0.8914      Z:    -1.0336     Total:     1.5985

  Basis Set: (AUG-CC-PVQZ AUX)
    Blend: AUG-CC-PVQZ-RI
	 Reference Energy          =    -326.0491892361089299 [Eh]
	 Singles Energy            =      -0.0000000000000000 [Eh]
	 Same-Spin Energy          =      -0.3770760268743366 [Eh]
	 Opposite-Spin Energy      =      -1.3181973898733219 [Eh]
	 Correlation Energy        =      -1.6952734167476584 [Eh]
	 Total Energy              =    -327.7444626528566118 [Eh]

	 ================> DF-SCS-MP2 Energies <==================
	-----------------------------------------------------------
	 SCS Same-Spin Scale       =       0.3333333333333333 [-]
	 SCS Opposite-Spin Scale   =       1.2000000000000000 [-]
	 SCS Same-Spin Energy      =      -0.1256920089581122 [Eh]
	 SCS Opposite-Spin Energy  =      -1.5818368678479862 [Eh]
	 SCS Correlation Energy    =      -1.7075288768060983 [Eh]
	 SCS Total Energy          =    -327.7567181129150526 [Eh]
	-----------------------------------------------------------

*** Psi4 exiting successfully. Buy a developer a beer!
