                               Psi4 1.4a2.dev224

  ==> Input File <==

--------------------------------------------------------------------------
#Generated by lconvert.py for cbs job

memory 20 GB

molecule  {
0 1
  C       0.692320    1.088290    0.324840
  H       1.281950    1.991950    0.252520
  C       1.318190   -0.156870    0.286900
  H       2.393140   -0.219480    0.188410
  C       0.558020   -1.321950    0.381400
  H       1.043920   -2.287570    0.357620
  C      -0.827550   -1.241420    0.511680
  H      -1.416700   -2.145250    0.585340
  C      -1.453410    0.003670    0.548380
  H      -2.528230    0.065700    0.649840
  C      -0.693460    1.168400    0.456230
  H      -1.178740    2.134410    0.485730
--
0 1
  N       0.188500   -0.302830    4.740580
  H       0.323120   -0.258780    3.737510
  H       0.329990    0.642320    5.073050
  C      -1.187600   -0.709210    5.018010
  H      -1.345470   -0.737760    6.094570
  H      -1.958900   -0.068830    4.577890
  H      -1.342290   -1.718780    4.642390
units angstrom
no_reorient
symmetry c1
}

set {
scf_type DF
mp2_type DF
e_convergence 7
reference rhf
}

energy('mp2/aug-cc-pv[tq]z', bsse_type='cp')
--------------------------------------------------------------------------

    Molecular point group: c1
  Charge       = 0
  Multiplicity = 1
  Basis Set: AUG-CC-PVTZ
    Blend: AUG-CC-PVTZ
  Basis Set: (AUG-CC-PVTZ AUX)
    Blend: AUG-CC-PVTZ-JKFIT
  @DF-RHF Final Energy:   -95.25534042006443
    Total Energy =                        -95.2553404200644280
  Basis Set: (AUG-CC-PVTZ AUX)
    Blend: AUG-CC-PVTZ-RI
	 Reference Energy          =     -95.2553404200644280 [Eh]
	 Singles Energy            =      -0.0000000000000000 [Eh]
	 Same-Spin Energy          =      -0.0954239359637240 [Eh]
	 Opposite-Spin Energy      =      -0.3517039943796942 [Eh]
	 Correlation Energy        =      -0.4471279303434182 [Eh]
	 Total Energy              =     -95.7024683504078411 [Eh]
	 SCS Total Energy          =     -95.7091931919746344 [Eh]
    Molecular point group: c1
  Basis Set: AUG-CC-PVQZ
    Blend: AUG-CC-PVQZ
  Basis Set: (AUG-CC-PVQZ AUX)
    Blend: AUG-CC-PVQZ-JKFIT
  @DF-RHF Final Energy:   -95.26132465863050
    Total Energy =                        -95.2613246586304996
  Basis Set: (AUG-CC-PVQZ AUX)
  @DF-RHF Final Energy:   -95.25536907528033
    Total Energy =                        -95.2553690752803277
  @DF-RHF Final Energy:   -95.26133552631870
    Total Energy =                        -95.2613355263187032
  @DF-RHF Final Energy:  -230.78132157350225
    Total Energy =                       -230.7813215735022254
  @DF-RHF Final Energy:  -230.79442151973151
    Total Energy =                       -230.7944215197315430
  @DF-RHF Final Energy:  -230.78122666019198
    Total Energy =                       -230.7812266601919760
  @DF-RHF Final Energy:  -230.79440022406914
    Total Energy =                       -230.7944002240691361
  Multiplicity = 1
  @DF-RHF Final Energy:  -326.03763173629596
    Total Energy =                       -326.0376317362959639
	 Singles Energy            =      -0.0000000000000000 [Eh]
	 Same-Spin Energy          =      -0.3520099404441276 [Eh]
	 Opposite-Spin Energy      =      -1.1723176876330932 [Eh]
	 Correlation Energy        =      -1.5243276280772209 [Eh]
	 Total Energy              =    -327.5619593643731946 [Eh]
	 SCS Total Energy          =    -327.5617496082703610 [Eh]
    Molecular point group: c1

    Geometry (in Angstrom), charge = 0, multiplicity = 1:

       Center              X                  Y                   Z               Mass
    ------------   -----------------  -----------------  -----------------  -----------------
         C            0.884043253945     1.279803659288    -1.357869422606    12.000000000000
         H            1.473673253945     2.183463659288    -1.430189422606     1.007825032230
         C            1.509913253945     0.034643659288    -1.395809422606    12.000000000000
         H            2.584863253945    -0.027966340712    -1.494299422606     1.007825032230
         C            0.749743253945    -1.130436340712    -1.301309422606    12.000000000000
         H            1.235643253945    -2.096056340712    -1.325089422606     1.007825032230
         C           -0.635826746055    -1.049906340712    -1.171029422606    12.000000000000
         H           -1.224976746055    -1.953736340712    -1.097369422606     1.007825032230
         C           -1.261686746055     0.195183659288    -1.134329422606    12.000000000000
         H           -2.336506746055     0.257213659288    -1.032869422606     1.007825032230
         C           -0.501736746055     1.359913659288    -1.226479422606    12.000000000000
         H           -0.987016746055     2.325923659288    -1.196979422606     1.007825032230
         N            0.380223253945    -0.111316340712     3.057870577394    14.003074004430
         H            0.514843253945    -0.067266340712     2.054800577394     1.007825032230
         H            0.521713253945     0.833833659288     3.390340577394     1.007825032230
         C           -0.995876746055    -0.517696340712     3.335300577394    12.000000000000
         H           -1.153746746055    -0.546246340712     4.411860577394     1.007825032230
         H           -1.767176746055     0.122683659288     2.895180577394     1.007825032230
         H           -1.150566746055    -1.527266340712     2.959680577394     1.007825032230

  Charge       = 0
  Multiplicity = 1
  Basis Set: AUG-CC-PVQZ
    Blend: AUG-CC-PVQZ
  Basis Set: (AUG-CC-PVQZ AUX)
    Blend: AUG-CC-PVQZ-JKFIT

    Orbital Energies [Eh]
    ---------------------

    Doubly Occupied:

       1A    -15.529782     2A    -11.239793     3A    -11.239195
       4A    -11.239126     5A    -11.237959     6A    -11.237917
       7A    -11.237274     8A    -11.232873     9A     -1.163413
      10A     -1.154669    11A     -1.019074    12A     -1.019017
      13A     -0.888658    14A     -0.828436    15A     -0.828408
      16A     -0.714104    17A     -0.653818    18A     -0.648458
      19A     -0.623587    20A     -0.597615    21A     -0.592546
      22A     -0.592472    23A     -0.548197    24A     -0.510222
      25A     -0.506478    26A     -0.499354    27A     -0.499302
      28A     -0.386676    29A     -0.341832    30A     -0.341717

  @DF-RHF Final Energy:  -326.05669603409592

   => Energetics <=

    Nuclear Repulsion Energy =            329.6597471170502445
    One-Electron Energy =               -1093.1289329896883373
    Two-Electron Energy =                 437.4124898385421147
    Total Energy =                       -326.0566960340959213

  Dipole Moment: [D]
     X:    -0.8384      Y:     0.9237      Z:    -0.8777     Total:     1.5253

  Basis Set: (AUG-CC-PVQZ AUX)
    Blend: AUG-CC-PVQZ-RI
	 Reference Energy          =    -326.0566960340959213 [Eh]
	 Singles Energy            =      -0.0000000000000000 [Eh]
	 Same-Spin Energy          =      -0.3722087811208170 [Eh]
	 Opposite-Spin Energy      =      -1.3120779399968587 [Eh]
	 Correlation Energy        =      -1.6842867211176757 [Eh]
	 Total Energy              =    -327.7409827552136221 [Eh]

	 ================> DF-SCS-MP2 Energies <==================
	-----------------------------------------------------------
	 SCS Same-Spin Scale       =       0.3333333333333333 [-]
	 SCS Opposite-Spin Scale   =       1.2000000000000000 [-]
	 SCS Same-Spin Energy      =      -0.1240695937069390 [Eh]
	 SCS Opposite-Spin Energy  =      -1.5744935279962304 [Eh]
	 SCS Correlation Energy    =      -1.6985631217031694 [Eh]
	 SCS Total Energy          =    -327.7552591557990809 [Eh]
	-----------------------------------------------------------

*** Psi4 exiting successfully. Buy a developer a beer!
