                               Psi4 1.4a2.dev224

  ==> Input File <==

--------------------------------------------------------------------------
#Generated by lconvert.py for cbs job

memory 20 GB

molecule  {
0 1
  C       0.408780    1.051030    0.375540
  H       1.011940    1.948550    0.368080
  C       1.019170   -0.199770    0.289050
  H       2.095570   -0.271830    0.217190
  C       0.241720   -1.356880    0.296690
  H       0.715220   -2.326590    0.228070
  C      -1.146180   -1.264260    0.393900
  H      -1.749180   -2.161930    0.399410
  C      -1.757280   -0.013960    0.482950
  H      -2.833510    0.058240    0.559040
  C      -0.979690    1.144210    0.472280
  H      -1.454050    2.114000    0.537140
--
0 1
  C       0.285460    2.049170    6.404660
  H      -0.072690    2.214900    5.391370
  H       1.310040    2.405880    6.486100
  H      -0.318640    2.622800    7.103010
  C       0.248610    0.596000    6.820370
  O       0.533240    0.243640    7.958910
  N      -0.123790   -0.269710    5.841130
  H      -0.284910    0.088280    4.915060
  C      -0.160580   -1.696590    6.059220
  H      -0.082490   -1.863500    7.129210
  H      -1.095820   -2.114940    5.692480
  H       0.668550   -2.200470    5.561880
units angstrom
no_reorient
symmetry c1
}

set {
scf_type DF
mp2_type DF
e_convergence 7
reference rhf
}

energy('mp2/aug-cc-pv[tq]z', bsse_type='cp')
--------------------------------------------------------------------------

    Molecular point group: c1
  Charge       = 0
  Multiplicity = 1
  Basis Set: AUG-CC-PVTZ
    Blend: AUG-CC-PVTZ
  Basis Set: (AUG-CC-PVTZ AUX)
    Blend: AUG-CC-PVTZ-JKFIT
  @DF-RHF Final Energy:  -247.10266580753895
    Total Energy =                       -247.1026658075389832
  Basis Set: (AUG-CC-PVTZ AUX)
    Blend: AUG-CC-PVTZ-RI
	 Reference Energy          =    -247.1026658075389548 [Eh]
	 Singles Energy            =      -0.0000000000000000 [Eh]
	 Same-Spin Energy          =      -0.2464383897052858 [Eh]
	 Opposite-Spin Energy      =      -0.8098093232596706 [Eh]
	 Correlation Energy        =      -1.0562477129649563 [Eh]
	 Total Energy              =    -248.1589135205039156 [Eh]
	 SCS Total Energy          =    -248.1565831253523129 [Eh]
    Molecular point group: c1
  Basis Set: AUG-CC-PVQZ
    Blend: AUG-CC-PVQZ
  Basis Set: (AUG-CC-PVQZ AUX)
    Blend: AUG-CC-PVQZ-JKFIT
  @DF-RHF Final Energy:  -247.11811530552694
    Total Energy =                       -247.1181153055269419
  Basis Set: (AUG-CC-PVQZ AUX)
  @DF-RHF Final Energy:  -247.10268568602581
    Total Energy =                       -247.1026856860257794
  @DF-RHF Final Energy:  -247.11812148411352
    Total Energy =                       -247.1181214841134874
  @DF-RHF Final Energy:  -230.78120921061597
    Total Energy =                       -230.7812092106159412
  @DF-RHF Final Energy:  -230.79434619470331
    Total Energy =                       -230.7943461947033370
  @DF-RHF Final Energy:  -230.78116218176828
    Total Energy =                       -230.7811621817682521
  @DF-RHF Final Energy:  -230.79433281798217
    Total Energy =                       -230.7943328179821378
  Multiplicity = 1
  @DF-RHF Final Energy:  -477.88506914498419
    Total Energy =                       -477.8850691449841861
	 Singles Energy            =      -0.0000000000000000 [Eh]
	 Same-Spin Energy          =      -0.5022152552796733 [Eh]
	 Opposite-Spin Energy      =      -1.6290930384112146 [Eh]
	 Correlation Energy        =      -2.1313082936908878 [Eh]
	 Total Energy              =    -480.0163774386750788 [Eh]
	 SCS Total Energy          =    -480.0073858761708721 [Eh]
    Molecular point group: c1

    Geometry (in Angstrom), charge = 0, multiplicity = 1:

       Center              X                  Y                   Z               Mass
    ------------   -----------------  -----------------  -----------------  -----------------
         C            0.523872979838     1.022273895271    -3.020685649232    12.000000000000
         H            1.127032979838     1.919793895271    -3.028145649232     1.007825032230
         C            1.134262979838    -0.228526104729    -3.107175649232    12.000000000000
         H            2.210662979838    -0.300586104729    -3.179035649232     1.007825032230
         C            0.356812979838    -1.385636104729    -3.099535649232    12.000000000000
         H            0.830312979838    -2.355346104729    -3.168155649232     1.007825032230
         C           -1.031087020162    -1.293016104729    -3.002325649232    12.000000000000
         H           -1.634087020162    -2.190686104729    -2.996815649232     1.007825032230
         C           -1.642187020162    -0.042716104729    -2.913275649232    12.000000000000
         H           -2.718417020162     0.029483895271    -2.837185649232     1.007825032230
         C           -0.864597020162     1.115453895271    -2.923945649232    12.000000000000
         H           -1.338957020162     2.085243895271    -2.859085649232     1.007825032230
         C            0.400552979838     2.020413895271     3.008434350768    12.000000000000
         H            0.042402979838     2.186143895271     1.995144350768     1.007825032230
         H            1.425132979838     2.377123895271     3.089874350768     1.007825032230
         H           -0.203547020162     2.594043895271     3.706784350768     1.007825032230
         C            0.363702979838     0.567243895271     3.424144350768    12.000000000000
         O            0.648332979838     0.214883895271     4.562684350768    15.994914619570
         N           -0.008697020162    -0.298466104729     2.444904350768    14.003074004430
         H           -0.169817020162     0.059523895271     1.518834350768     1.007825032230
         C           -0.045487020162    -1.725346104729     2.662994350768    12.000000000000
         H            0.032602979838    -1.892256104729     3.732984350768     1.007825032230
         H           -0.980727020162    -2.143696104729     2.296254350768     1.007825032230
         H            0.783642979838    -2.229226104729     2.165654350768     1.007825032230

  Charge       = 0
  Multiplicity = 1
  Basis Set: AUG-CC-PVQZ
    Blend: AUG-CC-PVQZ
  Basis Set: (AUG-CC-PVQZ AUX)
    Blend: AUG-CC-PVQZ-JKFIT

    Orbital Energies [Eh]
    ---------------------

    Doubly Occupied:

       1A    -20.504556     2A    -15.580937     3A    -11.342705
       4A    -11.251302     5A    -11.244813     6A    -11.244181
       7A    -11.244117     8A    -11.242989     9A    -11.242892
      10A    -11.242249    11A    -11.230478    12A     -1.368876
      13A     -1.226890    14A     -1.159137    15A     -1.023731
      16A     -1.023674    17A     -1.014820    18A     -0.928129
      19A     -0.833243    20A     -0.833173    21A     -0.786014
      22A     -0.718797    23A     -0.686735    24A     -0.653468
      25A     -0.648905    26A     -0.629824    27A     -0.628244
      28A     -0.597323    29A     -0.597272    30A     -0.583598
      31A     -0.576802    32A     -0.551442    33A     -0.541551
      34A     -0.511985    35A     -0.504209    36A     -0.504173
      37A     -0.500483    38A     -0.417017    39A     -0.388057
      40A     -0.346445    41A     -0.346403

  @DF-RHF Final Energy:  -477.91363446766417

   => Energetics <=

    Nuclear Repulsion Energy =            521.8371582299696456
    One-Electron Energy =               -1682.4982946938198438
    Two-Electron Energy =                 682.7475019961860880
    Total Energy =                       -477.9136344676641102

  Dipole Moment: [D]
     X:    -0.9538      Y:     0.3598      Z:    -4.2926     Total:     4.4120

  Basis Set: (AUG-CC-PVQZ AUX)
    Blend: AUG-CC-PVQZ-RI
	 Reference Energy          =    -477.9136344676641670 [Eh]
	 Singles Energy            =      -0.0000000000000000 [Eh]
	 Same-Spin Energy          =      -0.5316258766306929 [Eh]
	 Opposite-Spin Energy      =      -1.8288109310059024 [Eh]
	 Correlation Energy        =      -2.3604368076365954 [Eh]
	 Total Energy              =    -480.2740712753007415 [Eh]

	 ================> DF-SCS-MP2 Energies <==================
	-----------------------------------------------------------
	 SCS Same-Spin Scale       =       0.3333333333333333 [-]
	 SCS Opposite-Spin Scale   =       1.2000000000000000 [-]
	 SCS Same-Spin Energy      =      -0.1772086255435643 [Eh]
	 SCS Opposite-Spin Energy  =      -2.1945731172070828 [Eh]
	 SCS Correlation Energy    =      -2.3717817427506471 [Eh]
	 SCS Total Energy          =    -480.2854162104148372 [Eh]
	-----------------------------------------------------------

*** Psi4 exiting successfully. Buy a developer a beer!
