                               Psi4 1.4a2.dev224

  ==> Input File <==

--------------------------------------------------------------------------
#Generated by lconvert.py for cbs job

memory 20 GB

molecule  {
0 1
  C       0.408780    1.051030    0.375540
  H       1.011940    1.948550    0.368080
  C       1.019170   -0.199770    0.289050
  H       2.095570   -0.271830    0.217190
  C       0.241720   -1.356880    0.296690
  H       0.715220   -2.326590    0.228070
  C      -1.146180   -1.264260    0.393900
  H      -1.749180   -2.161930    0.399410
  C      -1.757280   -0.013960    0.482950
  H      -2.833510    0.058240    0.559040
  C      -0.979690    1.144210    0.472280
  H      -1.454050    2.114000    0.537140
--
0 1
  C       0.264780    2.001210    5.290020
  H      -0.093360    2.166950    4.276730
  H       1.289370    2.357920    5.371460
  H      -0.339310    2.574850    5.988370
  C       0.227940    0.548050    5.705730
  O       0.512570    0.195690    6.844270
  N      -0.144460   -0.317670    4.726490
  H      -0.305580    0.040320    3.800420
  C      -0.181250   -1.744550    4.944580
  H      -0.103160   -1.911450    6.014570
  H      -1.116490   -2.162890    4.577840
  H       0.647880   -2.248420    4.447240
units angstrom
no_reorient
symmetry c1
}

set {
scf_type DF
mp2_type DF
e_convergence 7
reference rhf
}

energy('mp2/aug-cc-pv[tq]z', bsse_type='cp')
--------------------------------------------------------------------------

    Molecular point group: c1
  Charge       = 0
  Multiplicity = 1
  Basis Set: AUG-CC-PVTZ
    Blend: AUG-CC-PVTZ
  Basis Set: (AUG-CC-PVTZ AUX)
    Blend: AUG-CC-PVTZ-JKFIT
  @DF-RHF Final Energy:  -247.10266575802356
    Total Energy =                       -247.1026657580235906
  Basis Set: (AUG-CC-PVTZ AUX)
    Blend: AUG-CC-PVTZ-RI
	 Reference Energy          =    -247.1026657580235621 [Eh]
	 Singles Energy            =      -0.0000000000000000 [Eh]
	 Same-Spin Energy          =      -0.2464384579256505 [Eh]
	 Opposite-Spin Energy      =      -0.8098094031117178 [Eh]
	 Correlation Energy        =      -1.0562478610373682 [Eh]
	 Total Energy              =    -248.1589136190609395 [Eh]
	 SCS Total Energy          =    -248.1565831943995022 [Eh]
    Molecular point group: c1
  Basis Set: AUG-CC-PVQZ
    Blend: AUG-CC-PVQZ
  Basis Set: (AUG-CC-PVQZ AUX)
    Blend: AUG-CC-PVQZ-JKFIT
  @DF-RHF Final Energy:  -247.11811525302707
    Total Energy =                       -247.1181152530270992
  Basis Set: (AUG-CC-PVQZ AUX)
  @DF-RHF Final Energy:  -247.10272160837383
    Total Energy =                       -247.1027216083738267
  @DF-RHF Final Energy:  -247.11812941634457
    Total Energy =                       -247.1181294163445727
  @DF-RHF Final Energy:  -230.78128090599716
    Total Energy =                       -230.7812809059971642
  @DF-RHF Final Energy:  -230.79436013649007
    Total Energy =                       -230.7943601364900701
  @DF-RHF Final Energy:  -230.78116217905747
    Total Energy =                       -230.7811621790574463
  @DF-RHF Final Energy:  -230.79433281628258
    Total Energy =                       -230.7943328162825765
  Multiplicity = 1
  @DF-RHF Final Energy:  -477.88618802314033
    Total Energy =                       -477.8861880231403347
	 Singles Energy            =      -0.0000000000000000 [Eh]
	 Same-Spin Energy          =      -0.5032651955585055 [Eh]
	 Opposite-Spin Energy      =      -1.6312909091585550 [Eh]
	 Correlation Energy        =      -2.1345561047170607 [Eh]
	 Total Energy              =    -480.0207441278573697 [Eh]
	 SCS Total Energy          =    -480.0114921793167468 [Eh]
    Molecular point group: c1

    Geometry (in Angstrom), charge = 0, multiplicity = 1:

       Center              X                  Y                   Z               Mass
    ------------   -----------------  -----------------  -----------------  -----------------
         C            0.533867178956     1.045459115945    -2.481786332228    12.000000000000
         H            1.137027178956     1.942979115945    -2.489246332228     1.007825032230
         C            1.144257178956    -0.205340884055    -2.568276332228    12.000000000000
         H            2.220657178956    -0.277400884055    -2.640136332228     1.007825032230
         C            0.366807178956    -1.362450884055    -2.560636332228    12.000000000000
         H            0.840307178956    -2.332160884055    -2.629256332228     1.007825032230
         C           -1.021092821044    -1.269830884055    -2.463426332228    12.000000000000
         H           -1.624092821044    -2.167500884055    -2.457916332228     1.007825032230
         C           -1.632192821044    -0.019530884055    -2.374376332228    12.000000000000
         H           -2.708422821044     0.052669115945    -2.298286332228     1.007825032230
         C           -0.854602821044     1.138639115945    -2.385046332228    12.000000000000
         H           -1.328962821044     2.108429115945    -2.320186332228     1.007825032230
         C            0.389867178956     1.995639115945     2.432693667772    12.000000000000
         H            0.031727178956     2.161379115945     1.419403667772     1.007825032230
         H            1.414457178956     2.352349115945     2.514133667772     1.007825032230
         H           -0.214222821044     2.569279115945     3.131043667772     1.007825032230
         C            0.353027178956     0.542479115945     2.848403667772    12.000000000000
         O            0.637657178956     0.190119115945     3.986943667772    15.994914619570
         N           -0.019372821044    -0.323240884055     1.869163667772    14.003074004430
         H           -0.180492821044     0.034749115945     0.943093667772     1.007825032230
         C           -0.056162821044    -1.750120884055     2.087253667772    12.000000000000
         H            0.021927178956    -1.917020884055     3.157243667772     1.007825032230
         H           -0.991402821044    -2.168460884055     1.720513667772     1.007825032230
         H            0.772967178956    -2.253990884055     1.589913667772     1.007825032230

  Charge       = 0
  Multiplicity = 1
  Basis Set: AUG-CC-PVQZ
    Blend: AUG-CC-PVQZ
  Basis Set: (AUG-CC-PVQZ AUX)
    Blend: AUG-CC-PVQZ-JKFIT

    Orbital Energies [Eh]
    ---------------------

    Doubly Occupied:

       1A    -20.501959     2A    -15.577168     3A    -11.339998
       4A    -11.248716     5A    -11.248687     6A    -11.248035
       7A    -11.247923     8A    -11.246873     9A    -11.246709
      10A    -11.246037    11A    -11.228210    12A     -1.366280
      13A     -1.223464    14A     -1.163282    15A     -1.027687
      16A     -1.027661    17A     -1.012304    18A     -0.925423
      19A     -0.837046    20A     -0.836957    21A     -0.782417
      22A     -0.722567    23A     -0.684110    24A     -0.657009
      25A     -0.646198    26A     -0.632119    27A     -0.627080
      28A     -0.601057    29A     -0.601016    30A     -0.581243
      31A     -0.574374    32A     -0.548817    33A     -0.538880
      34A     -0.516323    35A     -0.507876    36A     -0.507847
      37A     -0.498107    38A     -0.414526    39A     -0.384928
      40A     -0.350800    41A     -0.350538

  @DF-RHF Final Energy:  -477.91466951429288

   => Energetics <=

    Nuclear Repulsion Energy =            548.9742814919524108
    One-Electron Energy =               -1736.7213904233362882
    Two-Electron Energy =                 709.8324394170911091
    Total Energy =                       -477.9146695142928820

  Dipole Moment: [D]
     X:    -0.9603      Y:     0.3330      Z:    -4.4960     Total:     4.6095

  Basis Set: (AUG-CC-PVQZ AUX)
    Blend: AUG-CC-PVQZ-RI
	 Reference Energy          =    -477.9146695142928820 [Eh]
	 Singles Energy            =      -0.0000000000000000 [Eh]
	 Same-Spin Energy          =      -0.5325840515818565 [Eh]
	 Opposite-Spin Energy      =      -1.8300017159587876 [Eh]
	 Correlation Energy        =      -2.3625857675406441 [Eh]
	 Total Energy              =    -480.2772552818335043 [Eh]

	 ================> DF-SCS-MP2 Energies <==================
	-----------------------------------------------------------
	 SCS Same-Spin Scale       =       0.3333333333333333 [-]
	 SCS Opposite-Spin Scale   =       1.2000000000000000 [-]
	 SCS Same-Spin Energy      =      -0.1775280171939522 [Eh]
	 SCS Opposite-Spin Energy  =      -2.1960020591505449 [Eh]
	 SCS Correlation Energy    =      -2.3735300763444971 [Eh]
	 SCS Total Energy          =    -480.2881995906373618 [Eh]
	-----------------------------------------------------------

*** Psi4 exiting successfully. Buy a developer a beer!
