                               Psi4 1.4a2.dev224

  ==> Input File <==

--------------------------------------------------------------------------
#Generated by lconvert.py for cbs job

memory 40 GB

molecule  {
0 1
  C        0.4087800     1.0510250     0.3755360
  H        1.0119390     1.9485460     0.3680780
  C        1.0191680    -0.1997700     0.2890530
  H        2.0955710    -0.2718330     0.2171910
  C        0.2417230    -1.3568830     0.2966900
  H        0.7152160    -2.3265890     0.2280720
  C       -1.1461800    -1.2642580     0.3939020
  H       -1.7491820    -2.1619270     0.3994100
  C       -1.7572780    -0.0139600     0.4829520
  H       -2.8335140     0.0582440     0.5590390
  C       -0.9796860     1.1442070     0.4722840
  H       -1.4540510     2.1140010     0.5371360
--
0 1
  C        0.2482040     1.9627480     4.3958760
  H       -0.1099410     2.1284790     3.3825830
  H        1.2727870     2.3194570     4.4773170
  H       -0.3558930     2.5363840     5.0942280
  C        0.2113580     0.5095850     4.8115840
  O        0.4959860     0.1572230     5.9501230
  N       -0.1610380    -0.3561320     3.8323430
  H       -0.3221660     0.0018590     2.9062750
  C       -0.1978310    -1.7830110     4.0504300
  H       -0.1197430    -1.9499190     5.1204270
  H       -1.1330710    -2.2013620     3.6836920
  H        0.6312960    -2.2868840     3.5530930
units angstrom
no_reorient
symmetry c1
}

set {
scf_type DF
mp2_type DF
e_convergence 7
reference rhf
}

energy('mp2/aug-cc-pv[tq]z', bsse_type='cp')
--------------------------------------------------------------------------

    Molecular point group: c1
  Charge       = 0
  Multiplicity = 1
  Basis Set: AUG-CC-PVTZ
    Blend: AUG-CC-PVTZ
  Basis Set: (AUG-CC-PVTZ AUX)
    Blend: AUG-CC-PVTZ-JKFIT
  @DF-RHF Final Energy:  -247.10266581001869
    Total Energy =                       -247.1026658100187205
  Basis Set: (AUG-CC-PVTZ AUX)
    Blend: AUG-CC-PVTZ-RI
	 Reference Energy          =    -247.1026658100186921 [Eh]
	 Singles Energy            =      -0.0000000000000000 [Eh]
	 Same-Spin Energy          =      -0.2464384361631450 [Eh]
	 Opposite-Spin Energy      =      -0.8098093607256047 [Eh]
	 Correlation Energy        =      -1.0562477968887498 [Eh]
	 Total Energy              =    -248.1589136069074470 [Eh]
	 SCS Total Energy          =    -248.1565831882771249 [Eh]
    Molecular point group: c1
  Basis Set: AUG-CC-PVQZ
    Blend: AUG-CC-PVQZ
  Basis Set: (AUG-CC-PVQZ AUX)
    Blend: AUG-CC-PVQZ-JKFIT
  @DF-RHF Final Energy:  -247.11811530653068
    Total Energy =                       -247.1181153065306830
  Basis Set: (AUG-CC-PVQZ AUX)
  @DF-RHF Final Energy:  -247.10278936101349
    Total Energy =                       -247.1027893610134925
  @DF-RHF Final Energy:  -247.11814267454258
    Total Energy =                       -247.1181426745425824
  @DF-RHF Final Energy:  -230.78141710131072
    Total Energy =                       -230.7814171013107511
  @DF-RHF Final Energy:  -230.79438848858828
    Total Energy =                       -230.7943884885882539
  @DF-RHF Final Energy:  -230.78116231498007
    Total Energy =                       -230.7811623149800653
  @DF-RHF Final Energy:  -230.79433295973558
    Total Energy =                       -230.7943329597355842
  Multiplicity = 1
  @DF-RHF Final Energy:  -477.88492974913311
    Total Energy =                       -477.8849297491331072
	 Singles Energy            =      -0.0000000000000000 [Eh]
	 Same-Spin Energy          =      -0.5065486406032098 [Eh]
	 Opposite-Spin Energy      =      -1.6371850093711486 [Eh]
	 Correlation Energy        =      -2.1437336499743584 [Eh]
	 Total Energy              =    -480.0286633991074723 [Eh]
	 SCS Total Energy          =    -480.0184013072462221 [Eh]
    Molecular point group: c1

    Geometry (in Angstrom), charge = 0, multiplicity = 1:

       Center              X                  Y                   Z               Mass
    ------------   -----------------  -----------------  -----------------  -----------------
         C            0.541882991932     1.064051090998    -2.049494321786    12.000000000000
         H            1.145041991932     1.961572090998    -2.056952321786     1.007825032230
         C            1.152270991932    -0.186743909002    -2.135977321786    12.000000000000
         H            2.228673991932    -0.258806909002    -2.207839321786     1.007825032230
         C            0.374825991932    -1.343856909002    -2.128340321786    12.000000000000
         H            0.848318991932    -2.313562909002    -2.196958321786     1.007825032230
         C           -1.013077008068    -1.251231909002    -2.031128321786    12.000000000000
         H           -1.616079008068    -2.148900909002    -2.025620321786     1.007825032230
         C           -1.624175008068    -0.000933909002    -1.942078321786    12.000000000000
         H           -2.700411008068     0.071270090998    -1.865991321786     1.007825032230
         C           -0.846583008068     1.157233090998    -1.952746321786    12.000000000000
         H           -1.320948008068     2.127027090998    -1.887894321786     1.007825032230
         C            0.381306991932     1.975774090998     1.970845678214    12.000000000000
         H            0.023161991932     2.141505090998     0.957552678214     1.007825032230
         H            1.405889991932     2.332483090998     2.052286678214     1.007825032230
         H           -0.222790008068     2.549410090998     2.669197678214     1.007825032230
         C            0.344460991932     0.522611090998     2.386553678214    12.000000000000
         O            0.629088991932     0.170249090998     3.525092678214    15.994914619570
         N           -0.027935008068    -0.343105909002     1.407312678214    14.003074004430
         H           -0.189063008068     0.014885090998     0.481244678214     1.007825032230
         C           -0.064728008068    -1.769984909002     1.625399678214    12.000000000000
         H            0.013359991932    -1.936892909002     2.695396678214     1.007825032230
         H           -0.999968008068    -2.188335909002     1.258661678214     1.007825032230
         H            0.764398991932    -2.273857909002     1.128062678214     1.007825032230

  Charge       = 0
  Multiplicity = 1
  Basis Set: AUG-CC-PVQZ
    Blend: AUG-CC-PVQZ
  Basis Set: (AUG-CC-PVQZ AUX)
    Blend: AUG-CC-PVQZ-JKFIT

    Orbital Energies [Eh]
    ---------------------

    Doubly Occupied:

       1A    -20.497725     2A    -15.570426     3A    -11.335614
       4A    -11.253105     5A    -11.252378     6A    -11.252148
       7A    -11.251227     8A    -11.250969     9A    -11.250238
      10A    -11.244949    11A    -11.224635    12A     -1.362105
      13A     -1.218150    14A     -1.168527    15A     -1.032686
      16A     -1.032385    17A     -1.008479    18A     -0.921508
      19A     -0.841484    20A     -0.841368    21A     -0.777603
      22A     -0.727084    23A     -0.680476    24A     -0.661053
      25A     -0.642182    26A     -0.636570    27A     -0.623065
      28A     -0.605582    29A     -0.605354    30A     -0.577930
      31A     -0.571912    32A     -0.545141    33A     -0.536116
      34A     -0.518776    35A     -0.512150    36A     -0.511985
      37A     -0.494491    38A     -0.410630    39A     -0.380749
      40A     -0.356123    41A     -0.354926

  @DF-RHF Final Energy:  -477.91325204888278

   => Energetics <=

    Nuclear Repulsion Energy =            579.2304902821956603
    One-Electron Energy =               -1797.2074708676202590
    Two-Electron Energy =                 740.0637285365418165
    Total Energy =                       -477.9132520488827822

  Dipole Moment: [D]
     X:    -0.9805      Y:     0.3013      Z:    -4.7487     Total:     4.8583

  Basis Set: (AUG-CC-PVQZ AUX)
    Blend: AUG-CC-PVQZ-RI
	 Reference Energy          =    -477.9132520488827822 [Eh]
	 Singles Energy            =      -0.0000000000000000 [Eh]
	 Same-Spin Energy          =      -0.5357284900933630 [Eh]
	 Opposite-Spin Energy      =      -1.8339841183356049 [Eh]
	 Correlation Energy        =      -2.3697126084289679 [Eh]
	 Total Energy              =    -480.2829646573117657 [Eh]

	 ================> DF-SCS-MP2 Energies <==================
	-----------------------------------------------------------
	 SCS Same-Spin Scale       =       0.3333333333333333 [-]
	 SCS Opposite-Spin Scale   =       1.2000000000000000 [-]
	 SCS Same-Spin Energy      =      -0.1785761633644543 [Eh]
	 SCS Opposite-Spin Energy  =      -2.2007809420027260 [Eh]
	 SCS Correlation Energy    =      -2.3793571053671805 [Eh]
	 SCS Total Energy          =    -480.2926091542499876 [Eh]
	-----------------------------------------------------------

*** Psi4 exiting successfully. Buy a developer a beer!
