                               Psi4 1.4a2.dev224

  ==> Input File <==

--------------------------------------------------------------------------
#Generated by lconvert.py for cbs job

memory 40 GB

molecule  {
0 1
  C        0.4087800     1.0510250     0.3755360
  H        1.0119390     1.9485460     0.3680780
  C        1.0191680    -0.1997700     0.2890530
  H        2.0955710    -0.2718330     0.2171910
  C        0.2417230    -1.3568830     0.2966900
  H        0.7152160    -2.3265890     0.2280720
  C       -1.1461800    -1.2642580     0.3939020
  H       -1.7491820    -2.1619270     0.3994100
  C       -1.7572780    -0.0139600     0.4829520
  H       -2.8335140     0.0582440     0.5590390
  C       -0.9796860     1.1442070     0.4722840
  H       -1.4540510     2.1140010     0.5371360
--
0 1
  C        0.2424550     1.9494120     4.0858800
  H       -0.1156900     2.1151420     3.0725870
  H        1.2670390     2.3061210     4.1673220
  H       -0.3616420     2.5230470     4.7842330
  C        0.2056090     0.4962490     4.5015890
  O        0.4902370     0.1438870     5.6401270
  N       -0.1667860    -0.3694680     3.5223480
  H       -0.3279140    -0.0114770     2.5962790
  C       -0.2035790    -1.7963470     3.7404350
  H       -0.1254920    -1.9632550     4.8104310
  H       -1.1388200    -2.2146980     3.3736970
  H        0.6255470    -2.3002200     3.2430970
units angstrom
no_reorient
symmetry c1
}

set {
scf_type DF
mp2_type DF
e_convergence 7
reference rhf
}

energy('mp2/aug-cc-pv[tq]z', bsse_type='cp')
--------------------------------------------------------------------------

    Molecular point group: c1
  Charge       = 0
  Multiplicity = 1
  Basis Set: AUG-CC-PVTZ
    Blend: AUG-CC-PVTZ
  Basis Set: (AUG-CC-PVTZ AUX)
    Blend: AUG-CC-PVTZ-JKFIT
  @DF-RHF Final Energy:  -247.10266586702843
    Total Energy =                       -247.1026658670284064
  Basis Set: (AUG-CC-PVTZ AUX)
    Blend: AUG-CC-PVTZ-RI
	 Reference Energy          =    -247.1026658670284348 [Eh]
	 Singles Energy            =      -0.0000000000000000 [Eh]
	 Same-Spin Energy          =      -0.2464384197115168 [Eh]
	 Opposite-Spin Energy      =      -0.8098093215659324 [Eh]
	 Correlation Energy        =      -1.0562477412774491 [Eh]
	 Total Energy              =    -248.1589136083058804 [Eh]
	 SCS Total Energy          =    -248.1565831928113823 [Eh]
    Molecular point group: c1
  Basis Set: AUG-CC-PVQZ
    Blend: AUG-CC-PVQZ
  Basis Set: (AUG-CC-PVQZ AUX)
    Blend: AUG-CC-PVQZ-JKFIT
  @DF-RHF Final Energy:  -247.11811536884704
    Total Energy =                       -247.1181153688470431
  Basis Set: (AUG-CC-PVQZ AUX)
  @DF-RHF Final Energy:  -247.10282314685216
    Total Energy =                       -247.1028231468521312
  @DF-RHF Final Energy:  -247.11815054196111
    Total Energy =                       -247.1181505419610858
  @DF-RHF Final Energy:  -230.78147664690533
    Total Energy =                       -230.7814766469053325
  @DF-RHF Final Energy:  -230.79440211844135
    Total Energy =                       -230.7944021184413828
  @DF-RHF Final Energy:  -230.78116232115516
    Total Energy =                       -230.7811623211551364
  @DF-RHF Final Energy:  -230.79433296012346
    Total Energy =                       -230.7943329601234836
  Multiplicity = 1
  @DF-RHF Final Energy:  -477.88019895991187
    Total Energy =                       -477.8801989599119224
	 Singles Energy            =      -0.0000000000000000 [Eh]
	 Same-Spin Energy          =      -0.5091431516399820 [Eh]
	 Opposite-Spin Energy      =      -1.6412166126840200 [Eh]
	 Correlation Energy        =      -2.1503597643240022 [Eh]
	 Total Energy              =    -480.0305587242358456 [Eh]
	 SCS Total Energy          =    -480.0193732790127115 [Eh]
    Molecular point group: c1

    Geometry (in Angstrom), charge = 0, multiplicity = 1:

       Center              X                  Y                   Z               Mass
    ------------   -----------------  -----------------  -----------------  -----------------
         C            0.544662297792     1.070498711898    -1.899619626793    12.000000000000
         H            1.147821297792     1.968019711898    -1.907077626793     1.007825032230
         C            1.155050297792    -0.180296288102    -1.986102626793    12.000000000000
         H            2.231453297792    -0.252359288102    -2.057964626793     1.007825032230
         C            0.377605297792    -1.337409288102    -1.978465626793    12.000000000000
         H            0.851098297792    -2.307115288102    -2.047083626793     1.007825032230
         C           -1.010297702208    -1.244784288102    -1.881253626793    12.000000000000
         H           -1.613299702208    -2.142453288102    -1.875745626793     1.007825032230
         C           -1.621395702208     0.005513711898    -1.792203626793    12.000000000000
         H           -2.697631702208     0.077717711898    -1.716116626793     1.007825032230
         C           -0.843803702208     1.163680711898    -1.802871626793    12.000000000000
         H           -1.318168702208     2.133474711898    -1.738019626793     1.007825032230
         C            0.378337297792     1.968885711898     1.810724373207    12.000000000000
         H            0.020192297792     2.134615711898     0.797431373207     1.007825032230
         H            1.402921297792     2.325594711898     1.892166373207     1.007825032230
         H           -0.225759702208     2.542520711898     2.509077373207     1.007825032230
         C            0.341491297792     0.515722711898     2.226433373207    12.000000000000
         O            0.626119297792     0.163360711898     3.364971373207    15.994914619570
         N           -0.030903702208    -0.349994288102     1.247192373207    14.003074004430
         H           -0.192031702208     0.007996711898     0.321123373207     1.007825032230
         C           -0.067696702208    -1.776873288102     1.465279373207    12.000000000000
         H            0.010390297792    -1.943781288102     2.535275373207     1.007825032230
         H           -1.002937702208    -2.195224288102     1.098541373207     1.007825032230
         H            0.761429297792    -2.280746288102     0.967941373207     1.007825032230

  Charge       = 0
  Multiplicity = 1
  Basis Set: AUG-CC-PVQZ
    Blend: AUG-CC-PVQZ
  Basis Set: (AUG-CC-PVQZ AUX)
    Blend: AUG-CC-PVQZ-JKFIT

    Orbital Energies [Eh]
    ---------------------

    Doubly Occupied:

       1A    -20.495463     2A    -15.566362     3A    -11.333300
       4A    -11.254658     5A    -11.253923     6A    -11.253571
       7A    -11.252746     8A    -11.252421     9A    -11.251644
      10A    -11.243240    11A    -11.222765    12A     -1.359928
      13A     -1.215924    14A     -1.170788    15A     -1.035034
      16A     -1.034378    17A     -1.006608    18A     -0.919839
      19A     -0.843266    20A     -0.843142    21A     -0.776398
      22A     -0.728958    23A     -0.679124    24A     -0.662679
      25A     -0.640516    26A     -0.638174    27A     -0.621309
      28A     -0.607524    29A     -0.607150    30A     -0.576553
      31A     -0.571984    32A     -0.543698    33A     -0.535771
      34A     -0.516156    35A     -0.513817    36A     -0.513560
      37A     -0.492725    38A     -0.408712    39A     -0.380039
      40A     -0.357964    41A     -0.355360

  @DF-RHF Final Energy:  -477.90844844798107

   => Energetics <=

    Nuclear Repulsion Energy =            592.2492571849948035
    One-Electron Energy =               -1823.2410628425011510
    Two-Electron Energy =                 753.0833572095252748
    Total Energy =                       -477.9084484479810726

  Dipole Moment: [D]
     X:    -0.9950      Y:     0.2879      Z:    -4.8332     Total:     4.9430

  Basis Set: (AUG-CC-PVQZ AUX)
    Blend: AUG-CC-PVQZ-RI
	 Reference Energy          =    -477.9084484479810726 [Eh]
	 Singles Energy            =      -0.0000000000000000 [Eh]
	 Same-Spin Energy          =      -0.5382503721771040 [Eh]
	 Opposite-Spin Energy      =      -1.8372058858538236 [Eh]
	 Correlation Energy        =      -2.3754562580309275 [Eh]
	 Total Energy              =    -480.2839047060119810 [Eh]

	 ================> DF-SCS-MP2 Energies <==================
	-----------------------------------------------------------
	 SCS Same-Spin Scale       =       0.3333333333333333 [-]
	 SCS Opposite-Spin Scale   =       1.2000000000000000 [-]
	 SCS Same-Spin Energy      =      -0.1794167907257013 [Eh]
	 SCS Opposite-Spin Energy  =      -2.2046470630245882 [Eh]
	 SCS Correlation Energy    =      -2.3840638537502894 [Eh]
	 SCS Total Energy          =    -480.2925123017313354 [Eh]
	-----------------------------------------------------------

*** Psi4 exiting successfully. Buy a developer a beer!
