                               Psi4 1.4a2.dev224

  ==> Input File <==

--------------------------------------------------------------------------
#Generated by lconvert.py for cbs job

memory 40 GB

molecule  {
0 1
  C        0.4087800     1.0510250     0.3755360
  H        1.0119390     1.9485460     0.3680780
  C        1.0191680    -0.1997700     0.2890530
  H        2.0955710    -0.2718330     0.2171910
  C        0.2417230    -1.3568830     0.2966900
  H        0.7152160    -2.3265890     0.2280720
  C       -1.1461800    -1.2642580     0.3939020
  H       -1.7491820    -2.1619270     0.3994100
  C       -1.7572780    -0.0139600     0.4829520
  H       -2.8335140     0.0582440     0.5590390
  C       -0.9796860     1.1442070     0.4722840
  H       -1.4540510     2.1140010     0.5371360
--
0 1
  C        0.2453550     1.9561400     4.2422730
  H       -0.1127900     2.1218710     3.2289800
  H        1.2699390     2.3128490     4.3237150
  H       -0.3587410     2.5297760     4.9406260
  C        0.2085090     0.5029770     4.6579820
  O        0.4931380     0.1506150     5.7965200
  N       -0.1638860    -0.3627400     3.6787410
  H       -0.3250140    -0.0047490     2.7526720
  C       -0.2006790    -1.7896190     3.8968280
  H       -0.1225910    -1.9565270     4.9668240
  H       -1.1359200    -2.2079700     3.5300900
  H        0.6284470    -2.2934920     3.3994900
units angstrom
no_reorient
symmetry c1
}

set {
scf_type DF
mp2_type DF
e_convergence 7
reference rhf
}

energy('mp2/aug-cc-pv[tq]z', bsse_type='cp')
--------------------------------------------------------------------------

    Molecular point group: c1
  Charge       = 0
  Multiplicity = 1
  Basis Set: AUG-CC-PVTZ
    Blend: AUG-CC-PVTZ
  Basis Set: (AUG-CC-PVTZ AUX)
    Blend: AUG-CC-PVTZ-JKFIT
  @DF-RHF Final Energy:  -247.10266584224982
    Total Energy =                       -247.1026658422498485
  Basis Set: (AUG-CC-PVTZ AUX)
    Blend: AUG-CC-PVTZ-RI
	 Reference Energy          =    -247.1026658422498201 [Eh]
	 Singles Energy            =      -0.0000000000000000 [Eh]
	 Same-Spin Energy          =      -0.2464384249139139 [Eh]
	 Opposite-Spin Energy      =      -0.8098093354344587 [Eh]
	 Correlation Energy        =      -1.0562477603483726 [Eh]
	 Total Energy              =    -248.1589136025982043 [Eh]
	 SCS Total Energy          =    -248.1565831864091365 [Eh]
    Molecular point group: c1
  Basis Set: AUG-CC-PVQZ
    Blend: AUG-CC-PVQZ
  Basis Set: (AUG-CC-PVQZ AUX)
    Blend: AUG-CC-PVQZ-JKFIT
  @DF-RHF Final Energy:  -247.11811534270487
    Total Energy =                       -247.1181153427048685
  Basis Set: (AUG-CC-PVQZ AUX)
  @DF-RHF Final Energy:  -247.10280538713218
    Total Energy =                       -247.1028053871322072
  @DF-RHF Final Energy:  -247.11814626157985
    Total Energy =                       -247.1181462615798523
  @DF-RHF Final Energy:  -230.78144530249534
    Total Energy =                       -230.7814453024953423
  @DF-RHF Final Energy:  -230.79439497750553
    Total Energy =                       -230.7943949775055330
  @DF-RHF Final Energy:  -230.78116231663134
    Total Energy =                       -230.7811623166313097
  @DF-RHF Final Energy:  -230.79433295875214
    Total Energy =                       -230.7943329587521362
  Multiplicity = 1
  @DF-RHF Final Energy:  -477.88321928795085
    Total Energy =                       -477.8832192879508511
	 Singles Energy            =      -0.0000000000000000 [Eh]
	 Same-Spin Energy          =      -0.5076860579335369 [Eh]
	 Opposite-Spin Energy      =      -1.6389795529717404 [Eh]
	 Correlation Energy        =      -2.1466656109052771 [Eh]
	 Total Energy              =    -480.0298848988561531 [Eh]
	 SCS Total Energy          =    -480.0192234374947589 [Eh]
    Molecular point group: c1

    Geometry (in Angstrom), charge = 0, multiplicity = 1:

       Center              X                  Y                   Z               Mass
    ------------   -----------------  -----------------  -----------------  -----------------
         C            0.543260104366     1.067245886346    -1.975231556101    12.000000000000
         H            1.146419104366     1.964766886346    -1.982689556101     1.007825032230
         C            1.153648104366    -0.183549113654    -2.061714556101    12.000000000000
         H            2.230051104366    -0.255612113654    -2.133576556101     1.007825032230
         C            0.376203104366    -1.340662113654    -2.054077556101    12.000000000000
         H            0.849696104366    -2.310368113654    -2.122695556101     1.007825032230
         C           -1.011699895634    -1.248037113654    -1.956865556101    12.000000000000
         H           -1.614701895634    -2.145706113654    -1.951357556101     1.007825032230
         C           -1.622797895634     0.002260886346    -1.867815556101    12.000000000000
         H           -2.699033895634     0.074464886346    -1.791728556101     1.007825032230
         C           -0.845205895634     1.160427886346    -1.878483556101    12.000000000000
         H           -1.319570895634     2.130221886346    -1.813631556101     1.007825032230
         C            0.379835104366     1.972360886346     1.891505443899    12.000000000000
         H            0.021690104366     2.138091886346     0.878212443899     1.007825032230
         H            1.404419104366     2.329069886346     1.972947443899     1.007825032230
         H           -0.224260895634     2.545996886346     2.589858443899     1.007825032230
         C            0.342989104366     0.519197886346     2.307214443899    12.000000000000
         O            0.627618104366     0.166835886346     3.445752443899    15.994914619570
         N           -0.029405895634    -0.346519113654     1.327973443899    14.003074004430
         H           -0.190533895634     0.011471886346     0.401904443899     1.007825032230
         C           -0.066198895634    -1.773398113654     1.546060443899    12.000000000000
         H            0.011889104366    -1.940306113654     2.616056443899     1.007825032230
         H           -1.001439895634    -2.191749113654     1.179322443899     1.007825032230
         H            0.762927104366    -2.277271113654     1.048722443899     1.007825032230

  Charge       = 0
  Multiplicity = 1
  Basis Set: AUG-CC-PVQZ
    Blend: AUG-CC-PVQZ
  Basis Set: (AUG-CC-PVQZ AUX)
    Blend: AUG-CC-PVQZ-JKFIT

    Orbital Energies [Eh]
    ---------------------

    Doubly Occupied:

       1A    -20.496669     2A    -15.568577     3A    -11.334531
       4A    -11.253889     5A    -11.253157     6A    -11.252877
       7A    -11.251998     8A    -11.251712     9A    -11.250962
      10A    -11.244125    11A    -11.223760    12A     -1.361083
      13A     -1.217019    14A     -1.169630    15A     -1.033784
      16A     -1.033347    17A     -1.007592    18A     -0.920682
      19A     -0.842354    20A     -0.842234    21A     -0.776877
      22A     -0.728000    23A     -0.679783    24A     -0.661843
      25A     -0.641335    26A     -0.637392    27A     -0.622204
      28A     -0.606513    29A     -0.606223    30A     -0.577246
      31A     -0.571816    32A     -0.544422    33A     -0.535891
      34A     -0.517910    35A     -0.512971    36A     -0.512767
      37A     -0.493651    38A     -0.409716    39A     -0.380217
      40A     -0.357085    41A     -0.355354

  @DF-RHF Final Energy:  -477.91150722565385

   => Energetics <=

    Nuclear Repulsion Energy =            585.4886480841555567
    One-Electron Energy =               -1809.7219042711544716
    Two-Electron Energy =                 746.3217489613450653
    Total Energy =                       -477.9115072256538497

  Dipole Moment: [D]
     X:    -0.9870      Y:     0.2949      Z:    -4.7926     Total:     4.9021

  Basis Set: (AUG-CC-PVQZ AUX)
    Blend: AUG-CC-PVQZ-RI
	 Reference Energy          =    -477.9115072256538497 [Eh]
	 Singles Energy            =      -0.0000000000000000 [Eh]
	 Same-Spin Energy          =      -0.5368314988648335 [Eh]
	 Opposite-Spin Energy      =      -1.8353886177546452 [Eh]
	 Correlation Energy        =      -2.3722201166194790 [Eh]
	 Total Energy              =    -480.2837273422733233 [Eh]

	 ================> DF-SCS-MP2 Energies <==================
	-----------------------------------------------------------
	 SCS Same-Spin Scale       =       0.3333333333333333 [-]
	 SCS Opposite-Spin Scale   =       1.2000000000000000 [-]
	 SCS Same-Spin Energy      =      -0.1789438329549445 [Eh]
	 SCS Opposite-Spin Energy  =      -2.2024663413055743 [Eh]
	 SCS Correlation Energy    =      -2.3814101742605187 [Eh]
	 SCS Total Energy          =    -480.2929173999143586 [Eh]
	-----------------------------------------------------------

*** Psi4 exiting successfully. Buy a developer a beer!
