                               Psi4 1.4a2.dev224

  ==> Input File <==

--------------------------------------------------------------------------
#Generated by lconvert.py for cbs job

memory 40 GB

molecule  {
0 1
  C        0.4087800     1.0510250     0.3755360
  H        1.0119390     1.9485460     0.3680780
  C        1.0191680    -0.1997700     0.2890530
  H        2.0955710    -0.2718330     0.2171910
  C        0.2417230    -1.3568830     0.2966900
  H        0.7152160    -2.3265890     0.2280720
  C       -1.1461800    -1.2642580     0.3939020
  H       -1.7491820    -2.1619270     0.3994100
  C       -1.7572780    -0.0139600     0.4829520
  H       -2.8335140     0.0582440     0.5590390
  C       -0.9796860     1.1442070     0.4722840
  H       -1.4540510     2.1140010     0.5371360
--
0 1
  C        0.2394840     1.9425190     3.9256670
  H       -0.1186610     2.1082500     2.9123740
  H        1.2640680     2.2992290     4.0071080
  H       -0.3646130     2.5161550     4.6240190
  C        0.2026380     0.4893560     4.3413750
  O        0.4872660     0.1369950     5.4799140
  N       -0.1697570    -0.3763610     3.3621340
  H       -0.3308850    -0.0183700     2.4360660
  C       -0.2065500    -1.8032400     3.5802210
  H       -0.1284630    -1.9701470     4.6502180
  H       -1.1417910    -2.2215900     3.2134830
  H        0.6225760    -2.3071130     3.0828840
units angstrom
no_reorient
symmetry c1
}

set {
scf_type DF
mp2_type DF
e_convergence 7
reference rhf
}

energy('mp2/aug-cc-pv[tq]z', bsse_type='cp')
--------------------------------------------------------------------------

    Molecular point group: c1
  Charge       = 0
  Multiplicity = 1
  Basis Set: AUG-CC-PVTZ
    Blend: AUG-CC-PVTZ
  Basis Set: (AUG-CC-PVTZ AUX)
    Blend: AUG-CC-PVTZ-JKFIT
  @DF-RHF Final Energy:  -247.10266583630647
    Total Energy =                       -247.1026658363064712
  Basis Set: (AUG-CC-PVTZ AUX)
    Blend: AUG-CC-PVTZ-RI
	 Reference Energy          =    -247.1026658363064712 [Eh]
	 Singles Energy            =      -0.0000000000000000 [Eh]
	 Same-Spin Energy          =      -0.2464384278161573 [Eh]
	 Opposite-Spin Energy      =      -0.8098093448406745 [Eh]
	 Correlation Energy        =      -1.0562477726568318 [Eh]
	 Total Energy              =    -248.1589136089633030 [Eh]
	 SCS Total Energy          =    -248.1565831927206602 [Eh]
    Molecular point group: c1
  Basis Set: AUG-CC-PVQZ
    Blend: AUG-CC-PVQZ
  Basis Set: (AUG-CC-PVQZ AUX)
    Blend: AUG-CC-PVQZ-JKFIT
  @DF-RHF Final Energy:  -247.11811533531201
    Total Energy =                       -247.1181153353120408
  Basis Set: (AUG-CC-PVQZ AUX)
  @DF-RHF Final Energy:  -247.10284322178538
    Total Energy =                       -247.1028432217853492
  @DF-RHF Final Energy:  -247.11815548457434
    Total Energy =                       -247.1181554845743449
  @DF-RHF Final Energy:  -230.78151175190629
    Total Energy =                       -230.7815117519062937
  @DF-RHF Final Energy:  -230.79440954789962
    Total Energy =                       -230.7944095478995905
  @DF-RHF Final Energy:  -230.78116231470381
    Total Energy =                       -230.7811623147038063
  @DF-RHF Final Energy:  -230.79433295949477
    Total Energy =                       -230.7943329594947386
  Multiplicity = 1
  @DF-RHF Final Energy:  -477.87500144237958
    Total Energy =                       -477.8750014423795847
	 Singles Energy            =      -0.0000000000000000 [Eh]
	 Same-Spin Energy          =      -0.5110279283450192 [Eh]
	 Opposite-Spin Energy      =      -1.6440624217088355 [Eh]
	 Correlation Energy        =      -2.1550903500538547 [Eh]
	 Total Energy              =    -480.0300917924334385 [Eh]
	 SCS Total Energy          =    -480.0182189912118815 [Eh]
    Molecular point group: c1

    Geometry (in Angstrom), charge = 0, multiplicity = 1:

       Center              X                  Y                   Z               Mass
    ------------   -----------------  -----------------  -----------------  -----------------
         C            0.546098698666     1.073831158094    -1.822160555773    12.000000000000
         H            1.149257698666     1.971352158094    -1.829618555773     1.007825032230
         C            1.156486698666    -0.176963841906    -1.908643555773    12.000000000000
         H            2.232889698666    -0.249026841906    -1.980505555773     1.007825032230
         C            0.379041698666    -1.334076841906    -1.901006555773    12.000000000000
         H            0.852534698666    -2.303782841906    -1.969624555773     1.007825032230
         C           -1.008861301334    -1.241451841906    -1.803794555773    12.000000000000
         H           -1.611863301334    -2.139120841906    -1.798286555773     1.007825032230
         C           -1.619959301334     0.008846158094    -1.714744555773    12.000000000000
         H           -2.696195301334     0.081050158094    -1.638657555773     1.007825032230
         C           -0.842367301334     1.167013158094    -1.725412555773    12.000000000000
         H           -1.316732301334     2.136807158094    -1.660560555773     1.007825032230
         C            0.376802698666     1.965325158094     1.727970444227    12.000000000000
         H            0.018657698666     2.131056158094     0.714677444227     1.007825032230
         H            1.401386698666     2.322035158094     1.809411444227     1.007825032230
         H           -0.227294301334     2.538961158094     2.426322444227     1.007825032230
         C            0.339956698666     0.512162158094     2.143678444227    12.000000000000
         O            0.624584698666     0.159801158094     3.282217444227    15.994914619570
         N           -0.032438301334    -0.353554841906     1.164437444227    14.003074004430
         H           -0.193566301334     0.004436158094     0.238369444227     1.007825032230
         C           -0.069231301334    -1.780433841906     1.382524444227    12.000000000000
         H            0.008855698666    -1.947340841906     2.452521444227     1.007825032230
         H           -1.004472301334    -2.198783841906     1.015786444227     1.007825032230
         H            0.759894698666    -2.284306841906     0.885187444227     1.007825032230

  Charge       = 0
  Multiplicity = 1
  Basis Set: AUG-CC-PVQZ
    Blend: AUG-CC-PVQZ
  Basis Set: (AUG-CC-PVQZ AUX)
    Blend: AUG-CC-PVQZ-JKFIT

    Orbital Energies [Eh]
    ---------------------

    Doubly Occupied:

       1A    -20.494076     2A    -15.563667     3A    -11.331889
       4A    -11.255398     5A    -11.254658     6A    -11.254204
       7A    -11.253447     8A    -11.253066     9A    -11.252246
      10A    -11.242294    11A    -11.221619    12A     -1.358620
      13A     -1.215051    14A     -1.171941    15A     -1.036526
      16A     -1.035503    17A     -1.005503    18A     -0.919024
      19A     -0.844233    20A     -0.844104    21A     -0.776401
      22A     -0.729930    23A     -0.678549    24A     -0.663579
      25A     -0.640076    26A     -0.638594    27A     -0.620406
      28A     -0.608648    29A     -0.608160    30A     -0.575885
      31A     -0.572478    32A     -0.542962    33A     -0.535712
      34A     -0.514737    35A     -0.514451    36A     -0.513089
      37A     -0.491705    38A     -0.407616    39A     -0.380484
      40A     -0.358647    41A     -0.354649

  @DF-RHF Final Energy:  -477.90320524814547

   => Energetics <=

    Nuclear Repulsion Energy =            599.6158178269291739
    One-Electron Energy =               -1837.9704015181471277
    Two-Electron Energy =                 760.4513784430725991
    Total Energy =                       -477.9032052481454684

  Dipole Moment: [D]
     X:    -1.0050      Y:     0.2801      Z:    -4.8678     Total:     4.9783

  Basis Set: (AUG-CC-PVQZ AUX)
    Blend: AUG-CC-PVQZ-RI
	 Reference Energy          =    -477.9032052481454684 [Eh]
	 Singles Energy            =      -0.0000000000000000 [Eh]
	 Same-Spin Energy          =      -0.5400950702289684 [Eh]
	 Opposite-Spin Energy      =      -1.8395890422353316 [Eh]
	 Correlation Energy        =      -2.3796841124643002 [Eh]
	 Total Energy              =    -480.2828893606097722 [Eh]

	 ================> DF-SCS-MP2 Energies <==================
	-----------------------------------------------------------
	 SCS Same-Spin Scale       =       0.3333333333333333 [-]
	 SCS Opposite-Spin Scale   =       1.2000000000000000 [-]
	 SCS Same-Spin Energy      =      -0.1800316900763228 [Eh]
	 SCS Opposite-Spin Energy  =      -2.2075068506823978 [Eh]
	 SCS Correlation Energy    =      -2.3875385407587206 [Eh]
	 SCS Total Energy          =    -480.2907437889041944 [Eh]
	-----------------------------------------------------------

*** Psi4 exiting successfully. Buy a developer a beer!
