                               Psi4 1.4a2.dev224

  ==> Input File <==

--------------------------------------------------------------------------
#Generated by lconvert.py for cbs job

memory 40 GB

molecule  {
0 1
  C        0.4087800     1.0510250     0.3755360
  H        1.0119390     1.9485460     0.3680780
  C        1.0191680    -0.1997700     0.2890530
  H        2.0955710    -0.2718330     0.2171910
  C        0.2417230    -1.3568830     0.2966900
  H        0.7152160    -2.3265890     0.2280720
  C       -1.1461800    -1.2642580     0.3939020
  H       -1.7491820    -2.1619270     0.3994100
  C       -1.7572780    -0.0139600     0.4829520
  H       -2.8335140     0.0582440     0.5590390
  C       -0.9796860     1.1442070     0.4722840
  H       -1.4540510     2.1140010     0.5371360
--
0 1
  C        0.2510050     1.9692460     4.5469300
  H       -0.1071400     2.1349770     3.5336370
  H        1.2755890     2.3259560     4.6283710
  H       -0.3530920     2.5428820     5.2452830
  C        0.2141590     0.5160830     4.9626390
  O        0.4987870     0.1637220     6.1011770
  N       -0.1582370    -0.3496340     3.9833980
  H       -0.3193650     0.0083570     3.0573290
  C       -0.1950290    -1.7765130     4.2014850
  H       -0.1169420    -1.9434200     5.2714810
  H       -1.1302700    -2.1948630     3.8347470
  H        0.6340970    -2.2803860     3.7041470
units angstrom
no_reorient
symmetry c1
}

set {
scf_type DF
mp2_type DF
e_convergence 7
reference rhf
}

energy('mp2/aug-cc-pv[tq]z', bsse_type='cp')
--------------------------------------------------------------------------

    Molecular point group: c1
  Charge       = 0
  Multiplicity = 1
  Basis Set: AUG-CC-PVTZ
    Blend: AUG-CC-PVTZ
  Basis Set: (AUG-CC-PVTZ AUX)
    Blend: AUG-CC-PVTZ-JKFIT
  @DF-RHF Final Energy:  -247.10266587686451
    Total Energy =                       -247.1026658768644779
  Basis Set: (AUG-CC-PVTZ AUX)
    Blend: AUG-CC-PVTZ-RI
	 Reference Energy          =    -247.1026658768645063 [Eh]
	 Singles Energy            =      -0.0000000000000000 [Eh]
	 Same-Spin Energy          =      -0.2464384133912194 [Eh]
	 Opposite-Spin Energy      =      -0.8098093165005669 [Eh]
	 Correlation Energy        =      -1.0562477298917863 [Eh]
	 Total Energy              =    -248.1589136067563004 [Eh]
	 SCS Total Energy          =    -248.1565831944622573 [Eh]
    Molecular point group: c1
  Basis Set: AUG-CC-PVQZ
    Blend: AUG-CC-PVQZ
  Basis Set: (AUG-CC-PVQZ AUX)
    Blend: AUG-CC-PVQZ-JKFIT
  @DF-RHF Final Energy:  -247.11811537890742
    Total Energy =                       -247.1181153789074187
  Basis Set: (AUG-CC-PVQZ AUX)
  @DF-RHF Final Energy:  -247.10277486234986
    Total Energy =                       -247.1027748623498610
  @DF-RHF Final Energy:  -247.11813980767852
    Total Energy =                       -247.1181398076785172
  @DF-RHF Final Energy:  -230.78139056603641
    Total Energy =                       -230.7813905660364071
  @DF-RHF Final Energy:  -230.79438276826519
    Total Energy =                       -230.7943827682651659
  @DF-RHF Final Energy:  -230.78116231408711
    Total Energy =                       -230.7811623140871120
  @DF-RHF Final Energy:  -230.79433295871812
    Total Energy =                       -230.7943329587181438
  Multiplicity = 1
  @DF-RHF Final Energy:  -477.88584524451318
    Total Energy =                       -477.8858452445131206
	 Singles Energy            =      -0.0000000000000000 [Eh]
	 Same-Spin Energy          =      -0.5056564107639800 [Eh]
	 Opposite-Spin Energy      =      -1.6357208643480636 [Eh]
	 Correlation Energy        =      -2.1413772751120437 [Eh]
	 Total Energy              =    -480.0272225196252407 [Eh]
	 SCS Total Energy          =    -480.0172624186521944 [Eh]
    Molecular point group: c1

    Geometry (in Angstrom), charge = 0, multiplicity = 1:

       Center              X                  Y                   Z               Mass
    ------------   -----------------  -----------------  -----------------  -----------------
         C            0.540528695528     1.060909351909    -2.122525248940    12.000000000000
         H            1.143687695528     1.958430351909    -2.129983248940     1.007825032230
         C            1.150916695528    -0.189885648091    -2.209008248940    12.000000000000
         H            2.227319695528    -0.261948648091    -2.280870248940     1.007825032230
         C            0.373471695528    -1.346998648091    -2.201371248940    12.000000000000
         H            0.846964695528    -2.316704648091    -2.269989248940     1.007825032230
         C           -1.014431304472    -1.254373648091    -2.104159248940    12.000000000000
         H           -1.617433304472    -2.152042648091    -2.098651248940     1.007825032230
         C           -1.625529304472    -0.004075648091    -2.015109248940    12.000000000000
         H           -2.701765304472     0.068128351909    -1.939022248940     1.007825032230
         C           -0.847937304472     1.154091351909    -2.025777248940    12.000000000000
         H           -1.322302304472     2.123885351909    -1.960925248940     1.007825032230
         C            0.382753695528     1.979130351909     2.048868751060    12.000000000000
         H            0.024608695528     2.144861351909     1.035575751060     1.007825032230
         H            1.407337695528     2.335840351909     2.130309751060     1.007825032230
         H           -0.221343304472     2.552766351909     2.747221751060     1.007825032230
         C            0.345907695528     0.525967351909     2.464577751060    12.000000000000
         O            0.630535695528     0.173606351909     3.603115751060    15.994914619570
         N           -0.026488304472    -0.339749648091     1.485336751060    14.003074004430
         H           -0.187616304472     0.018241351909     0.559267751060     1.007825032230
         C           -0.063280304472    -1.766628648091     1.703423751060    12.000000000000
         H            0.014806695528    -1.933535648091     2.773419751060     1.007825032230
         H           -0.998521304472    -2.184978648091     1.336685751060     1.007825032230
         H            0.765845695528    -2.270501648091     1.206085751060     1.007825032230

  Charge       = 0
  Multiplicity = 1
  Basis Set: AUG-CC-PVQZ
    Blend: AUG-CC-PVQZ
  Basis Set: (AUG-CC-PVQZ AUX)
    Blend: AUG-CC-PVQZ-JKFIT

    Orbital Energies [Eh]
    ---------------------

    Doubly Occupied:

       1A    -20.498652     2A    -15.571985     3A    -11.336568
       4A    -11.252324     5A    -11.251602     6A    -11.251407
       7A    -11.250454     8A    -11.250218     9A    -11.249502
      10A    -11.245708    11A    -11.225406    12A     -1.363010
      13A     -1.219234    14A     -1.167497    15A     -1.031695
      16A     -1.031482    17A     -1.009279    18A     -0.922290
      19A     -0.840655    20A     -0.840543    21A     -0.778436
      22A     -0.726220    23A     -0.681166    24A     -0.660300
      25A     -0.642991    26A     -0.635758    27A     -0.623874
      28A     -0.604714    29A     -0.604535    30A     -0.578582
      31A     -0.572190    32A     -0.545843    33A     -0.536458
      34A     -0.518996    35A     -0.511358    36A     -0.511227
      37A     -0.495250    38A     -0.411454    39A     -0.381445
      40A     -0.355148    41A     -0.354281

  @DF-RHF Final Energy:  -477.91420025355910

   => Energetics <=

    Nuclear Repulsion Energy =            573.4173591213415193
    One-Electron Energy =               -1785.5836347262575146
    Two-Electron Energy =                 734.2520753513567797
    Total Energy =                       -477.9142002535591018

  Dipole Moment: [D]
     X:    -0.9753      Y:     0.3073      Z:    -4.7038     Total:     4.8136

  Basis Set: (AUG-CC-PVQZ AUX)
    Blend: AUG-CC-PVQZ-RI
	 Reference Energy          =    -477.9142002535591018 [Eh]
	 Singles Energy            =      -0.0000000000000000 [Eh]
	 Same-Spin Energy          =      -0.5348661891416926 [Eh]
	 Opposite-Spin Energy      =      -1.8328884828773779 [Eh]
	 Correlation Energy        =      -2.3677546720190703 [Eh]
	 Total Energy              =    -480.2819549255781908 [Eh]

	 ================> DF-SCS-MP2 Energies <==================
	-----------------------------------------------------------
	 SCS Same-Spin Scale       =       0.3333333333333333 [-]
	 SCS Opposite-Spin Scale   =       1.2000000000000000 [-]
	 SCS Same-Spin Energy      =      -0.1782887297138975 [Eh]
	 SCS Opposite-Spin Energy  =      -2.1994661794528536 [Eh]
	 SCS Correlation Energy    =      -2.3777549091667511 [Eh]
	 SCS Total Energy          =    -480.2919551627258556 [Eh]
	-----------------------------------------------------------

*** Psi4 exiting successfully. Buy a developer a beer!
