                               Psi4 1.4a2.dev224

  ==> Input File <==

--------------------------------------------------------------------------
#Generated by lconvert.py for cbs job

memory 40 GB

molecule  {
0 1
  C        0.4087800     1.0510250     0.3755360
  H        1.0119390     1.9485460     0.3680780
  C        1.0191680    -0.1997700     0.2890530
  H        2.0955710    -0.2718330     0.2171910
  C        0.2417230    -1.3568830     0.2966900
  H        0.7152160    -2.3265890     0.2280720
  C       -1.1461800    -1.2642580     0.3939020
  H       -1.7491820    -2.1619270     0.3994100
  C       -1.7572780    -0.0139600     0.4829520
  H       -2.8335140     0.0582440     0.5590390
  C       -0.9796860     1.1442070     0.4722840
  H       -1.4540510     2.1140010     0.5371360
--
0 1
  C        0.2263600     1.9120720     3.2179280
  H       -0.1317850     2.0778030     2.2046350
  H        1.2509440     2.2687820     3.2993700
  H       -0.3777370     2.4857080     3.9162810
  C        0.1895140     0.4589090     3.6336370
  O        0.4741420     0.1065470     4.7721750
  N       -0.1828820    -0.4068080     2.6543960
  H       -0.3440100    -0.0488170     1.7283270
  C       -0.2196740    -1.8336870     2.8724830
  H       -0.1415870    -2.0005950     3.9424790
  H       -1.1549150    -2.2520380     2.5057450
  H        0.6094520    -2.3375600     2.3751450
units angstrom
no_reorient
symmetry c1
}

set {
scf_type DF
mp2_type DF
e_convergence 7
reference rhf
}

energy('mp2/aug-cc-pv[tq]z', bsse_type='cp')
--------------------------------------------------------------------------

    Molecular point group: c1
  Charge       = 0
  Multiplicity = 1
  Basis Set: AUG-CC-PVTZ
    Blend: AUG-CC-PVTZ
  Basis Set: (AUG-CC-PVTZ AUX)
    Blend: AUG-CC-PVTZ-JKFIT
  @DF-RHF Final Energy:  -247.10266584978140
    Total Energy =                       -247.1026658497814310
  Basis Set: (AUG-CC-PVTZ AUX)
    Blend: AUG-CC-PVTZ-RI
	 Reference Energy          =    -247.1026658497814026 [Eh]
	 Singles Energy            =      -0.0000000000000000 [Eh]
	 Same-Spin Energy          =      -0.2464384202750435 [Eh]
	 Opposite-Spin Energy      =      -0.8098093332342664 [Eh]
	 Correlation Energy        =      -1.0562477535093100 [Eh]
	 Total Energy              =    -248.1589136032906993 [Eh]
	 SCS Total Energy          =    -248.1565831897542012 [Eh]
    Molecular point group: c1
  Basis Set: AUG-CC-PVQZ
    Blend: AUG-CC-PVQZ
  Basis Set: (AUG-CC-PVQZ AUX)
    Blend: AUG-CC-PVQZ-JKFIT
  @DF-RHF Final Energy:  -247.11811534985208
    Total Energy =                       -247.1181153498520757
  Basis Set: (AUG-CC-PVQZ AUX)
  @DF-RHF Final Energy:  -247.10296954465599
    Total Energy =                       -247.1029695446559913
  @DF-RHF Final Energy:  -247.11818619649046
    Total Energy =                       -247.1181861964904556
  @DF-RHF Final Energy:  -230.78170798542743
    Total Energy =                       -230.7817079854274311
  @DF-RHF Final Energy:  -230.79444186555463
    Total Energy =                       -230.7944418655546315
  @DF-RHF Final Energy:  -230.78116231140024
    Total Energy =                       -230.7811623114002373
  @DF-RHF Final Energy:  -230.79433296146195
    Total Energy =                       -230.7943329614619188
  Multiplicity = 1
  @DF-RHF Final Energy:  -477.78049218964344
    Total Energy =                       -477.7804921896433825
	 Singles Energy            =      -0.0000000000000000 [Eh]
	 Same-Spin Energy          =      -0.5272446920351854 [Eh]
	 Opposite-Spin Energy      =      -1.6680642199908569 [Eh]
	 Correlation Energy        =      -2.1953089120260421 [Eh]
	 Total Energy              =    -479.9758011016695036 [Eh]
	 SCS Total Energy          =    -479.9579174843108831 [Eh]
    Molecular point group: c1

    Geometry (in Angstrom), charge = 0, multiplicity = 1:

       Center              X                  Y                   Z               Mass
    ------------   -----------------  -----------------  -----------------  -----------------
         C            0.552443909110     1.088551606280    -1.479987512395    12.000000000000
         H            1.155602909110     1.986072606280    -1.487445512395     1.007825032230
         C            1.162831909110    -0.162243393720    -1.566470512395    12.000000000000
         H            2.239234909110    -0.234306393720    -1.638332512395     1.007825032230
         C            0.385386909110    -1.319356393720    -1.558833512395    12.000000000000
         H            0.858879909110    -2.289062393720    -1.627451512395     1.007825032230
         C           -1.002516090890    -1.226731393720    -1.461621512395    12.000000000000
         H           -1.605518090890    -2.124400393720    -1.456113512395     1.007825032230
         C           -1.613614090890     0.023566606280    -1.372571512395    12.000000000000
         H           -2.689850090890     0.095770606280    -1.296484512395     1.007825032230
         C           -0.836022090890     1.181733606280    -1.383239512395    12.000000000000
         H           -1.310387090890     2.151527606280    -1.318387512395     1.007825032230
         C            0.370023909110     1.949598606280     1.362404487605    12.000000000000
         H            0.011878909110     2.115329606280     0.349111487605     1.007825032230
         H            1.394607909110     2.306308606280     1.443846487605     1.007825032230
         H           -0.234073090890     2.523234606280     2.060757487605     1.007825032230
         C            0.333177909110     0.496435606280     1.778113487605    12.000000000000
         O            0.617805909110     0.144073606280     2.916651487605    15.994914619570
         N           -0.039218090890    -0.369281393720     0.798872487605    14.003074004430
         H           -0.200346090890    -0.011290393720    -0.127196512395     1.007825032230
         C           -0.076010090890    -1.796160393720     1.016959487605    12.000000000000
         H            0.002076909110    -1.963068393720     2.086955487605     1.007825032230
         H           -1.011251090890    -2.214511393720     0.650221487605     1.007825032230
         H            0.753115909110    -2.300033393720     0.519621487605     1.007825032230

  Charge       = 0
  Multiplicity = 1
  Basis Set: AUG-CC-PVQZ
    Blend: AUG-CC-PVQZ
  Basis Set: (AUG-CC-PVQZ AUX)
    Blend: AUG-CC-PVQZ-JKFIT

    Orbital Energies [Eh]
    ---------------------

    Doubly Occupied:

       1A    -20.485905     2A    -15.544023     3A    -11.323574
       4A    -11.257595     5A    -11.256811     6A    -11.255918
       7A    -11.254745     8A    -11.253925     9A    -11.252939
      10A    -11.238131    11A    -11.214161    12A     -1.351753
      13A     -1.230686    14A     -1.168725    15A     -1.051656
      16A     -1.042657    17A     -0.998038    18A     -0.920296
      19A     -0.849860    20A     -0.849064    21A     -0.792114
      22A     -0.730762    23A     -0.679485    24A     -0.670053
      25A     -0.645501    26A     -0.635694    27A     -0.618224
      28A     -0.616132    29A     -0.615138    30A     -0.575981
      31A     -0.574647    32A     -0.538610    33A     -0.536090
      34A     -0.519004    35A     -0.518357    36A     -0.486600
      37A     -0.479353    38A     -0.402193    39A     -0.393640
      40A     -0.352417    41A     -0.337322

  @DF-RHF Final Energy:  -477.80849157779789

   => Energetics <=

    Nuclear Repulsion Energy =            638.5319159134228357
    One-Electron Energy =               -1915.6452769632185209
    Two-Electron Energy =                 799.3048694719977902
    Total Energy =                       -477.8084915777978949

  Dipole Moment: [D]
     X:    -1.0752      Y:     0.2090      Z:    -4.8195     Total:     4.9424

  Basis Set: (AUG-CC-PVQZ AUX)
    Blend: AUG-CC-PVQZ-RI
	 Reference Energy          =    -477.8084915777978949 [Eh]
	 Singles Energy            =      -0.0000000000000000 [Eh]
	 Same-Spin Energy          =      -0.5562221217962595 [Eh]
	 Opposite-Spin Energy      =      -1.8608515565364629 [Eh]
	 Correlation Energy        =      -2.4170736783327227 [Eh]
	 Total Energy              =    -480.2255652561306078 [Eh]

	 ================> DF-SCS-MP2 Energies <==================
	-----------------------------------------------------------
	 SCS Same-Spin Scale       =       0.3333333333333333 [-]
	 SCS Opposite-Spin Scale   =       1.2000000000000000 [-]
	 SCS Same-Spin Energy      =      -0.1854073739320865 [Eh]
	 SCS Opposite-Spin Energy  =      -2.2330218678437554 [Eh]
	 SCS Correlation Energy    =      -2.4184292417758417 [Eh]
	 SCS Total Energy          =    -480.2269208195737633 [Eh]
	-----------------------------------------------------------

*** Psi4 exiting successfully. Buy a developer a beer!
