                               Psi4 1.4a2.dev224

  ==> Input File <==

--------------------------------------------------------------------------
#Generated by lconvert.py for cbs job

memory 40 GB

molecule  {
0 1
  C        0.4087800     1.0510250     0.3755360
  H        1.0119390     1.9485460     0.3680780
  C        1.0191680    -0.1997700     0.2890530
  H        2.0955710    -0.2718330     0.2171910
  C        0.2417230    -1.3568830     0.2966900
  H        0.7152160    -2.3265890     0.2280720
  C       -1.1461800    -1.2642580     0.3939020
  H       -1.7491820    -2.1619270     0.3994100
  C       -1.7572780    -0.0139600     0.4829520
  H       -2.8335140     0.0582440     0.5590390
  C       -0.9796860     1.1442070     0.4722840
  H       -1.4540510     2.1140010     0.5371360
--
0 1
  C        0.2332500     1.9280560     3.5894740
  H       -0.1248950     2.0937870     2.5761810
  H        1.2578330     2.2847660     3.6709150
  H       -0.3708470     2.5016920     4.2878260
  C        0.1964040     0.4748930     4.0051830
  O        0.4810320     0.1225320     5.1437210
  N       -0.1759920    -0.3908240     3.0259420
  H       -0.3371200    -0.0328330     2.0998730
  C       -0.2127850    -1.8177030     3.2440290
  H       -0.1346970    -1.9846110     4.3140250
  H       -1.1480250    -2.2360540     2.8772900
  H        0.6163420    -2.3215760     2.7466910
units angstrom
no_reorient
symmetry c1
}

set {
scf_type DF
mp2_type DF
e_convergence 7
reference rhf
}

energy('mp2/aug-cc-pv[tq]z', bsse_type='cp')
--------------------------------------------------------------------------

    Molecular point group: c1
  Charge       = 0
  Multiplicity = 1
  Basis Set: AUG-CC-PVTZ
    Blend: AUG-CC-PVTZ
  Basis Set: (AUG-CC-PVTZ AUX)
    Blend: AUG-CC-PVTZ-JKFIT
  @DF-RHF Final Energy:  -247.10266588582704
    Total Energy =                       -247.1026658858270366
  Basis Set: (AUG-CC-PVTZ AUX)
    Blend: AUG-CC-PVTZ-RI
	 Reference Energy          =    -247.1026658858270366 [Eh]
	 Singles Energy            =      -0.0000000000000000 [Eh]
	 Same-Spin Energy          =      -0.2464384111720588 [Eh]
	 Opposite-Spin Energy      =      -0.8098093097587347 [Eh]
	 Correlation Energy        =      -1.0562477209307934 [Eh]
	 Total Energy              =    -248.1589136067578352 [Eh]
	 SCS Total Energy          =    -248.1565831945948730 [Eh]
    Molecular point group: c1
  Basis Set: AUG-CC-PVQZ
    Blend: AUG-CC-PVQZ
  Basis Set: (AUG-CC-PVQZ AUX)
    Blend: AUG-CC-PVQZ-JKFIT
  @DF-RHF Final Energy:  -247.11811538862938
    Total Energy =                       -247.1181153886293487
  Basis Set: (AUG-CC-PVQZ AUX)
  @DF-RHF Final Energy:  -247.10289431975096
    Total Energy =                       -247.1028943197509875
  @DF-RHF Final Energy:  -247.11816803148935
    Total Energy =                       -247.1181680314893470
  @DF-RHF Final Energy:  -230.78159220125397
    Total Energy =                       -230.7815922012540000
  @DF-RHF Final Energy:  -230.79442461295804
    Total Energy =                       -230.7944246129580392
  @DF-RHF Final Energy:  -230.78116231664075
    Total Energy =                       -230.7811623166407458
  @DF-RHF Final Energy:  -230.79433295896266
    Total Energy =                       -230.7943329589626273
  Multiplicity = 1
  @DF-RHF Final Energy:  -477.85117185004930
    Total Energy =                       -477.8511718500492407
	 Singles Energy            =      -0.0000000000000000 [Eh]
	 Same-Spin Energy          =      -0.5167454343015825 [Eh]
	 Opposite-Spin Energy      =      -1.6525907677506844 [Eh]
	 Correlation Energy        =      -2.1693362020522668 [Eh]
	 Total Energy              =    -480.0205080521015475 [Eh]
	 SCS Total Energy          =    -480.0065292494506366 [Eh]
    Molecular point group: c1

    Geometry (in Angstrom), charge = 0, multiplicity = 1:

       Center              X                  Y                   Z               Mass
    ------------   -----------------  -----------------  -----------------  -----------------
         C            0.549112860218     1.080823654049    -1.659620275737    12.000000000000
         H            1.152271860218     1.978344654049    -1.667078275737     1.007825032230
         C            1.159500860218    -0.169971345951    -1.746103275737    12.000000000000
         H            2.235903860218    -0.242034345951    -1.817965275737     1.007825032230
         C            0.382055860218    -1.327084345951    -1.738466275737    12.000000000000
         H            0.855548860218    -2.296790345951    -1.807084275737     1.007825032230
         C           -1.005847139782    -1.234459345951    -1.641254275737    12.000000000000
         H           -1.608849139782    -2.132128345951    -1.635746275737     1.007825032230
         C           -1.616945139782     0.015838654049    -1.552204275737    12.000000000000
         H           -2.693181139782     0.088042654049    -1.476117275737     1.007825032230
         C           -0.839353139782     1.174005654049    -1.562872275737    12.000000000000
         H           -1.313718139782     2.143799654049    -1.498020275737     1.007825032230
         C            0.373582860218     1.957854654049     1.554317724263    12.000000000000
         H            0.015437860218     2.123585654049     0.541024724263     1.007825032230
         H            1.398165860218     2.314564654049     1.635758724263     1.007825032230
         H           -0.230514139782     2.531490654049     2.252669724263     1.007825032230
         C            0.336736860218     0.504691654049     1.970026724263    12.000000000000
         O            0.621364860218     0.152330654049     3.108564724263    15.994914619570
         N           -0.035659139782    -0.361025345951     0.990785724263    14.003074004430
         H           -0.196787139782    -0.003034345951     0.064716724263     1.007825032230
         C           -0.072452139782    -1.787904345951     1.208872724263    12.000000000000
         H            0.005635860218    -1.954812345951     2.278868724263     1.007825032230
         H           -1.007692139782    -2.206255345951     0.842133724263     1.007825032230
         H            0.756674860218    -2.291777345951     0.711534724263     1.007825032230

  Charge       = 0
  Multiplicity = 1
  Basis Set: AUG-CC-PVQZ
    Blend: AUG-CC-PVQZ
  Basis Set: (AUG-CC-PVQZ AUX)
    Blend: AUG-CC-PVQZ-JKFIT

    Orbital Energies [Eh]
    ---------------------

    Doubly Occupied:

       1A    -20.490605     2A    -15.556153     3A    -11.328381
       4A    -11.256703     5A    -11.255943     6A    -11.255219
       7A    -11.254540     8A    -11.253976     9A    -11.253029
      10A    -11.240243    11A    -11.218672    12A     -1.355478
      13A     -1.216084    14A     -1.173272    15A     -1.041062
      16A     -1.038250    17A     -1.002713    18A     -0.917949
      19A     -0.846462    20A     -0.846275    21A     -0.779624
      22A     -0.731491    23A     -0.677992    24A     -0.665802
      25A     -0.641725    26A     -0.637269    27A     -0.618801
      28A     -0.611518    29A     -0.610677    30A     -0.575138
      31A     -0.574020    32A     -0.541257    33A     -0.535703
      34A     -0.516627    35A     -0.516190    36A     -0.502020
      37A     -0.489351    38A     -0.405165    39A     -0.384406
      40A     -0.358465    41A     -0.349674

  @DF-RHF Final Energy:  -477.87926172384607

   => Energetics <=

    Nuclear Repulsion Energy =            616.6966111155942372
    One-Electron Energy =               -1872.1039128319032443
    Two-Electron Energy =                 777.5280399924630501
    Total Energy =                       -477.8792617238460707

  Dipole Moment: [D]
     X:    -1.0330      Y:     0.2589      Z:    -4.8998     Total:     5.0141

  Basis Set: (AUG-CC-PVQZ AUX)
    Blend: AUG-CC-PVQZ-RI
	 Reference Energy          =    -477.8792617238460707 [Eh]
	 Singles Energy            =      -0.0000000000000000 [Eh]
	 Same-Spin Energy          =      -0.5457397552127889 [Eh]
	 Opposite-Spin Energy      =      -1.8469675536920938 [Eh]
	 Correlation Energy        =      -2.3927073089048827 [Eh]
	 Total Energy              =    -480.2719690327509738 [Eh]

	 ================> DF-SCS-MP2 Energies <==================
	-----------------------------------------------------------
	 SCS Same-Spin Scale       =       0.3333333333333333 [-]
	 SCS Opposite-Spin Scale   =       1.2000000000000000 [-]
	 SCS Same-Spin Energy      =      -0.1819132517375963 [Eh]
	 SCS Opposite-Spin Energy  =      -2.2163610644305125 [Eh]
	 SCS Correlation Energy    =      -2.3982743161681088 [Eh]
	 SCS Total Energy          =    -480.2775360400141835 [Eh]
	-----------------------------------------------------------

*** Psi4 exiting successfully. Buy a developer a beer!
