                               Psi4 1.4a2.dev224

  ==> Input File <==

--------------------------------------------------------------------------
#Generated by lconvert.py for cbs job

memory 40 GB

molecule  {
0 1
  C        0.4087800     1.0510250     0.3755360
  H        1.0119390     1.9485460     0.3680780
  C        1.0191680    -0.1997700     0.2890530
  H        2.0955710    -0.2718330     0.2171910
  C        0.2417230    -1.3568830     0.2966900
  H        0.7152160    -2.3265890     0.2280720
  C       -1.1461800    -1.2642580     0.3939020
  H       -1.7491820    -2.1619270     0.3994100
  C       -1.7572780    -0.0139600     0.4829520
  H       -2.8335140     0.0582440     0.5590390
  C       -0.9796860     1.1442070     0.4722840
  H       -1.4540510     2.1140010     0.5371360
--
0 1
  C        0.2263600     1.9120720     3.2179280
  H       -0.1317850     2.0778030     2.2046350
  H        1.2509440     2.2687820     3.2993700
  H       -0.3777370     2.4857080     3.9162810
  C        0.1895140     0.4589090     3.6336370
  O        0.4741420     0.1065470     4.7721750
  N       -0.1828820    -0.4068080     2.6543960
  H       -0.3440100    -0.0488170     1.7283270
  C       -0.2196740    -1.8336870     2.8724830
  H       -0.1415870    -2.0005950     3.9424790
  H       -1.1549150    -2.2520380     2.5057450
  H        0.6094520    -2.3375600     2.3751450
units angstrom
no_reorient
symmetry c1
}

set {
scf_type DF
mp2_type DF
e_convergence 7
reference rhf
}

energy('mp2/aug-cc-pv[tq]z', bsse_type='cp')
--------------------------------------------------------------------------

    Molecular point group: c1
  Charge       = 0
  Multiplicity = 1
  Basis Set: AUG-CC-PVTZ
    Blend: AUG-CC-PVTZ
  Basis Set: (AUG-CC-PVTZ AUX)
    Blend: AUG-CC-PVTZ-JKFIT
  @DF-RHF Final Energy:  -247.10266584978140
    Total Energy =                       -247.1026658497814310
  Basis Set: (AUG-CC-PVTZ AUX)
    Blend: AUG-CC-PVTZ-RI
	 Reference Energy          =    -247.1026658497814026 [Eh]
	 Singles Energy            =      -0.0000000000000000 [Eh]
	 Same-Spin Energy          =      -0.2464384202750435 [Eh]
	 Opposite-Spin Energy      =      -0.8098093332342664 [Eh]
	 Correlation Energy        =      -1.0562477535093100 [Eh]
	 Total Energy              =    -248.1589136032906993 [Eh]
	 SCS Total Energy          =    -248.1565831897542012 [Eh]
    Molecular point group: c1
  Basis Set: AUG-CC-PVQZ
    Blend: AUG-CC-PVQZ
  Basis Set: (AUG-CC-PVQZ AUX)
    Blend: AUG-CC-PVQZ-JKFIT
  @DF-RHF Final Energy:  -247.11811534985208
    Total Energy =                       -247.1181153498520757
  Basis Set: (AUG-CC-PVQZ AUX)
  @DF-RHF Final Energy:  -247.10296954465599
    Total Energy =                       -247.1029695446559913
  @DF-RHF Final Energy:  -247.11818619649046
    Total Energy =                       -247.1181861964904556
  @DF-RHF Final Energy:  -230.78170798542743
    Total Energy =                       -230.7817079854274311
  @DF-RHF Final Energy:  -230.79444186555463
    Total Energy =                       -230.7944418655546315
  @DF-RHF Final Energy:  -230.78116231140024
    Total Energy =                       -230.7811623114002373
  @DF-RHF Final Energy:  -230.79433296146195
    Total Energy =                       -230.7943329614619188
  @DF-RHF Final Energy:  -477.78049218964344
    Total Energy =                       -477.7804921896433825
  @DF-RHF Final Energy:  -477.80849157779789
    Total Energy =                       -477.8084915777978949
*** Psi4 exiting successfully. Buy a developer a beer!
                               Psi4 1.4a2.dev224
  @DF-RHF Final Energy:  -247.10266588582704
    Total Energy =                       -247.1026658858270366
  @DF-RHF Final Energy:  -247.11811538862938
    Total Energy =                       -247.1181153886293487
  @DF-RHF Final Energy:  -247.10289431975096
    Total Energy =                       -247.1028943197509875
  @DF-RHF Final Energy:  -247.11816803148935
    Total Energy =                       -247.1181680314893470
  @DF-RHF Final Energy:  -230.78159220125397
    Total Energy =                       -230.7815922012540000
  @DF-RHF Final Energy:  -230.79442461295804
    Total Energy =                       -230.7944246129580392
  @DF-RHF Final Energy:  -230.78116231664075
    Total Energy =                       -230.7811623166407458
  @DF-RHF Final Energy:  -230.79433295896266
    Total Energy =                       -230.7943329589626273
  @DF-RHF Final Energy:  -477.85117185004930
    Total Energy =                       -477.8511718500492407
  @DF-RHF Final Energy:  -477.87926172384607
    Total Energy =                       -477.8792617238460707
*** Psi4 exiting successfully. Buy a developer a beer!
                               Psi4 1.4a2.dev224
                               Psi4 1.4a2.dev224
                               Psi4 1.4a2.dev224
                               Psi4 1.4a2.dev224
                               Psi4 1.4a2.dev224
                               Psi4 1.4a2.dev224
                               Psi4 1.4a2.dev224
  @DF-RHF Final Energy:  -247.10266580753895
    Total Energy =                       -247.1026658075389832
  @DF-RHF Final Energy:  -247.11811530552694
    Total Energy =                       -247.1181153055269419
  @DF-RHF Final Energy:  -247.10268568602581
    Total Energy =                       -247.1026856860257794
  @DF-RHF Final Energy:  -247.11812148411352
    Total Energy =                       -247.1181214841134874
  @DF-RHF Final Energy:  -230.78120921061597
    Total Energy =                       -230.7812092106159412
  @DF-RHF Final Energy:  -230.79434619470331
    Total Energy =                       -230.7943461947033370
  @DF-RHF Final Energy:  -230.78116218176828
    Total Energy =                       -230.7811621817682521
  @DF-RHF Final Energy:  -230.79433281798217
    Total Energy =                       -230.7943328179821378
  @DF-RHF Final Energy:  -477.88506914498419
    Total Energy =                       -477.8850691449841861
  @DF-RHF Final Energy:  -477.91363446766417
    Total Energy =                       -477.9136344676641102
*** Psi4 exiting successfully. Buy a developer a beer!
                               Psi4 1.4a2.dev224
  @DF-RHF Final Energy:  -247.10266626136735
    Total Energy =                       -247.1026662613673466
  @DF-RHF Final Energy:  -247.11811578727264
    Total Energy =                       -247.1181157872726430
  @DF-RHF Final Energy:  -247.10267390419131
    Total Energy =                       -247.1026739041913061
  @DF-RHF Final Energy:  -247.11811855579370
    Total Energy =                       -247.1181185557936715
  @DF-RHF Final Energy:  -230.78118414810692
    Total Energy =                       -230.7811841481068882
  @DF-RHF Final Energy:  -230.79433985367413
    Total Energy =                       -230.7943398536741029
  @DF-RHF Final Energy:  -230.78116218168043
    Total Energy =                       -230.7811621816804291
  @DF-RHF Final Energy:  -230.79433281896613
    Total Energy =                       -230.7943328189660974
  Multiplicity = 1
  @DF-RHF Final Energy:  -477.88449148411530
    Total Energy =                       -477.8844914841153013
	 Singles Energy            =      -0.0000000000000000 [Eh]
	 Same-Spin Energy          =      -0.5019504134552568 [Eh]
	 Opposite-Spin Energy      =      -1.6285283220015550 [Eh]
	 Correlation Energy        =      -2.1304787354568120 [Eh]
	 Total Energy              =    -480.0149702195720920 [Eh]
	 SCS Total Energy          =    -480.0060422750022440 [Eh]
    Molecular point group: c1

    Geometry (in Angstrom), charge = 0, multiplicity = 1:

       Center              X                  Y                   Z               Mass
    ------------   -----------------  -----------------  -----------------  -----------------
         C            0.513880435775     0.999090462218    -3.559583046793    12.000000000000
         H            1.117040435775     1.896610462218    -3.567043046793     1.007825032230
         C            1.124270435775    -0.251709537782    -3.646073046793    12.000000000000
         H            2.200670435775    -0.323769537782    -3.717933046793     1.007825032230
         C            0.346820435775    -1.408819537782    -3.638433046793    12.000000000000
         H            0.820320435775    -2.378529537782    -3.707053046793     1.007825032230
         C           -1.041079564225    -1.316199537782    -3.541223046793    12.000000000000
         H           -1.644079564225    -2.213869537782    -3.535713046793     1.007825032230
         C           -1.652179564225    -0.065899537782    -3.452173046793    12.000000000000
         H           -2.728409564225     0.006300462218    -3.376083046793     1.007825032230
         C           -0.874589564225     1.092270462218    -3.462843046793    12.000000000000
         H           -1.348949564225     2.062060462218    -3.397983046793     1.007825032230
         C            0.411220435775     2.045180462218     3.584176953207    12.000000000000
         H            0.053080435775     2.210910462218     2.570886953207     1.007825032230
         H            1.435810435775     2.401890462218     3.665616953207     1.007825032230
         H           -0.192869564225     2.618810462218     4.282526953207     1.007825032230
         C            0.374380435775     0.592020462218     3.999886953207    12.000000000000
         O            0.659010435775     0.239650462218     5.138416953207    15.994914619570
         N            0.001980435775    -0.273699537782     3.020646953207    14.003074004430
         H           -0.159149564225     0.084290462218     2.094576953207     1.007825032230
         C           -0.034809564225    -1.700579537782     3.238726953207    12.000000000000
         H            0.043280435775    -1.867489537782     4.308726953207     1.007825032230
         H           -0.970049564225    -2.118929537782     2.871986953207     1.007825032230
         H            0.794320435775    -2.204449537782     2.741396953207     1.007825032230

  Charge       = 0
  Multiplicity = 1
  Basis Set: AUG-CC-PVQZ
    Blend: AUG-CC-PVQZ
  Basis Set: (AUG-CC-PVQZ AUX)
    Blend: AUG-CC-PVQZ-JKFIT

    Orbital Energies [Eh]
    ---------------------

    Doubly Occupied:

       1A    -20.505847     2A    -15.582720     3A    -11.344047
       4A    -11.252691     5A    -11.242379     6A    -11.241770
       7A    -11.241726     8A    -11.240561     9A    -11.240496
      10A    -11.239867    11A    -11.231638    12A     -1.370172
      13A     -1.228555    14A     -1.156623    15A     -1.021294
      16A     -1.021207    17A     -1.016108    18A     -0.929525
      19A     -0.830857    20A     -0.830794    21A     -0.787772
      22A     -0.716435    23A     -0.688083    24A     -0.651198
      25A     -0.650272    26A     -0.631229    27A     -0.625823
      28A     -0.594991    29A     -0.594906    30A     -0.584837
      31A     -0.578081    32A     -0.552778    33A     -0.542965
      34A     -0.509341    35A     -0.501896    36A     -0.501835
      37A     -0.501701    38A     -0.418268    39A     -0.389611
      40A     -0.343867    41A     -0.343843

  @DF-RHF Final Energy:  -477.91308891161276

   => Energetics <=

    Nuclear Repulsion Energy =            502.1482570345403929
    One-Electron Energy =               -1643.1654663996789623
    Two-Electron Energy =                 663.1041204535257521
    Total Energy =                       -477.9130889116128174

  Dipole Moment: [D]
     X:    -0.9531      Y:     0.3757      Z:    -4.1868     Total:     4.3103

  Basis Set: (AUG-CC-PVQZ AUX)
    Blend: AUG-CC-PVQZ-RI
	 Reference Energy          =    -477.9130889116127605 [Eh]
	 Singles Energy            =      -0.0000000000000000 [Eh]
	 Same-Spin Energy          =      -0.5313883046596859 [Eh]
	 Opposite-Spin Energy      =      -1.8285030078089588 [Eh]
	 Correlation Energy        =      -2.3598913124686449 [Eh]
	 Total Energy              =    -480.2729802240813797 [Eh]

	 ================> DF-SCS-MP2 Energies <==================
	-----------------------------------------------------------
	 SCS Same-Spin Scale       =       0.3333333333333333 [-]
	 SCS Opposite-Spin Scale   =       1.2000000000000000 [-]
	 SCS Same-Spin Energy      =      -0.1771294348865620 [Eh]
	 SCS Opposite-Spin Energy  =      -2.1942036093707507 [Eh]
	 SCS Correlation Energy    =      -2.3713330442573124 [Eh]
	 SCS Total Energy          =    -480.2844219558700729 [Eh]
	-----------------------------------------------------------

*** Psi4 exiting successfully. Buy a developer a beer!
