                               Psi4 1.4a2.dev224

  ==> Input File <==

--------------------------------------------------------------------------
#Generated by lconvert.py for cbs job

memory 40 GB

molecule  {
0 1
  N       -0.9412110     0.7900410     0.0117190
  C       -0.9227550    -0.5523780     0.0353790
  H        0.0572410    -1.0155880     0.0513550
  C       -2.0765190    -1.3330180     0.0392900
  H       -1.9965290    -2.4105860     0.0588770
  C       -3.3163130    -0.7033400     0.0175990
  H       -4.2315750    -1.2790840     0.0197940
  C       -3.3488950     0.6870190    -0.0070860
  H       -4.2854440     1.2261050    -0.0246590
  C       -2.1431040     1.3826340    -0.0088900
  H       -2.1381000     2.4656530    -0.0277830
--
0 1
  N        2.5359830    -0.9499560     0.0425140
  C        3.7377620    -1.5431320     0.0445940
  H        3.7325380    -2.6260940     0.0664830
  C        4.9436980    -0.8481730     0.0205930
  H        5.8801360    -1.3877090     0.0236870
  C        4.9113800     0.5421310    -0.0071540
  H        5.8267550     1.1173820    -0.0263360
  C        3.6717000     1.1724170    -0.0096310
  H        3.5919270     2.2499760    -0.0307200
  C        2.5177860     0.3924080     0.0155620
  H        1.5378760     0.8560700     0.0139000
units angstrom
no_reorient
symmetry c1
}

set {
scf_type DF
mp2_type DF
e_convergence 7
reference rhf
}

energy('mp2/aug-cc-pv[tq]z', bsse_type='cp')
--------------------------------------------------------------------------

    Molecular point group: c1
  Charge       = 0
  Multiplicity = 1
  Basis Set: AUG-CC-PVTZ
    Blend: AUG-CC-PVTZ
  Basis Set: (AUG-CC-PVTZ AUX)
    Blend: AUG-CC-PVTZ-JKFIT
  @DF-RHF Final Energy:  -246.77852326936988
    Total Energy =                       -246.7785232693698845
  Basis Set: (AUG-CC-PVTZ AUX)
    Blend: AUG-CC-PVTZ-RI
	 Reference Energy          =    -246.7785232693698845 [Eh]
	 Singles Energy            =      -0.0000000000000000 [Eh]
	 Same-Spin Energy          =      -0.2688251402780277 [Eh]
	 Opposite-Spin Energy      =      -0.8389104297920045 [Eh]
	 Correlation Energy        =      -1.1077355700700322 [Eh]
	 Total Energy              =    -247.8862588394399040 [Eh]
	 SCS Total Energy          =    -247.8748241652129707 [Eh]
    Molecular point group: c1
  Basis Set: AUG-CC-PVQZ
    Blend: AUG-CC-PVQZ
  Basis Set: (AUG-CC-PVQZ AUX)
    Blend: AUG-CC-PVQZ-JKFIT
  @DF-RHF Final Energy:  -246.79266111571522
    Total Energy =                       -246.7926611157152479
  Basis Set: (AUG-CC-PVQZ AUX)
  @DF-RHF Final Energy:  -246.77861770963290
    Total Energy =                       -246.7786177096328970
  @DF-RHF Final Energy:  -246.79268635048055
    Total Energy =                       -246.7926863504805510
  @DF-RHF Final Energy:  -246.77861770907600
    Total Energy =                       -246.7786177090760020
  @DF-RHF Final Energy:  -246.79268635351059
    Total Energy =                       -246.7926863535105895
  @DF-RHF Final Energy:  -246.77852327479843
    Total Energy =                       -246.7785232747984310
  @DF-RHF Final Energy:  -246.79266111622036
    Total Energy =                       -246.7926611162203585
  Multiplicity = 1
  @DF-RHF Final Energy:  -493.55910596454549
    Total Energy =                       -493.5591059645455516
	 Singles Energy            =      -0.0000000000000000 [Eh]
	 Same-Spin Energy          =      -0.5405229575186602 [Eh]
	 Opposite-Spin Energy      =      -1.6833575276854860 [Eh]
	 Correlation Energy        =      -2.2238804852041461 [Eh]
	 Total Energy              =    -495.7829864497496146 [Eh]
	 SCS Total Energy          =    -495.7593093169409713 [Eh]
    Molecular point group: c1

    Geometry (in Angstrom), charge = 0, multiplicity = 1:

       Center              X                  Y                   Z               Mass
    ------------   -----------------  -----------------  -----------------  -----------------
         N           -1.738669951862     0.870318693822    -0.004525953474    14.003074004430
         C           -1.720213951862    -0.472100306178     0.019134046526    12.000000000000
         H           -0.740217951862    -0.935310306178     0.035110046526     1.007825032230
         C           -2.873977951862    -1.252740306178     0.023045046526    12.000000000000
         H           -2.793987951862    -2.330308306178     0.042632046526     1.007825032230
         C           -4.113771951862    -0.623062306178     0.001354046526    12.000000000000
         H           -5.029033951862    -1.198806306178     0.003549046526     1.007825032230
         C           -4.146353951862     0.767296693822    -0.023330953474    12.000000000000
         H           -5.082902951862     1.306382693822    -0.040903953474     1.007825032230
         C           -2.940562951862     1.462911693822    -0.025134953474    12.000000000000
         H           -2.935558951862     2.545930693822    -0.044027953474     1.007825032230
         N            1.738524048138    -0.869678306178     0.026269046526    14.003074004430
         C            2.940303048138    -1.462854306178     0.028349046526    12.000000000000
         H            2.935079048138    -2.545816306178     0.050238046526     1.007825032230
         C            4.146239048138    -0.767895306178     0.004348046526    12.000000000000
         H            5.082677048138    -1.307431306178     0.007442046526     1.007825032230
         C            4.113921048138     0.622408693822    -0.023398953474    12.000000000000
         H            5.029296048138     1.197659693822    -0.042580953474     1.007825032230
         C            2.874241048138     1.252694693822    -0.025875953474    12.000000000000
         H            2.794468048138     2.330253693822    -0.046964953474     1.007825032230
         C            1.720327048138     0.472685693822    -0.000682953474    12.000000000000
         H            0.740417048138     0.936347693822    -0.002344953474     1.007825032230

  Charge       = 0
  Multiplicity = 1
  Basis Set: AUG-CC-PVQZ
    Blend: AUG-CC-PVQZ
  Basis Set: (AUG-CC-PVQZ AUX)
    Blend: AUG-CC-PVQZ-JKFIT

    Orbital Energies [Eh]
    ---------------------

    Doubly Occupied:

       1A    -15.560274     2A    -15.560268     3A    -11.270431
       4A    -11.270425     5A    -11.264363     6A    -11.264355
       7A    -11.254615     8A    -11.254610     9A    -11.236232
      10A    -11.236227    11A    -11.234189    12A    -11.234183
      13A     -1.251407    14A     -1.250021    15A     -1.084582
      16A     -1.084232    17A     -1.028382    18A     -1.026795
      19A     -0.854521    20A     -0.852975    21A     -0.852646
      22A     -0.847940    23A     -0.721895    24A     -0.711637
      25A     -0.655605    26A     -0.655350    27A     -0.648149
      28A     -0.647679    29A     -0.595262    30A     -0.591533
      31A     -0.576896    32A     -0.566503    33A     -0.537037
      34A     -0.535322    35A     -0.514165    36A     -0.513545
      37A     -0.425297    38A     -0.406831    39A     -0.380718
      40A     -0.379166    41A     -0.342493    42A     -0.341216

  @DF-RHF Final Energy:  -493.58724739355011

   => Energetics <=

    Nuclear Repulsion Energy =            577.1510431485953632
    One-Electron Energy =               -1812.4366412159374704
    Two-Electron Energy =                 741.6983506737919924
    Total Energy =                       -493.5872473935501148

  Dipole Moment: [D]
     X:     0.0006      Y:    -0.0011      Z:    -0.0353     Total:     0.0353

  Basis Set: (AUG-CC-PVQZ AUX)
    Blend: AUG-CC-PVQZ-RI
	 Reference Energy          =    -493.5872473935501148 [Eh]
	 Singles Energy            =      -0.0000000000000000 [Eh]
	 Same-Spin Energy          =      -0.5711508481287482 [Eh]
	 Opposite-Spin Energy      =      -1.8885019370750280 [Eh]
	 Correlation Energy        =      -2.4596527852037759 [Eh]
	 Total Energy              =    -496.0469001787539014 [Eh]

	 ================> DF-SCS-MP2 Energies <==================
	-----------------------------------------------------------
	 SCS Same-Spin Scale       =       0.3333333333333333 [-]
	 SCS Opposite-Spin Scale   =       1.2000000000000000 [-]
	 SCS Same-Spin Energy      =      -0.1903836160429160 [Eh]
	 SCS Opposite-Spin Energy  =      -2.2662023244900333 [Eh]
	 SCS Correlation Energy    =      -2.4565859405329493 [Eh]
	 SCS Total Energy          =    -496.0438333340830468 [Eh]
	-----------------------------------------------------------

*** Psi4 exiting successfully. Buy a developer a beer!
