                               Psi4 1.4a2.dev224

  ==> Input File <==

--------------------------------------------------------------------------
#Generated by lconvert.py for cbs job

memory 40 GB

molecule  {
0 1
  N       -0.9412110     0.7900410     0.0117190
  C       -0.9227550    -0.5523780     0.0353790
  H        0.0572410    -1.0155880     0.0513550
  C       -2.0765190    -1.3330180     0.0392900
  H       -1.9965290    -2.4105860     0.0588770
  C       -3.3163130    -0.7033400     0.0175990
  H       -4.2315750    -1.2790840     0.0197940
  C       -3.3488950     0.6870190    -0.0070860
  H       -4.2854440     1.2261050    -0.0246590
  C       -2.1431040     1.3826340    -0.0088900
  H       -2.1381000     2.4656530    -0.0277830
--
0 1
  N        1.9659950    -0.9650480     0.0445470
  C        3.1677740    -1.5582240     0.0466270
  H        3.1625500    -2.6411870     0.0685160
  C        4.3737100    -0.8632660     0.0226260
  H        5.3101490    -1.4028010     0.0257200
  C        4.3413930     0.5270390    -0.0051210
  H        5.2567680     1.1022900    -0.0243030
  C        3.1017120     1.1573250    -0.0075980
  H        3.0219400     2.2348840    -0.0286870
  C        1.9477990     0.3773150     0.0175950
  H        0.9678880     0.8409780     0.0159330
units angstrom
no_reorient
symmetry c1
}

set {
scf_type DF
mp2_type DF
e_convergence 7
reference rhf
}

energy('mp2/aug-cc-pv[tq]z', bsse_type='cp')
--------------------------------------------------------------------------

    Molecular point group: c1
  Charge       = 0
  Multiplicity = 1
  Basis Set: AUG-CC-PVTZ
    Blend: AUG-CC-PVTZ
  Basis Set: (AUG-CC-PVTZ AUX)
    Blend: AUG-CC-PVTZ-JKFIT
  @DF-RHF Final Energy:  -246.77852326590536
    Total Energy =                       -246.7785232659053918
  Basis Set: (AUG-CC-PVTZ AUX)
    Blend: AUG-CC-PVTZ-RI
	 Reference Energy          =    -246.7785232659053634 [Eh]
	 Singles Energy            =      -0.0000000000000000 [Eh]
	 Same-Spin Energy          =      -0.2688251370247479 [Eh]
	 Opposite-Spin Energy      =      -0.8389104316078144 [Eh]
	 Correlation Energy        =      -1.1077355686325623 [Eh]
	 Total Energy              =    -247.8862588345379265 [Eh]
	 SCS Total Energy          =    -247.8748241628429980 [Eh]
    Molecular point group: c1
  Basis Set: AUG-CC-PVQZ
    Blend: AUG-CC-PVQZ
  Basis Set: (AUG-CC-PVQZ AUX)
    Blend: AUG-CC-PVQZ-JKFIT
  @DF-RHF Final Energy:  -246.79266111072565
    Total Energy =                       -246.7926611107256463
  Basis Set: (AUG-CC-PVQZ AUX)
  @DF-RHF Final Energy:  -246.77867932188255
    Total Energy =                       -246.7786793218825778
  @DF-RHF Final Energy:  -246.79270346499635
    Total Energy =                       -246.7927034649963502
  @DF-RHF Final Energy:  -246.77867931717606
    Total Energy =                       -246.7786793171760564
  @DF-RHF Final Energy:  -246.79270346855267
    Total Energy =                       -246.7927034685526451
  @DF-RHF Final Energy:  -246.77852327236744
    Total Energy =                       -246.7785232723674653
  @DF-RHF Final Energy:  -246.79266111407131
    Total Energy =                       -246.7926611140713362
  Multiplicity = 1
  @DF-RHF Final Energy:  -493.54238782629795
    Total Energy =                       -493.5423878262979542
	 Singles Energy            =      -0.0000000000000000 [Eh]
	 Same-Spin Energy          =      -0.5446752908709718 [Eh]
	 Opposite-Spin Energy      =      -1.6889764740678652 [Eh]
	 Correlation Energy        =      -2.2336517649388368 [Eh]
	 Total Energy              =    -495.7760395912367812 [Eh]
	 SCS Total Energy          =    -495.7507180254697232 [Eh]
    Molecular point group: c1

    Geometry (in Angstrom), charge = 0, multiplicity = 1:

       Center              X                  Y                   Z               Mass
    ------------   -----------------  -----------------  -----------------  -----------------
         N           -1.453676122805     0.877864852014    -0.005542453474    14.003074004430
         C           -1.435220122805    -0.464554147986     0.018117546526    12.000000000000
         H           -0.455224122805    -0.927764147986     0.034093546526     1.007825032230
         C           -2.588984122805    -1.245194147986     0.022028546526    12.000000000000
         H           -2.508994122805    -2.322762147986     0.041615546526     1.007825032230
         C           -3.828778122805    -0.615516147986     0.000337546526    12.000000000000
         H           -4.744040122805    -1.191260147986     0.002532546526     1.007825032230
         C           -3.861360122805     0.774842852014    -0.024347453474    12.000000000000
         H           -4.797909122805     1.313928852014    -0.041920453474     1.007825032230
         C           -2.655569122805     1.470457852014    -0.026151453474    12.000000000000
         H           -2.650565122805     2.553476852014    -0.045044453474     1.007825032230
         N            1.453529877195    -0.877224147986     0.027285546526    14.003074004430
         C            2.655308877195    -1.470400147986     0.029365546526    12.000000000000
         H            2.650084877195    -2.553363147986     0.051254546526     1.007825032230
         C            3.861244877195    -0.775442147986     0.005364546526    12.000000000000
         H            4.797683877195    -1.314977147986     0.008458546526     1.007825032230
         C            3.828927877195     0.614862852014    -0.022382453474    12.000000000000
         H            4.744302877195     1.190113852014    -0.041564453474     1.007825032230
         C            2.589246877195     1.245148852014    -0.024859453474    12.000000000000
         H            2.509474877195     2.322707852014    -0.045948453474     1.007825032230
         C            1.435333877195     0.465138852014     0.000333546526    12.000000000000
         H            0.455422877195     0.928801852014    -0.001328453474     1.007825032230

  Charge       = 0
  Multiplicity = 1
  Basis Set: AUG-CC-PVQZ
    Blend: AUG-CC-PVQZ
  Basis Set: (AUG-CC-PVQZ AUX)
    Blend: AUG-CC-PVQZ-JKFIT

    Orbital Energies [Eh]
    ---------------------

    Doubly Occupied:

       1A    -15.556701     2A    -15.556690     3A    -11.269752
       4A    -11.269740     5A    -11.253816     6A    -11.253795
       7A    -11.253209     8A    -11.253197     9A    -11.234170
      10A    -11.234160    11A    -11.230541    12A    -11.230529
      13A     -1.253196    14A     -1.247430    15A     -1.083983
      16A     -1.082603    17A     -1.028048    18A     -1.022566
      19A     -0.858280    20A     -0.855314    21A     -0.848365
      22A     -0.842133    23A     -0.730800    24A     -0.703327
      25A     -0.656884    26A     -0.655760    27A     -0.646234
      28A     -0.642662    29A     -0.599456    30A     -0.592864
      31A     -0.577185    32A     -0.553257    33A     -0.537658
      34A     -0.532431    35A     -0.513030    36A     -0.510383
      37A     -0.434365    38A     -0.390270    39A     -0.381837
      40A     -0.377842    41A     -0.340481    42A     -0.337075

  @DF-RHF Final Energy:  -493.57044830999882

   => Energetics <=

    Nuclear Repulsion Energy =            596.6701573088748773
    One-Electron Energy =               -1851.6171716054154786
    Two-Electron Energy =                 761.3765659865417774
    Total Energy =                       -493.5704483099988238

  Dipole Moment: [D]
     X:     0.0010      Y:    -0.0011      Z:    -0.0338     Total:     0.0339

  Basis Set: (AUG-CC-PVQZ AUX)
    Blend: AUG-CC-PVQZ-RI
	 Reference Energy          =    -493.5704483099988238 [Eh]
	 Singles Energy            =      -0.0000000000000000 [Eh]
	 Same-Spin Energy          =      -0.5752800035906209 [Eh]
	 Opposite-Spin Energy      =      -1.8930991979271345 [Eh]
	 Correlation Energy        =      -2.4683792015177555 [Eh]
	 Total Energy              =    -496.0388275115165584 [Eh]

	 ================> DF-SCS-MP2 Energies <==================
	-----------------------------------------------------------
	 SCS Same-Spin Scale       =       0.3333333333333333 [-]
	 SCS Opposite-Spin Scale   =       1.2000000000000000 [-]
	 SCS Same-Spin Energy      =      -0.1917600011968736 [Eh]
	 SCS Opposite-Spin Energy  =      -2.2717190375125615 [Eh]
	 SCS Correlation Energy    =      -2.4634790387094352 [Eh]
	 SCS Total Energy          =    -496.0339273487082323 [Eh]
	-----------------------------------------------------------

*** Psi4 exiting successfully. Buy a developer a beer!
