                               Psi4 1.4a2.dev224

  ==> Input File <==

--------------------------------------------------------------------------
#Generated by lconvert.py for cbs job

memory 40 GB

molecule  {
0 1
  N       -0.9412110     0.7900410     0.0117190
  C       -0.9227550    -0.5523780     0.0353790
  H        0.0572410    -1.0155880     0.0513550
  C       -2.0765190    -1.3330180     0.0392900
  H       -1.9965290    -2.4105860     0.0588770
  C       -3.3163130    -0.7033400     0.0175990
  H       -4.2315750    -1.2790840     0.0197940
  C       -3.3488950     0.6870190    -0.0070860
  H       -4.2854440     1.2261050    -0.0246590
  C       -2.1431040     1.3826340    -0.0088900
  H       -2.1381000     2.4656530    -0.0277830
--
0 1
  N        2.3423420    -0.9550980     0.0427740
  C        3.5441210    -1.5482740     0.0448540
  H        3.5388970    -2.6312370     0.0667430
  C        4.7500570    -0.8533160     0.0208530
  H        5.6864950    -1.3928510     0.0239470
  C        4.7177390     0.5369890    -0.0068940
  H        5.6331140     1.1122400    -0.0260750
  C        3.4780590     1.1672750    -0.0093710
  H        3.3982860     2.2448330    -0.0304600
  C        2.3241450     0.3872650     0.0158230
  H        1.3442350     0.8509280     0.0141600
units angstrom
no_reorient
symmetry c1
}

set {
scf_type DF
mp2_type DF
e_convergence 7
reference rhf
}

energy('mp2/aug-cc-pv[tq]z', bsse_type='cp')
--------------------------------------------------------------------------

    Molecular point group: c1
  Charge       = 0
  Multiplicity = 1
  Basis Set: AUG-CC-PVTZ
    Blend: AUG-CC-PVTZ
  Basis Set: (AUG-CC-PVTZ AUX)
    Blend: AUG-CC-PVTZ-JKFIT
  @DF-RHF Final Energy:  -246.77852329908006
    Total Energy =                       -246.7785232990800637
  Basis Set: (AUG-CC-PVTZ AUX)
    Blend: AUG-CC-PVTZ-RI
	 Reference Energy          =    -246.7785232990800637 [Eh]
	 Singles Energy            =      -0.0000000000000000 [Eh]
	 Same-Spin Energy          =      -0.2688251318702751 [Eh]
	 Opposite-Spin Energy      =      -0.8389104105225571 [Eh]
	 Correlation Energy        =      -1.1077355423928323 [Eh]
	 Total Energy              =    -247.8862588414729089 [Eh]
	 SCS Total Energy          =    -247.8748241689972360 [Eh]
    Molecular point group: c1
  Basis Set: AUG-CC-PVQZ
    Blend: AUG-CC-PVQZ
  Basis Set: (AUG-CC-PVQZ AUX)
    Blend: AUG-CC-PVQZ-JKFIT
  @DF-RHF Final Energy:  -246.79266114315305
    Total Energy =                       -246.7926611431530546
  Basis Set: (AUG-CC-PVQZ AUX)
  @DF-RHF Final Energy:  -246.77863504881543
    Total Energy =                       -246.7786350488154312
  @DF-RHF Final Energy:  -246.79269056551604
    Total Energy =                       -246.7926905655160681
  @DF-RHF Final Energy:  -246.77863501713119
    Total Energy =                       -246.7786350171311938
  @DF-RHF Final Energy:  -246.79269053548018
    Total Energy =                       -246.7926905354801761
  @DF-RHF Final Energy:  -246.77852327183061
    Total Energy =                       -246.7785232718306361
  @DF-RHF Final Energy:  -246.79266111339336
    Total Energy =                       -246.7926611133933648
  Multiplicity = 1
  @DF-RHF Final Energy:  -493.55696934901096
    Total Energy =                       -493.5569693490109557
	 Singles Energy            =      -0.0000000000000000 [Eh]
	 Same-Spin Energy          =      -0.5415147981244742 [Eh]
	 Opposite-Spin Energy      =      -1.6848220330763981 [Eh]
	 Correlation Energy        =      -2.2263368312008724 [Eh]
	 Total Energy              =    -495.7833061802118095 [Eh]
	 SCS Total Energy          =    -495.7592607214107829 [Eh]
    Molecular point group: c1

    Geometry (in Angstrom), charge = 0, multiplicity = 1:

       Center              X                  Y                   Z               Mass
    ------------   -----------------  -----------------  -----------------  -----------------
         N           -1.641849451862     0.872889858390    -0.004656035758    14.003074004430
         C           -1.623393451862    -0.469529141610     0.019003964242    12.000000000000
         H           -0.643397451862    -0.932739141610     0.034979964242     1.007825032230
         C           -2.777157451862    -1.250169141610     0.022914964242    12.000000000000
         H           -2.697167451862    -2.327737141610     0.042501964242     1.007825032230
         C           -4.016951451862    -0.620491141610     0.001223964242    12.000000000000
         H           -4.932213451862    -1.196235141610     0.003418964242     1.007825032230
         C           -4.049533451862     0.769867858390    -0.023461035758    12.000000000000
         H           -4.986082451862     1.308953858390    -0.041034035758     1.007825032230
         C           -2.843742451862     1.465482858390    -0.025265035758    12.000000000000
         H           -2.838738451862     2.548501858390    -0.044158035758     1.007825032230
         N            1.641703548138    -0.872249141610     0.026398964242    14.003074004430
         C            2.843482548138    -1.465425141610     0.028478964242    12.000000000000
         H            2.838258548138    -2.548388141610     0.050367964242     1.007825032230
         C            4.049418548138    -0.770467141610     0.004477964242    12.000000000000
         H            4.985856548138    -1.310002141610     0.007571964242     1.007825032230
         C            4.017100548138     0.619837858390    -0.023269035758    12.000000000000
         H            4.932475548138     1.195088858390    -0.042450035758     1.007825032230
         C            2.777420548138     1.250123858390    -0.025746035758    12.000000000000
         H            2.697647548138     2.327681858390    -0.046835035758     1.007825032230
         C            1.623506548138     0.470113858390    -0.000552035758    12.000000000000
         H            0.643596548138     0.933776858390    -0.002215035758     1.007825032230

  Charge       = 0
  Multiplicity = 1
  Basis Set: AUG-CC-PVQZ
    Blend: AUG-CC-PVQZ
  Basis Set: (AUG-CC-PVQZ AUX)
    Blend: AUG-CC-PVQZ-JKFIT

    Orbital Energies [Eh]
    ---------------------

    Doubly Occupied:

       1A    -15.559497     2A    -15.559490     3A    -11.270243
       4A    -11.270235     5A    -11.262012     6A    -11.262001
       7A    -11.254221     8A    -11.254214     9A    -11.235698
      10A    -11.235692    11A    -11.233259    12A    -11.233251
      13A     -1.251609    14A     -1.249358    15A     -1.084310
      16A     -1.083756    17A     -1.028171    18A     -1.025744
      19A     -0.854493    20A     -0.853895    21A     -0.851643
      22A     -0.846471    23A     -0.723865    24A     -0.709414
      25A     -0.655512    26A     -0.655196    27A     -0.647675
      28A     -0.646492    29A     -0.596031    30A     -0.591382
      31A     -0.577408    32A     -0.563286    33A     -0.537082
      34A     -0.534579    35A     -0.513210    36A     -0.513086
      37A     -0.428339    38A     -0.403039    39A     -0.380905
      40A     -0.378756    41A     -0.341967    42A     -0.340191

  @DF-RHF Final Energy:  -493.58509194118091

   => Energetics <=

    Nuclear Repulsion Energy =            583.2713089494699261
    One-Electron Energy =               -1824.7194490255365054
    Two-Electron Energy =                 747.8630481348855028
    Total Energy =                       -493.5850919411809627

  Dipole Moment: [D]
     X:     0.0007      Y:    -0.0011      Z:    -0.0349     Total:     0.0350

  Basis Set: (AUG-CC-PVQZ AUX)
    Blend: AUG-CC-PVQZ-RI
	 Reference Energy          =    -493.5850919411809059 [Eh]
	 Singles Energy            =      -0.0000000000000000 [Eh]
	 Same-Spin Energy          =      -0.5721288783059392 [Eh]
	 Opposite-Spin Energy      =      -1.8896207302421288 [Eh]
	 Correlation Energy        =      -2.4617496085480681 [Eh]
	 Total Energy              =    -496.0468415497289811 [Eh]

	 ================> DF-SCS-MP2 Energies <==================
	-----------------------------------------------------------
	 SCS Same-Spin Scale       =       0.3333333333333333 [-]
	 SCS Opposite-Spin Scale   =       1.2000000000000000 [-]
	 SCS Same-Spin Energy      =      -0.1907096261019797 [Eh]
	 SCS Opposite-Spin Energy  =      -2.2675448762905543 [Eh]
	 SCS Correlation Energy    =      -2.4582545023925340 [Eh]
	 SCS Total Energy          =    -496.0433464435734550 [Eh]
	-----------------------------------------------------------

*** Psi4 exiting successfully. Buy a developer a beer!
