                               Psi4 1.4a2.dev224

  ==> Input File <==

--------------------------------------------------------------------------
#Generated by lconvert.py for cbs job

memory 20 GB

molecule  {
0 1
  N      -0.941210    0.790040    0.011720
  C      -0.922750   -0.552380    0.035380
  H       0.057240   -1.015590    0.051350
  C      -2.076520   -1.333020    0.039290
  H      -1.996530   -2.410590    0.058880
  C      -3.316310   -0.703340    0.017600
  H      -4.231580   -1.279080    0.019790
  C      -3.348900    0.687020   -0.007090
  H      -4.285440    1.226110   -0.024660
  C      -2.143100    1.382630   -0.008890
  H      -2.138100    2.465650   -0.027780
--
0 1
  N       4.795490   -0.890110    0.035240
  C       5.997270   -1.483280    0.037320
  H       5.992050   -2.566240    0.059200
  C       7.203200   -0.788320    0.013310
  H       8.139640   -1.327860    0.016410
  C       7.170890    0.601980   -0.014430
  H       8.086260    1.177230   -0.033610
  C       5.931210    1.232270   -0.016910
  H       5.851440    2.309830   -0.038000
  C       4.777290    0.452260    0.008280
  H       3.797380    0.915920    0.006620
units angstrom
no_reorient
symmetry c1
}

set {
scf_type DF
mp2_type DF
e_convergence 7
reference rhf
}

energy('mp2/aug-cc-pv[tq]z', bsse_type='cp')
--------------------------------------------------------------------------

    Molecular point group: c1
  Charge       = 0
  Multiplicity = 1
  Basis Set: AUG-CC-PVTZ
    Blend: AUG-CC-PVTZ
  Basis Set: (AUG-CC-PVTZ AUX)
    Blend: AUG-CC-PVTZ-JKFIT
  @DF-RHF Final Energy:  -246.77852306933030
    Total Energy =                       -246.7785230693303333
  Basis Set: (AUG-CC-PVTZ AUX)
    Blend: AUG-CC-PVTZ-RI
	 Reference Energy          =    -246.7785230693303049 [Eh]
	 Singles Energy            =      -0.0000000000000000 [Eh]
	 Same-Spin Energy          =      -0.2688251785460011 [Eh]
	 Opposite-Spin Energy      =      -0.8389105426510581 [Eh]
	 Correlation Energy        =      -1.1077357211970593 [Eh]
	 Total Energy              =    -247.8862587905273642 [Eh]
	 SCS Total Energy          =    -247.8748241133602335 [Eh]
    Molecular point group: c1
  Basis Set: AUG-CC-PVQZ
    Blend: AUG-CC-PVQZ
  Basis Set: (AUG-CC-PVQZ AUX)
    Blend: AUG-CC-PVQZ-JKFIT
  @DF-RHF Final Energy:  -246.79266090912989
    Total Energy =                       -246.7926609091298928
  Basis Set: (AUG-CC-PVQZ AUX)
  @DF-RHF Final Energy:  -246.77853458804168
    Total Energy =                       -246.7785345880416799
  @DF-RHF Final Energy:  -246.79266546279806
    Total Energy =                       -246.7926654627980270
  @DF-RHF Final Energy:  -246.77853480415251
    Total Energy =                       -246.7785348041525140
  @DF-RHF Final Energy:  -246.79266568353137
    Total Energy =                       -246.7926656835313679
  @DF-RHF Final Energy:  -246.77852328640446
    Total Energy =                       -246.7785232864044929
  @DF-RHF Final Energy:  -246.79266112691445
    Total Energy =                       -246.7926611269144814
  Multiplicity = 1
  @DF-RHF Final Energy:  -493.55761778098974
    Total Energy =                       -493.5576177809897445
	 Singles Energy            =      -0.0000000000000000 [Eh]
	 Same-Spin Energy          =      -0.5378366124950923 [Eh]
	 Opposite-Spin Energy      =      -1.6783658319842953 [Eh]
	 Correlation Energy        =      -2.2162024444793875 [Eh]
	 Total Energy              =    -495.7738202254691373 [Eh]
	 SCS Total Energy          =    -495.7509356502026208 [Eh]
    Molecular point group: c1

    Geometry (in Angstrom), charge = 0, multiplicity = 1:

       Center              X                  Y                   Z               Mass
    ------------   -----------------  -----------------  -----------------  -----------------
         N           -2.868422919985     0.840392953026    -0.000885889918    14.003074004430
         C           -2.849962919985    -0.502027046974     0.022774110082    12.000000000000
         H           -1.869972919985    -0.965237046974     0.038744110082     1.007825032230
         C           -4.003732919985    -1.282667046974     0.026684110082    12.000000000000
         H           -3.923742919985    -2.360237046974     0.046274110082     1.007825032230
         C           -5.243522919985    -0.652987046974     0.004994110082    12.000000000000
         H           -6.158792919985    -1.228727046974     0.007184110082     1.007825032230
         C           -5.276112919985     0.737372953026    -0.019695889918    12.000000000000
         H           -6.212652919985     1.276462953026    -0.037265889918     1.007825032230
         C           -4.070312919985     1.432982953026    -0.021495889918    12.000000000000
         H           -4.065312919985     2.516002953026    -0.040385889918     1.007825032230
         N            2.868277080015    -0.839757046974     0.022634110082    14.003074004430
         C            4.070057080015    -1.432927046974     0.024714110082    12.000000000000
         H            4.064837080015    -2.515887046974     0.046594110082     1.007825032230
         C            5.275987080015    -0.737967046974     0.000704110082    12.000000000000
         H            6.212427080015    -1.277507046974     0.003804110082     1.007825032230
         C            5.243677080015     0.652332953026    -0.027035889918    12.000000000000
         H            6.159047080015     1.227582953026    -0.046215889918     1.007825032230
         C            4.003997080015     1.282622953026    -0.029515889918    12.000000000000
         H            3.924227080015     2.360182953026    -0.050605889918     1.007825032230
         C            2.850077080015     0.502612953026    -0.004325889918    12.000000000000
         H            1.870167080015     0.966272953026    -0.005985889918     1.007825032230

  Charge       = 0
  Multiplicity = 1
  Basis Set: AUG-CC-PVQZ
    Blend: AUG-CC-PVQZ
  Basis Set: (AUG-CC-PVQZ AUX)
    Blend: AUG-CC-PVQZ-JKFIT

    Orbital Energies [Eh]
    ---------------------

    Doubly Occupied:

       1A    -15.562385     2A    -15.562383     3A    -11.271670
       4A    -11.271669     5A    -11.271352     6A    -11.271351
       7A    -11.256775     8A    -11.256774     9A    -11.238721
      10A    -11.238720    11A    -11.238210    12A    -11.238208
      13A     -1.252549    14A     -1.252545    15A     -1.086677
      16A     -1.086675    17A     -1.030679    18A     -1.030670
      19A     -0.856568    20A     -0.856561    21A     -0.852754
      22A     -0.852718    23A     -0.719238    24A     -0.719103
      25A     -0.657669    26A     -0.657667    27A     -0.651535
      28A     -0.651503    29A     -0.595828    30A     -0.595715
      31A     -0.574888    32A     -0.574708    33A     -0.538260
      34A     -0.538239    35A     -0.517580    36A     -0.517488
      37A     -0.416851    38A     -0.416485    39A     -0.381327
      40A     -0.381293    41A     -0.345236    42A     -0.345204

  @DF-RHF Final Energy:  -493.58587734752103

   => Energetics <=

    Nuclear Repulsion Energy =            529.1531400093872435
    One-Electron Energy =               -1716.2131614454669943
    Two-Electron Energy =                 693.4741440885586599
    Total Energy =                       -493.5858773475210910

  Dipole Moment: [D]
     X:     0.0003      Y:    -0.0011      Z:    -0.0363     Total:     0.0363

  Basis Set: (AUG-CC-PVQZ AUX)
    Blend: AUG-CC-PVQZ-RI
	 Reference Energy          =    -493.5858773475210342 [Eh]
	 Singles Energy            =      -0.0000000000000000 [Eh]
	 Same-Spin Energy          =      -0.5685577996861182 [Eh]
	 Opposite-Spin Energy      =      -1.8852354407551100 [Eh]
	 Correlation Energy        =      -2.4537932404412279 [Eh]
	 Total Energy              =    -496.0396705879622345 [Eh]

	 ================> DF-SCS-MP2 Energies <==================
	-----------------------------------------------------------
	 SCS Same-Spin Scale       =       0.3333333333333333 [-]
	 SCS Opposite-Spin Scale   =       1.2000000000000000 [-]
	 SCS Same-Spin Energy      =      -0.1895192665620394 [Eh]
	 SCS Opposite-Spin Energy  =      -2.2622825289061317 [Eh]
	 SCS Correlation Energy    =      -2.4518017954681710 [Eh]
	 SCS Total Energy          =    -496.0376791429891910 [Eh]
	-----------------------------------------------------------

*** Psi4 exiting successfully. Buy a developer a beer!
