                               Psi4 1.4a2.dev224

  ==> Input File <==

--------------------------------------------------------------------------
#Generated by lconvert.py for cbs job

memory 20 GB

molecule  {
0 1
  N      -0.941210    0.790040    0.011720
  C      -0.922750   -0.552380    0.035380
  H       0.057240   -1.015590    0.051350
  C      -2.076520   -1.333020    0.039290
  H      -1.996530   -2.410590    0.058880
  C      -3.316310   -0.703340    0.017600
  H      -4.231580   -1.279080    0.019790
  C      -3.348900    0.687020   -0.007090
  H      -4.285440    1.226110   -0.024660
  C      -2.143100    1.382630   -0.008890
  H      -2.138100    2.465650   -0.027780
--
0 1
  N       3.363930   -0.928010    0.040340
  C       4.565710   -1.521180    0.042420
  H       4.560480   -2.604150    0.064310
  C       5.771640   -0.826220    0.018420
  H       6.708080   -1.365760    0.021510
  C       5.739320    0.564080   -0.009330
  H       6.654700    1.139330   -0.028510
  C       4.499640    1.194370   -0.011800
  H       4.419870    2.271920   -0.032890
  C       3.345730    0.414360    0.013390
  H       2.365820    0.878020    0.011730
units angstrom
no_reorient
symmetry c1
}

set {
scf_type DF
mp2_type DF
e_convergence 7
reference rhf
}

energy('mp2/aug-cc-pv[tq]z', bsse_type='cp')
--------------------------------------------------------------------------

    Molecular point group: c1
  Charge       = 0
  Multiplicity = 1
  Basis Set: AUG-CC-PVTZ
    Blend: AUG-CC-PVTZ
  Basis Set: (AUG-CC-PVTZ AUX)
    Blend: AUG-CC-PVTZ-JKFIT
  @DF-RHF Final Energy:  -246.77852321886715
    Total Energy =                       -246.7785232188671216
  Basis Set: (AUG-CC-PVTZ AUX)
    Blend: AUG-CC-PVTZ-RI
	 Reference Energy          =    -246.7785232188671500 [Eh]
	 Singles Energy            =      -0.0000000000000000 [Eh]
	 Same-Spin Energy          =      -0.2688251689041822 [Eh]
	 Opposite-Spin Energy      =      -0.8389104716544817 [Eh]
	 Correlation Energy        =      -1.1077356405586638 [Eh]
	 Total Energy              =    -247.8862588594258227 [Eh]
	 SCS Total Energy          =    -247.8748241744872587 [Eh]
    Molecular point group: c1
  Basis Set: AUG-CC-PVQZ
    Blend: AUG-CC-PVQZ
  Basis Set: (AUG-CC-PVQZ AUX)
    Blend: AUG-CC-PVQZ-JKFIT
  @DF-RHF Final Energy:  -246.79266106297786
    Total Energy =                       -246.7926610629778565
  Basis Set: (AUG-CC-PVQZ AUX)
  @DF-RHF Final Energy:  -246.77856905489986
    Total Energy =                       -246.7785690548998900
  @DF-RHF Final Energy:  -246.79267436810034
    Total Energy =                       -246.7926743681003359
  @DF-RHF Final Energy:  -246.77856911243668
    Total Energy =                       -246.7785691124366849
  @DF-RHF Final Energy:  -246.79267443079539
    Total Energy =                       -246.7926744307953868
  @DF-RHF Final Energy:  -246.77852328551344
    Total Energy =                       -246.7785232855134723
  @DF-RHF Final Energy:  -246.79266112743437
    Total Energy =                       -246.7926611274343713
  Multiplicity = 1
  @DF-RHF Final Energy:  -493.55920504471305
    Total Energy =                       -493.5592050447130532
	 Singles Energy            =      -0.0000000000000000 [Eh]
	 Same-Spin Energy          =      -0.5385549077795337 [Eh]
	 Opposite-Spin Energy      =      -1.6800595992366163 [Eh]
	 Correlation Energy        =      -2.2186145070161500 [Eh]
	 Total Energy              =    -495.7778195517291806 [Eh]
	 SCS Total Energy          =    -495.7547948663901707 [Eh]
    Molecular point group: c1

    Geometry (in Angstrom), charge = 0, multiplicity = 1:

       Center              X                  Y                   Z               Mass
    ------------   -----------------  -----------------  -----------------  -----------------
         N           -2.152641274304     0.859343080531    -0.003438358439    14.003074004430
         C           -2.134181274304    -0.483076919469     0.020221641561    12.000000000000
         H           -1.154191274304    -0.946286919469     0.036191641561     1.007825032230
         C           -3.287951274304    -1.263716919469     0.024131641561    12.000000000000
         H           -3.207961274304    -2.341286919469     0.043721641561     1.007825032230
         C           -4.527741274304    -0.634036919469     0.002441641561    12.000000000000
         H           -5.443011274304    -1.209776919469     0.004631641561     1.007825032230
         C           -4.560331274304     0.756323080531    -0.022248358439    12.000000000000
         H           -5.496871274304     1.295413080531    -0.039818358439     1.007825032230
         C           -3.354531274304     1.451933080531    -0.024048358439    12.000000000000
         H           -3.349531274304     2.534953080531    -0.042938358439     1.007825032230
         N            2.152498725696    -0.858706919469     0.025181641561    14.003074004430
         C            3.354278725696    -1.451876919469     0.027261641561    12.000000000000
         H            3.349048725696    -2.534846919469     0.049151641561     1.007825032230
         C            4.560208725696    -0.756916919469     0.003261641561    12.000000000000
         H            5.496648725696    -1.296456919469     0.006351641561     1.007825032230
         C            4.527888725696     0.633383080531    -0.024488358439    12.000000000000
         H            5.443268725696     1.208633080531    -0.043668358439     1.007825032230
         C            3.288208725696     1.263673080531    -0.026958358439    12.000000000000
         H            3.208438725696     2.341223080531    -0.048048358439     1.007825032230
         C            2.134298725696     0.483663080531    -0.001768358439    12.000000000000
         H            1.154388725696     0.947323080531    -0.003428358439     1.007825032230

  Charge       = 0
  Multiplicity = 1
  Basis Set: AUG-CC-PVQZ
    Blend: AUG-CC-PVQZ
  Basis Set: (AUG-CC-PVQZ AUX)
    Blend: AUG-CC-PVQZ-JKFIT

    Orbital Energies [Eh]
    ---------------------

    Doubly Occupied:

       1A    -15.561548     2A    -15.561545     3A    -11.270961
       4A    -11.270957     5A    -11.268920     6A    -11.268918
       7A    -11.255707     8A    -11.255704     9A    -11.237576
      10A    -11.237574    11A    -11.236473    12A    -11.236471
      13A     -1.251635    14A     -1.251465    15A     -1.085568
      16A     -1.085518    17A     -1.029389    18A     -1.029141
      19A     -0.855308    20A     -0.855067    21A     -0.851935
      22A     -0.851084    23A     -0.718936    24A     -0.716704
      25A     -0.656478    26A     -0.656466    27A     -0.650034
      28A     -0.649831    29A     -0.594835    30A     -0.593618
      31A     -0.574960    32A     -0.572483    33A     -0.537364
      34A     -0.537021    35A     -0.516208    36A     -0.515600
      37A     -0.418426    38A     -0.413937    39A     -0.380671
      40A     -0.380289    41A     -0.343903    42A     -0.343581

  @DF-RHF Final Energy:  -493.58740810111851

   => Energetics <=

    Nuclear Repulsion Energy =            555.4386742481367492
    One-Electron Energy =               -1768.8925392018807088
    Two-Electron Energy =                 719.8664568526254470
    Total Energy =                       -493.5874081011185126

  Dipole Moment: [D]
     X:     0.0004      Y:    -0.0011      Z:    -0.0359     Total:     0.0359

  Basis Set: (AUG-CC-PVQZ AUX)
    Blend: AUG-CC-PVQZ-RI
	 Reference Energy          =    -493.5874081011185126 [Eh]
	 Singles Energy            =      -0.0000000000000000 [Eh]
	 Same-Spin Energy          =      -0.5692386509270176 [Eh]
	 Opposite-Spin Energy      =      -1.8861968030416976 [Eh]
	 Correlation Energy        =      -2.4554354539687151 [Eh]
	 Total Energy              =    -496.0428435550872450 [Eh]

	 ================> DF-SCS-MP2 Energies <==================
	-----------------------------------------------------------
	 SCS Same-Spin Scale       =       0.3333333333333333 [-]
	 SCS Opposite-Spin Scale   =       1.2000000000000000 [-]
	 SCS Same-Spin Energy      =      -0.1897462169756725 [Eh]
	 SCS Opposite-Spin Energy  =      -2.2634361636500371 [Eh]
	 SCS Correlation Energy    =      -2.4531823806257096 [Eh]
	 SCS Total Energy          =    -496.0405904817442320 [Eh]
	-----------------------------------------------------------

*** Psi4 exiting successfully. Buy a developer a beer!
