                               Psi4 1.4a2.dev224

  ==> Input File <==

--------------------------------------------------------------------------
#Generated by lconvert.py for cbs job

memory 40 GB

molecule  {
0 1
  N       -0.9412110     0.7900410     0.0117190
  C       -0.9227550    -0.5523780     0.0353790
  H        0.0572410    -1.0155880     0.0513550
  C       -2.0765190    -1.3330180     0.0392900
  H       -1.9965290    -2.4105860     0.0588770
  C       -3.3163130    -0.7033400     0.0175990
  H       -4.2315750    -1.2790840     0.0197940
  C       -3.3488950     0.6870190    -0.0070860
  H       -4.2854440     1.2261050    -0.0246590
  C       -2.1431040     1.3826340    -0.0088900
  H       -2.1381000     2.4656530    -0.0277830
--
0 1
  N        2.7162460    -0.9451690     0.0422720
  C        3.9180250    -1.5383450     0.0443520
  H        3.9128010    -2.6213070     0.0662410
  C        5.1239610    -0.8433860     0.0203500
  H        6.0603990    -1.3829210     0.0234440
  C        5.0916430     0.5469180    -0.0073960
  H        6.0070180     1.1221690    -0.0265780
  C        3.8519630     1.1772040    -0.0098730
  H        3.7721900     2.2547630    -0.0309620
  C        2.6980490     0.3971950     0.0153200
  H        1.7181390     0.8608570     0.0136570
units angstrom
no_reorient
symmetry c1
}

set {
scf_type DF
mp2_type DF
e_convergence 7
reference rhf
}

energy('mp2/aug-cc-pv[tq]z', bsse_type='cp')
--------------------------------------------------------------------------

    Molecular point group: c1
  Charge       = 0
  Multiplicity = 1
  Basis Set: AUG-CC-PVTZ
    Blend: AUG-CC-PVTZ
  Basis Set: (AUG-CC-PVTZ AUX)
    Blend: AUG-CC-PVTZ-JKFIT
  @DF-RHF Final Energy:  -246.77852327554632
    Total Energy =                       -246.7785232755463198
  Basis Set: (AUG-CC-PVTZ AUX)
    Blend: AUG-CC-PVTZ-RI
	 Reference Energy          =    -246.7785232755463198 [Eh]
	 Singles Energy            =      -0.0000000000000000 [Eh]
	 Same-Spin Energy          =      -0.2688251395153483 [Eh]
	 Opposite-Spin Energy      =      -0.8389104268271729 [Eh]
	 Correlation Energy        =      -1.1077355663425212 [Eh]
	 Total Energy              =    -247.8862588418888322 [Eh]
	 SCS Total Energy          =    -247.8748241675773727 [Eh]
    Molecular point group: c1
  Basis Set: AUG-CC-PVQZ
    Blend: AUG-CC-PVQZ
  Basis Set: (AUG-CC-PVQZ AUX)
    Blend: AUG-CC-PVQZ-JKFIT
  @DF-RHF Final Energy:  -246.79266112121473
    Total Energy =                       -246.7926611212147350
  Basis Set: (AUG-CC-PVQZ AUX)
  @DF-RHF Final Energy:  -246.77860473635820
    Total Energy =                       -246.7786047363582043
  @DF-RHF Final Energy:  -246.79268308315721
    Total Energy =                       -246.7926830831572147
  @DF-RHF Final Energy:  -246.77860473133285
    Total Energy =                       -246.7786047313328481
  @DF-RHF Final Energy:  -246.79268307844106
    Total Energy =                       -246.7926830784410868
  @DF-RHF Final Energy:  -246.77852327291302
    Total Energy =                       -246.7785232729129916
  @DF-RHF Final Energy:  -246.79266111571008
    Total Energy =                       -246.7926611157100751
  Multiplicity = 1
  @DF-RHF Final Energy:  -493.55980055846231
    Total Energy =                       -493.5598005584622570
	 Singles Energy            =      -0.0000000000000000 [Eh]
	 Same-Spin Energy          =      -0.5398471778402648 [Eh]
	 Opposite-Spin Energy      =      -1.6822768909389001 [Eh]
	 Correlation Energy        =      -2.2221240687791650 [Eh]
	 Total Energy              =    -495.7819246272414944 [Eh]
	 SCS Total Energy          =    -495.7584818868691059 [Eh]
    Molecular point group: c1

    Geometry (in Angstrom), charge = 0, multiplicity = 1:

       Center              X                  Y                   Z               Mass
    ------------   -----------------  -----------------  -----------------  -----------------
         N           -1.828801451862     0.867925187446    -0.004404864815    14.003074004430
         C           -1.810345451862    -0.474493812554     0.019255135185    12.000000000000
         H           -0.830349451862    -0.937703812554     0.035231135185     1.007825032230
         C           -2.964109451862    -1.255133812554     0.023166135185    12.000000000000
         H           -2.884119451862    -2.332701812554     0.042753135185     1.007825032230
         C           -4.203903451862    -0.625455812554     0.001475135185    12.000000000000
         H           -5.119165451862    -1.201199812554     0.003670135185     1.007825032230
         C           -4.236485451862     0.764903187446    -0.023209864815    12.000000000000
         H           -5.173034451862     1.303989187446    -0.040782864815     1.007825032230
         C           -3.030694451862     1.460518187446    -0.025013864815    12.000000000000
         H           -3.025690451862     2.543537187446    -0.043906864815     1.007825032230
         N            1.828655548138    -0.867284812554     0.026148135185    14.003074004430
         C            3.030434548138    -1.460460812554     0.028228135185    12.000000000000
         H            3.025210548138    -2.543422812554     0.050117135185     1.007825032230
         C            4.236370548138    -0.765501812554     0.004226135185    12.000000000000
         H            5.172808548138    -1.305036812554     0.007320135185     1.007825032230
         C            4.204052548138     0.624802187446    -0.023519864815    12.000000000000
         H            5.119427548138     1.200053187446    -0.042701864815     1.007825032230
         C            2.964372548138     1.255088187446    -0.025996864815    12.000000000000
         H            2.884599548138     2.332647187446    -0.047085864815     1.007825032230
         C            1.810458548138     0.475079187446    -0.000803864815    12.000000000000
         H            0.830548548138     0.938741187446    -0.002466864815     1.007825032230

  Charge       = 0
  Multiplicity = 1
  Basis Set: AUG-CC-PVQZ
    Blend: AUG-CC-PVQZ
  Basis Set: (AUG-CC-PVQZ AUX)
    Blend: AUG-CC-PVQZ-JKFIT

    Orbital Energies [Eh]
    ---------------------

    Doubly Occupied:

       1A    -15.560749     2A    -15.560744     3A    -11.270574
       4A    -11.270569     5A    -11.265912     6A    -11.265906
       7A    -11.254921     8A    -11.254916     9A    -11.236627
      10A    -11.236623    11A    -11.234872    12A    -11.234867
      13A     -1.251366    14A     -1.250484    15A     -1.084829
      16A     -1.084601    17A     -1.028604    18A     -1.027538
      19A     -0.854645    20A     -0.853492    21A     -0.852356
      22A     -0.848974    23A     -0.720678    24A     -0.713260
      25A     -0.655765    26A     -0.655604    27A     -0.648559
      28A     -0.648470    29A     -0.594909    30A     -0.591916
      31A     -0.576337    32A     -0.568635    33A     -0.537061
      34A     -0.535854    35A     -0.514830    36A     -0.514035
      37A     -0.422995    38A     -0.409337    39A     -0.380633
      40A     -0.379488    41A     -0.342890    42A     -0.341948

  @DF-RHF Final Energy:  -493.58795611365514

   => Energetics <=

    Nuclear Repulsion Energy =            571.8542275506893020
    One-Electron Energy =               -1801.8096183112049857
    Two-Electron Energy =                 736.3674346468606018
    Total Energy =                       -493.5879561136550819

  Dipole Moment: [D]
     X:     0.0005      Y:    -0.0011      Z:    -0.0355     Total:     0.0355

  Basis Set: (AUG-CC-PVQZ AUX)
    Blend: AUG-CC-PVQZ-RI
	 Reference Energy          =    -493.5879561136551388 [Eh]
	 Singles Energy            =      -0.0000000000000000 [Eh]
	 Same-Spin Energy          =      -0.5704892429406521 [Eh]
	 Opposite-Spin Energy      =      -1.8877228123870815 [Eh]
	 Correlation Energy        =      -2.4582120553277336 [Eh]
	 Total Energy              =    -496.0461681689828879 [Eh]

	 ================> DF-SCS-MP2 Energies <==================
	-----------------------------------------------------------
	 SCS Same-Spin Scale       =       0.3333333333333333 [-]
	 SCS Opposite-Spin Scale   =       1.2000000000000000 [-]
	 SCS Same-Spin Energy      =      -0.1901630809802173 [Eh]
	 SCS Opposite-Spin Energy  =      -2.2652673748644978 [Eh]
	 SCS Correlation Energy    =      -2.4554304558447151 [Eh]
	 SCS Total Energy          =    -496.0433865694998303 [Eh]
	-----------------------------------------------------------

*** Psi4 exiting successfully. Buy a developer a beer!
