                               Psi4 1.4a2.dev224

  ==> Input File <==

--------------------------------------------------------------------------
#Generated by lconvert.py for cbs job

memory 40 GB

molecule  {
0 1
  N       -0.9412110     0.7900410     0.0117190
  C       -0.9227550    -0.5523780     0.0353790
  H        0.0572410    -1.0155880     0.0513550
  C       -2.0765190    -1.3330180     0.0392900
  H       -1.9965290    -2.4105860     0.0588770
  C       -3.3163130    -0.7033400     0.0175990
  H       -4.2315750    -1.2790840     0.0197940
  C       -3.3488950     0.6870190    -0.0070860
  H       -4.2854440     1.2261050    -0.0246590
  C       -2.1431040     1.3826340    -0.0088900
  H       -2.1381000     2.4656530    -0.0277830
--
0 1
  N        1.7274010    -0.9713650     0.0453980
  C        2.9291800    -1.5645420     0.0474780
  H        2.9239560    -2.6475040     0.0693670
  C        4.1351160    -0.8695830     0.0234770
  H        5.0715540    -1.4091180     0.0265710
  C        4.1027980     0.5207210    -0.0042700
  H        5.0181730     1.0959720    -0.0234520
  C        2.8631180     1.1510080    -0.0067470
  H        2.7833450     2.2285660    -0.0278360
  C        1.7092040     0.3709980     0.0184460
  H        0.7292940     0.8346600     0.0167840
units angstrom
no_reorient
symmetry c1
}

set {
scf_type DF
mp2_type DF
e_convergence 7
reference rhf
}

energy('mp2/aug-cc-pv[tq]z', bsse_type='cp')
--------------------------------------------------------------------------

    Molecular point group: c1
  Charge       = 0
  Multiplicity = 1
  Basis Set: AUG-CC-PVTZ
    Blend: AUG-CC-PVTZ
  Basis Set: (AUG-CC-PVTZ AUX)
    Blend: AUG-CC-PVTZ-JKFIT
  @DF-RHF Final Energy:  -246.77852330337873
    Total Energy =                       -246.7785233033787335
  Basis Set: (AUG-CC-PVTZ AUX)
    Blend: AUG-CC-PVTZ-RI
	 Reference Energy          =    -246.7785233033787335 [Eh]
	 Singles Energy            =      -0.0000000000000000 [Eh]
	 Same-Spin Energy          =      -0.2688251325828641 [Eh]
	 Opposite-Spin Energy      =      -0.8389104113938121 [Eh]
	 Correlation Energy        =      -1.1077355439766761 [Eh]
	 Total Energy              =    -247.8862588473554069 [Eh]
	 SCS Total Energy          =    -247.8748241745789187 [Eh]
    Molecular point group: c1
  Basis Set: AUG-CC-PVQZ
    Blend: AUG-CC-PVQZ
  Basis Set: (AUG-CC-PVQZ AUX)
    Blend: AUG-CC-PVQZ-JKFIT
  @DF-RHF Final Energy:  -246.79266114717711
    Total Energy =                       -246.7926611471771139
  Basis Set: (AUG-CC-PVQZ AUX)
  @DF-RHF Final Energy:  -246.77871691335210
    Total Energy =                       -246.7787169133521274
  @DF-RHF Final Energy:  -246.79271183165454
    Total Energy =                       -246.7927118316545716
  @DF-RHF Final Energy:  -246.77871686607446
    Total Energy =                       -246.7787168660744328
  @DF-RHF Final Energy:  -246.79271180030938
    Total Energy =                       -246.7927118003093483
  @DF-RHF Final Energy:  -246.77852327335214
    Total Energy =                       -246.7785232733521639
  @DF-RHF Final Energy:  -246.79266111515577
    Total Energy =                       -246.7926611151557950
  Multiplicity = 1
  @DF-RHF Final Energy:  -493.51597072309369
    Total Energy =                       -493.5159707230936874
	 Singles Energy            =      -0.0000000000000000 [Eh]
	 Same-Spin Energy          =      -0.5480016867408967 [Eh]
	 Opposite-Spin Energy      =      -1.6931197687426884 [Eh]
	 Correlation Energy        =      -2.2411214554835852 [Eh]
	 Total Energy              =    -495.7570921785772953 [Eh]
	 SCS Total Energy          =    -495.7303816744985738 [Eh]
    Molecular point group: c1

    Geometry (in Angstrom), charge = 0, multiplicity = 1:

       Center              X                  Y                   Z               Mass
    ------------   -----------------  -----------------  -----------------  -----------------
         N           -1.334378951862     0.881023522958    -0.005967953474    14.003074004430
         C           -1.315922951862    -0.461395477042     0.017692046526    12.000000000000
         H           -0.335926951862    -0.924605477042     0.033668046526     1.007825032230
         C           -2.469686951862    -1.242035477042     0.021603046526    12.000000000000
         H           -2.389696951862    -2.319603477042     0.041190046526     1.007825032230
         C           -3.709480951862    -0.612357477042    -0.000087953474    12.000000000000
         H           -4.624742951862    -1.188101477042     0.002107046526     1.007825032230
         C           -3.742062951862     0.778001522958    -0.024772953474    12.000000000000
         H           -4.678611951862     1.317087522958    -0.042345953474     1.007825032230
         C           -2.536271951862     1.473616522958    -0.026576953474    12.000000000000
         H           -2.531267951862     2.556635522958    -0.045469953474     1.007825032230
         N            1.334233048138    -0.880382477042     0.027711046526    14.003074004430
         C            2.536012048138    -1.473559477042     0.029791046526    12.000000000000
         H            2.530788048138    -2.556521477042     0.051680046526     1.007825032230
         C            3.741948048138    -0.778600477042     0.005790046526    12.000000000000
         H            4.678386048138    -1.318135477042     0.008884046526     1.007825032230
         C            3.709630048138     0.611703522958    -0.021956953474    12.000000000000
         H            4.625005048138     1.186954522958    -0.041138953474     1.007825032230
         C            2.469950048138     1.241990522958    -0.024433953474    12.000000000000
         H            2.390177048138     2.319548522958    -0.045522953474     1.007825032230
         C            1.316036048138     0.461980522958     0.000759046526    12.000000000000
         H            0.336126048138     0.925642522958    -0.000902953474     1.007825032230

  Charge       = 0
  Multiplicity = 1
  Basis Set: AUG-CC-PVQZ
    Blend: AUG-CC-PVQZ
  Basis Set: (AUG-CC-PVQZ AUX)
    Blend: AUG-CC-PVQZ-JKFIT

    Orbital Energies [Eh]
    ---------------------

    Doubly Occupied:

       1A    -15.553716     2A    -15.553701     3A    -11.269416
       4A    -11.269399     5A    -11.252405     6A    -11.252390
       7A    -11.244147     8A    -11.244114     9A    -11.232715
      10A    -11.232701    11A    -11.227836    12A    -11.227819
      13A     -1.256379    14A     -1.245858    15A     -1.084459
      16A     -1.081924    17A     -1.028488    18A     -1.019376
      19A     -0.864372    20A     -0.857525    21A     -0.845077
      22A     -0.838037    23A     -0.738264    24A     -0.698107
      25A     -0.662734    26A     -0.656248    27A     -0.644229
      28A     -0.638865    29A     -0.603202    30A     -0.595924
      31A     -0.575517    32A     -0.544684    33A     -0.538846
      34A     -0.530488    35A     -0.513759    36A     -0.507888
      37A     -0.433904    38A     -0.383256    39A     -0.377453
      40A     -0.376001    41A     -0.339034    42A     -0.333846

  @DF-RHF Final Energy:  -493.54397856315995

   => Energetics <=

    Nuclear Repulsion Energy =            606.4113890683971704
    One-Electron Energy =               -1871.1625320167706832
    Two-Electron Energy =                 771.2071643852134457
    Total Energy =                       -493.5439785631599534

  Dipole Moment: [D]
     X:     0.0013      Y:    -0.0011      Z:    -0.0327     Total:     0.0328

  Basis Set: (AUG-CC-PVQZ AUX)
    Blend: AUG-CC-PVQZ-RI
	 Reference Energy          =    -493.5439785631599534 [Eh]
	 Singles Energy            =      -0.0000000000000000 [Eh]
	 Same-Spin Energy          =      -0.5786363865144535 [Eh]
	 Opposite-Spin Energy      =      -1.8968005605990803 [Eh]
	 Correlation Energy        =      -2.4754369471135336 [Eh]
	 Total Energy              =    -496.0194155102734612 [Eh]

	 ================> DF-SCS-MP2 Energies <==================
	-----------------------------------------------------------
	 SCS Same-Spin Scale       =       0.3333333333333333 [-]
	 SCS Opposite-Spin Scale   =       1.2000000000000000 [-]
	 SCS Same-Spin Energy      =      -0.1928787955048178 [Eh]
	 SCS Opposite-Spin Energy  =      -2.2761606727188961 [Eh]
	 SCS Correlation Energy    =      -2.4690394682237140 [Eh]
	 SCS Total Energy          =    -496.0130180313836945 [Eh]
	-----------------------------------------------------------

*** Psi4 exiting successfully. Buy a developer a beer!
