                               Psi4 1.4a2.dev224

  ==> Input File <==

--------------------------------------------------------------------------
#Generated by lconvert.py for cbs job

memory 40 GB

molecule  {
0 1
  N       -0.9412110     0.7900410     0.0117190
  C       -0.9227550    -0.5523780     0.0353790
  H        0.0572410    -1.0155880     0.0513550
  C       -2.0765190    -1.3330180     0.0392900
  H       -1.9965290    -2.4105860     0.0588770
  C       -3.3163130    -0.7033400     0.0175990
  H       -4.2315750    -1.2790840     0.0197940
  C       -3.3488950     0.6870190    -0.0070860
  H       -4.2854440     1.2261050    -0.0246590
  C       -2.1431040     1.3826340    -0.0088900
  H       -2.1381000     2.4656530    -0.0277830
--
0 1
  N        2.8867380    -0.9406410     0.0420430
  C        4.0885170    -1.5338170     0.0441230
  H        4.0832930    -2.6167800     0.0660120
  C        5.2944530    -0.8388590     0.0201210
  H        6.2308920    -1.3783940     0.0232150
  C        5.2621360     0.5514460    -0.0076250
  H        6.1775110     1.1266970    -0.0268070
  C        4.0224560     1.1817320    -0.0101020
  H        3.9426830     2.2592910    -0.0311910
  C        2.8685420     0.4017220     0.0150910
  H        1.8886320     0.8653850     0.0134280
units angstrom
no_reorient
symmetry c1
}

set {
scf_type DF
mp2_type DF
e_convergence 7
reference rhf
}

energy('mp2/aug-cc-pv[tq]z', bsse_type='cp')
--------------------------------------------------------------------------

    Molecular point group: c1
  Charge       = 0
  Multiplicity = 1
  Basis Set: AUG-CC-PVTZ
    Blend: AUG-CC-PVTZ
  Basis Set: (AUG-CC-PVTZ AUX)
    Blend: AUG-CC-PVTZ-JKFIT
  @DF-RHF Final Energy:  -246.77852327742667
    Total Energy =                       -246.7785232774267001
  Basis Set: (AUG-CC-PVTZ AUX)
    Blend: AUG-CC-PVTZ-RI
	 Reference Energy          =    -246.7785232774266717 [Eh]
	 Singles Energy            =      -0.0000000000000000 [Eh]
	 Same-Spin Energy          =      -0.2688251359331035 [Eh]
	 Opposite-Spin Energy      =      -0.8389104251569778 [Eh]
	 Correlation Energy        =      -1.1077355610900812 [Eh]
	 Total Energy              =    -247.8862588385167669 [Eh]
	 SCS Total Energy          =    -247.8748241662594012 [Eh]
    Molecular point group: c1
  Basis Set: AUG-CC-PVQZ
    Blend: AUG-CC-PVQZ
  Basis Set: (AUG-CC-PVQZ AUX)
    Blend: AUG-CC-PVQZ-JKFIT
  @DF-RHF Final Energy:  -246.79266111962727
    Total Energy =                       -246.7926611196272688
  Basis Set: (AUG-CC-PVQZ AUX)
  @DF-RHF Final Energy:  -246.77859466576996
    Total Energy =                       -246.7785946657699583
  @DF-RHF Final Energy:  -246.79268005507623
    Total Energy =                       -246.7926800550762323
  @DF-RHF Final Energy:  -246.77859464884497
    Total Energy =                       -246.7785946488449440
  @DF-RHF Final Energy:  -246.79268005307165
    Total Energy =                       -246.7926800530716491
  @DF-RHF Final Energy:  -246.77852327141295
    Total Energy =                       -246.7785232714129506
  @DF-RHF Final Energy:  -246.79266111532453
    Total Energy =                       -246.7926611153245631
  Multiplicity = 1
  @DF-RHF Final Energy:  -493.55989175135721
    Total Energy =                       -493.5598917513572133
	 Singles Energy            =      -0.0000000000000000 [Eh]
	 Same-Spin Energy          =      -0.5393685935259991 [Eh]
	 Opposite-Spin Energy      =      -1.6814776901226489 [Eh]
	 Correlation Energy        =      -2.2208462836486480 [Eh]
	 Total Energy              =    -495.7807380350058679 [Eh]
	 SCS Total Energy          =    -495.7574545106797359 [Eh]
    Molecular point group: c1

    Geometry (in Angstrom), charge = 0, multiplicity = 1:

       Center              X                  Y                   Z               Mass
    ------------   -----------------  -----------------  -----------------  -----------------
         N           -1.914047705089     0.865661352014    -0.004290364815    14.003074004430
         C           -1.895591705089    -0.476757647986     0.019369635185    12.000000000000
         H           -0.915595705089    -0.939967647986     0.035345635185     1.007825032230
         C           -3.049355705089    -1.257397647986     0.023280635185    12.000000000000
         H           -2.969365705089    -2.334965647986     0.042867635185     1.007825032230
         C           -4.289149705089    -0.627719647986     0.001589635185    12.000000000000
         H           -5.204411705089    -1.203463647986     0.003784635185     1.007825032230
         C           -4.321731705089     0.762639352014    -0.023095364815    12.000000000000
         H           -5.258280705089     1.301725352014    -0.040668364815     1.007825032230
         C           -3.115940705089     1.458254352014    -0.024899364815    12.000000000000
         H           -3.110936705089     2.541273352014    -0.043792364815     1.007825032230
         N            1.913901294911    -0.865020647986     0.026033635185    14.003074004430
         C            3.115680294911    -1.458196647986     0.028113635185    12.000000000000
         H            3.110456294911    -2.541159647986     0.050002635185     1.007825032230
         C            4.321616294911    -0.763238647986     0.004111635185    12.000000000000
         H            5.258055294911    -1.302773647986     0.007205635185     1.007825032230
         C            4.289299294911     0.627066352014    -0.023634364815    12.000000000000
         H            5.204674294911     1.202317352014    -0.042816364815     1.007825032230
         C            3.049619294911     1.257352352014    -0.026111364815    12.000000000000
         H            2.969846294911     2.334911352014    -0.047200364815     1.007825032230
         C            1.895705294911     0.477342352014    -0.000918364815    12.000000000000
         H            0.915795294911     0.941005352014    -0.002581364815     1.007825032230

  Charge       = 0
  Multiplicity = 1
  Basis Set: AUG-CC-PVQZ
    Blend: AUG-CC-PVQZ
  Basis Set: (AUG-CC-PVQZ AUX)
    Blend: AUG-CC-PVQZ-JKFIT

    Orbital Energies [Eh]
    ---------------------

    Doubly Occupied:

       1A    -15.561056     2A    -15.561051     3A    -11.270690
       4A    -11.270685     5A    -11.266999     6A    -11.266993
       7A    -11.255166     8A    -11.255162     9A    -11.236934
      10A    -11.236931    11A    -11.235399    12A    -11.235394
      13A     -1.251397    14A     -1.250823    15A     -1.085046
      16A     -1.084893    17A     -1.028819    18A     -1.028090
      19A     -0.854804    20A     -0.854035    21A     -0.852091
      22A     -0.849728    23A     -0.719910    24A     -0.714475
      25A     -0.655949    26A     -0.655856    27A     -0.649026
      28A     -0.648926    29A     -0.594769    30A     -0.592369
      31A     -0.575849    32A     -0.570098    33A     -0.537118
      34A     -0.536251    35A     -0.515312    36A     -0.514493
      37A     -0.421293    38A     -0.411070    39A     -0.380603
      40A     -0.379745    41A     -0.343208    42A     -0.342499

  @DF-RHF Final Energy:  -493.58805813399874

   => Energetics <=

    Nuclear Repulsion Energy =            567.1626589448064806
    One-Electron Energy =               -1792.3994215342697771
    Two-Electron Energy =                 731.6487044554645536
    Total Energy =                       -493.5880581339987430

  Dipole Moment: [D]
     X:     0.0005      Y:    -0.0011      Z:    -0.0356     Total:     0.0356

  Basis Set: (AUG-CC-PVQZ AUX)
    Blend: AUG-CC-PVQZ-RI
	 Reference Energy          =    -493.5880581339987430 [Eh]
	 Singles Energy            =      -0.0000000000000000 [Eh]
	 Same-Spin Energy          =      -0.5700248107738424 [Eh]
	 Opposite-Spin Energy      =      -1.8871720783369501 [Eh]
	 Correlation Energy        =      -2.4571968891107927 [Eh]
	 Total Energy              =    -496.0452550231095188 [Eh]

	 ================> DF-SCS-MP2 Energies <==================
	-----------------------------------------------------------
	 SCS Same-Spin Scale       =       0.3333333333333333 [-]
	 SCS Opposite-Spin Scale   =       1.2000000000000000 [-]
	 SCS Same-Spin Energy      =      -0.1900082702579474 [Eh]
	 SCS Opposite-Spin Energy  =      -2.2646064940043402 [Eh]
	 SCS Correlation Energy    =      -2.4546147642622875 [Eh]
	 SCS Total Energy          =    -496.0426728982610030 [Eh]
	-----------------------------------------------------------

*** Psi4 exiting successfully. Buy a developer a beer!
