                               Psi4 1.4a2.dev224

  ==> Input File <==

--------------------------------------------------------------------------
#Generated by lconvert.py for cbs job

memory 40 GB

molecule  {
0 1
  N       -0.9412110     0.7900410     0.0117190
  C       -0.9227550    -0.5523780     0.0353790
  H        0.0572410    -1.0155880     0.0513550
  C       -2.0765190    -1.3330180     0.0392900
  H       -1.9965290    -2.4105860     0.0588770
  C       -3.3163130    -0.7033400     0.0175990
  H       -4.2315750    -1.2790840     0.0197940
  C       -3.3488950     0.6870190    -0.0070860
  H       -4.2854440     1.2261050    -0.0246590
  C       -2.1431040     1.3826340    -0.0088900
  H       -2.1381000     2.4656530    -0.0277830
--
0 1
  N        2.2046870    -0.9587540     0.0429590
  C        3.4064660    -1.5519300     0.0450390
  H        3.4012420    -2.6348920     0.0669280
  C        4.6124020    -0.8569710     0.0210380
  H        5.5488410    -1.3965070     0.0241320
  C        4.5800850     0.5333330    -0.0067090
  H        5.4954600     1.1085840    -0.0258910
  C        3.3404040     1.1636190    -0.0091860
  H        3.2606320     2.2411780    -0.0302750
  C        2.1864910     0.3836100     0.0160080
  H        1.2065810     0.8472720     0.0143450
units angstrom
no_reorient
symmetry c1
}

set {
scf_type DF
mp2_type DF
e_convergence 7
reference rhf
}

energy('mp2/aug-cc-pv[tq]z', bsse_type='cp')
--------------------------------------------------------------------------

    Molecular point group: c1
  Charge       = 0
  Multiplicity = 1
  Basis Set: AUG-CC-PVTZ
    Blend: AUG-CC-PVTZ
  Basis Set: (AUG-CC-PVTZ AUX)
    Blend: AUG-CC-PVTZ-JKFIT
  @DF-RHF Final Energy:  -246.77852326267683
    Total Energy =                       -246.7785232626767993
  Basis Set: (AUG-CC-PVTZ AUX)
    Blend: AUG-CC-PVTZ-RI
	 Reference Energy          =    -246.7785232626768277 [Eh]
	 Singles Energy            =      -0.0000000000000000 [Eh]
	 Same-Spin Energy          =      -0.2688251413794739 [Eh]
	 Opposite-Spin Energy      =      -0.8389104369532405 [Eh]
	 Correlation Energy        =      -1.1077355783327145 [Eh]
	 Total Energy              =    -247.8862588410095498 [Eh]
	 SCS Total Energy          =    -247.8748241674805399 [Eh]
    Molecular point group: c1
  Basis Set: AUG-CC-PVQZ
    Blend: AUG-CC-PVQZ
  Basis Set: (AUG-CC-PVQZ AUX)
    Blend: AUG-CC-PVQZ-JKFIT
  @DF-RHF Final Energy:  -246.79266110931593
    Total Energy =                       -246.7926611093159295
  Basis Set: (AUG-CC-PVQZ AUX)
  @DF-RHF Final Energy:  -246.77864951662730
    Total Energy =                       -246.7786495166272971
  @DF-RHF Final Energy:  -246.79269452477058
    Total Energy =                       -246.7926945247705817
  @DF-RHF Final Energy:  -246.77864951563771
    Total Energy =                       -246.7786495156377100
  @DF-RHF Final Energy:  -246.79269453867289
    Total Energy =                       -246.7926945386728903
  @DF-RHF Final Energy:  -246.77852327191624
    Total Energy =                       -246.7785232719162423
  @DF-RHF Final Energy:  -246.79266111750695
    Total Energy =                       -246.7926611175069525
  Multiplicity = 1
  @DF-RHF Final Energy:  -493.55384725082672
    Total Energy =                       -493.5538472508267205
	 Singles Energy            =      -0.0000000000000000 [Eh]
	 Same-Spin Energy          =      -0.5424447176128344 [Eh]
	 Opposite-Spin Energy      =      -1.6860960971433592 [Eh]
	 Correlation Energy        =      -2.2285408147561938 [Eh]
	 Total Energy              =    -495.7823880655828930 [Eh]
	 SCS Total Energy          =    -495.7579774732697047 [Eh]
    Molecular point group: c1

    Geometry (in Angstrom), charge = 0, multiplicity = 1:

       Center              X                  Y                   Z               Mass
    ------------   -----------------  -----------------  -----------------  -----------------
         N           -1.573022129180     0.874717693822    -0.004748529383    14.003074004430
         C           -1.554566129180    -0.467701306178     0.018911470617    12.000000000000
         H           -0.574570129180    -0.930911306178     0.034887470617     1.007825032230
         C           -2.708330129180    -1.248341306178     0.022822470617    12.000000000000
         H           -2.628340129180    -2.325909306178     0.042409470617     1.007825032230
         C           -3.948124129180    -0.618663306178     0.001131470617    12.000000000000
         H           -4.863386129180    -1.194407306178     0.003326470617     1.007825032230
         C           -3.980706129180     0.771695693822    -0.023553529383    12.000000000000
         H           -4.917255129180     1.310781693822    -0.041126529383     1.007825032230
         C           -2.774915129180     1.467310693822    -0.025357529383    12.000000000000
         H           -2.769911129180     2.550329693822    -0.044250529383     1.007825032230
         N            1.572875870820    -0.874077306178     0.026491470617    14.003074004430
         C            2.774654870820    -1.467253306178     0.028571470617    12.000000000000
         H            2.769430870820    -2.550215306178     0.050460470617     1.007825032230
         C            3.980590870820    -0.772294306178     0.004570470617    12.000000000000
         H            4.917029870820    -1.311830306178     0.007664470617     1.007825032230
         C            3.948273870820     0.618009693822    -0.023176529383    12.000000000000
         H            4.863648870820     1.193260693822    -0.042358529383     1.007825032230
         C            2.708592870820     1.248295693822    -0.025653529383    12.000000000000
         H            2.628820870820     2.325854693822    -0.046742529383     1.007825032230
         C            1.554679870820     0.468286693822    -0.000459529383    12.000000000000
         H            0.574769870820     0.931948693822    -0.002122529383     1.007825032230

  Charge       = 0
  Multiplicity = 1
  Basis Set: AUG-CC-PVQZ
    Blend: AUG-CC-PVQZ
  Basis Set: (AUG-CC-PVQZ AUX)
    Blend: AUG-CC-PVQZ-JKFIT

    Orbital Energies [Eh]
    ---------------------

    Doubly Occupied:

       1A    -15.558707     2A    -15.558699     3A    -11.270080
       4A    -11.270072     5A    -11.259710     6A    -11.259697
       7A    -11.253891     8A    -11.253882     9A    -11.235226
      10A    -11.235218    11A    -11.232432    12A    -11.232423
      13A     -1.251931    14A     -1.248757    15A     -1.084133
      16A     -1.083363    17A     -1.028061    18A     -1.024787
      19A     -0.855009    20A     -0.854601    21A     -0.850662
      22A     -0.845142    23A     -0.725836    24A     -0.707480
      25A     -0.655527    26A     -0.655322    27A     -0.647280
      28A     -0.645360    29A     -0.596941    30A     -0.591570
      31A     -0.577587    32A     -0.560249    33A     -0.537190
      34A     -0.533915    35A     -0.512880    36A     -0.512340
      37A     -0.430735    38A     -0.399378    39A     -0.381131
      40A     -0.378428    41A     -0.341508    42A     -0.339259

  @DF-RHF Final Energy:  -493.58195300853419

   => Energetics <=

    Nuclear Repulsion Energy =            587.9242893246968151
    One-Electron Energy =               -1834.0596858824467290
    Two-Electron Energy =                 752.5534435492158991
    Total Energy =                       -493.5819530085341285

  Dipole Moment: [D]
     X:     0.0008      Y:    -0.0011      Z:    -0.0346     Total:     0.0346

  Basis Set: (AUG-CC-PVQZ AUX)
    Blend: AUG-CC-PVQZ-RI
	 Reference Energy          =    -493.5819530085341853 [Eh]
	 Singles Energy            =      -0.0000000000000000 [Eh]
	 Same-Spin Energy          =      -0.5730506923829796 [Eh]
	 Opposite-Spin Energy      =      -1.8906458029080988 [Eh]
	 Correlation Energy        =      -2.4636964952910785 [Eh]
	 Total Energy              =    -496.0456495038252456 [Eh]

	 ================> DF-SCS-MP2 Energies <==================
	-----------------------------------------------------------
	 SCS Same-Spin Scale       =       0.3333333333333333 [-]
	 SCS Opposite-Spin Scale   =       1.2000000000000000 [-]
	 SCS Same-Spin Energy      =      -0.1910168974609932 [Eh]
	 SCS Opposite-Spin Energy  =      -2.2687749634897183 [Eh]
	 SCS Correlation Energy    =      -2.4597918609507117 [Eh]
	 SCS Total Energy          =    -496.0417448694848872 [Eh]
	-----------------------------------------------------------

*** Psi4 exiting successfully. Buy a developer a beer!
