                               Psi4 1.4a2.dev224

  ==> Input File <==

--------------------------------------------------------------------------
#Generated by lconvert.py for cbs job

memory 20 GB

molecule  {
0 1
  N      -0.941210    0.790040    0.011720
  C      -0.922750   -0.552380    0.035380
  H       0.057240   -1.015590    0.051350
  C      -2.076520   -1.333020    0.039290
  H      -1.996530   -2.410590    0.058880
  C      -3.316310   -0.703340    0.017600
  H      -4.231580   -1.279080    0.019790
  C      -3.348900    0.687020   -0.007090
  H      -4.285440    1.226110   -0.024660
  C      -2.143100    1.382630   -0.008890
  H      -2.138100    2.465650   -0.027780
--
0 1
  N       4.079710   -0.909060    0.037790
  C       5.281490   -1.502230    0.039870
  H       5.276260   -2.585200    0.061760
  C       6.487420   -0.807270    0.015870
  H       7.423860   -1.346810    0.018960
  C       6.455110    0.583030   -0.011880
  H       7.370480    1.158280   -0.031060
  C       5.215430    1.213320   -0.014360
  H       5.135650    2.290880   -0.035450
  C       4.061510    0.433310    0.010840
  H       3.081600    0.896970    0.009170
units angstrom
no_reorient
symmetry c1
}

set {
scf_type DF
mp2_type DF
e_convergence 7
reference rhf
}

energy('mp2/aug-cc-pv[tq]z', bsse_type='cp')
--------------------------------------------------------------------------

    Molecular point group: c1
  Charge       = 0
  Multiplicity = 1
  Basis Set: AUG-CC-PVTZ
    Blend: AUG-CC-PVTZ
  Basis Set: (AUG-CC-PVTZ AUX)
    Blend: AUG-CC-PVTZ-JKFIT
  @DF-RHF Final Energy:  -246.77852293112025
    Total Energy =                       -246.7785229311202784
  Basis Set: (AUG-CC-PVTZ AUX)
    Blend: AUG-CC-PVTZ-RI
	 Reference Energy          =    -246.7785229311202500 [Eh]
	 Singles Energy            =      -0.0000000000000000 [Eh]
	 Same-Spin Energy          =      -0.2688252006256466 [Eh]
	 Opposite-Spin Energy      =      -0.8389106140427098 [Eh]
	 Correlation Energy        =      -1.1077358146683565 [Eh]
	 Total Energy              =    -247.8862587457886093 [Eh]
	 SCS Total Energy          =    -247.8748240681800610 [Eh]
    Molecular point group: c1
  Basis Set: AUG-CC-PVQZ
    Blend: AUG-CC-PVQZ
  Basis Set: (AUG-CC-PVQZ AUX)
    Blend: AUG-CC-PVQZ-JKFIT
  @DF-RHF Final Energy:  -246.79266076634329
    Total Energy =                       -246.7926607663432605
  Basis Set: (AUG-CC-PVQZ AUX)
  @DF-RHF Final Energy:  -246.77854656693461
    Total Energy =                       -246.7785465669346081
  @DF-RHF Final Energy:  -246.79266840968410
    Total Energy =                       -246.7926684096840972
  @DF-RHF Final Energy:  -246.77854691690408
    Total Energy =                       -246.7785469169040766
  @DF-RHF Final Energy:  -246.79266876851042
    Total Energy =                       -246.7926687685104525
  @DF-RHF Final Energy:  -246.77852328431621
    Total Energy =                       -246.7785232843161793
  @DF-RHF Final Energy:  -246.79266112858460
    Total Energy =                       -246.7926611285845979
  Multiplicity = 1
  @DF-RHF Final Energy:  -493.55816735861316
    Total Energy =                       -493.5581673586132183
	 Singles Energy            =      -0.0000000000000000 [Eh]
	 Same-Spin Energy          =      -0.5380374545726507 [Eh]
	 Opposite-Spin Energy      =      -1.6789134883241223 [Eh]
	 Correlation Energy        =      -2.2169509428967729 [Eh]
	 Total Energy              =    -495.7751183015099059 [Eh]
	 SCS Total Energy          =    -495.7522093627929962 [Eh]
    Molecular point group: c1

    Geometry (in Angstrom), charge = 0, multiplicity = 1:

       Center              X                  Y                   Z               Mass
    ------------   -----------------  -----------------  -----------------  -----------------
         N           -2.510532792481     0.849868016779    -0.002162471847    14.003074004430
         C           -2.492072792481    -0.492551983221     0.021497528153    12.000000000000
         H           -1.512082792481    -0.955761983221     0.037467528153     1.007825032230
         C           -3.645842792481    -1.273191983221     0.025407528153    12.000000000000
         H           -3.565852792481    -2.350761983221     0.044997528153     1.007825032230
         C           -4.885632792481    -0.643511983221     0.003717528153    12.000000000000
         H           -5.800902792481    -1.219251983221     0.005907528153     1.007825032230
         C           -4.918222792481     0.746848016779    -0.020972471847    12.000000000000
         H           -5.854762792481     1.285938016779    -0.038542471847     1.007825032230
         C           -3.712422792481     1.442458016779    -0.022772471847    12.000000000000
         H           -3.707422792481     2.525478016779    -0.041662471847     1.007825032230
         N            2.510387207519    -0.849231983221     0.023907528153    14.003074004430
         C            3.712167207519    -1.442401983221     0.025987528153    12.000000000000
         H            3.706937207519    -2.525371983221     0.047877528153     1.007825032230
         C            4.918097207519    -0.747441983221     0.001987528153    12.000000000000
         H            5.854537207519    -1.286981983221     0.005077528153     1.007825032230
         C            4.885787207519     0.642858016779    -0.025762471847    12.000000000000
         H            5.801157207519     1.218108016779    -0.044942471847     1.007825032230
         C            3.646107207519     1.273148016779    -0.028242471847    12.000000000000
         H            3.566327207519     2.350708016779    -0.049332471847     1.007825032230
         C            2.492187207519     0.493138016779    -0.003042471847    12.000000000000
         H            1.512277207519     0.956798016779    -0.004712471847     1.007825032230

  Charge       = 0
  Multiplicity = 1
  Basis Set: AUG-CC-PVQZ
    Blend: AUG-CC-PVQZ
  Basis Set: (AUG-CC-PVQZ AUX)
    Blend: AUG-CC-PVQZ-JKFIT

    Orbital Energies [Eh]
    ---------------------

    Doubly Occupied:

       1A    -15.561992     2A    -15.561989     3A    -11.271326
       4A    -11.271323     5A    -11.270440     6A    -11.270438
       7A    -11.256304     8A    -11.256303     9A    -11.238234
      10A    -11.238233    11A    -11.237507    12A    -11.237504
      13A     -1.252101    14A     -1.252074    15A     -1.086184
      16A     -1.086175    17A     -1.030108    18A     -1.030060
      19A     -0.856006    20A     -0.855965    21A     -0.852291
      22A     -0.852113    23A     -0.718870    24A     -0.718309
      25A     -0.657146    26A     -0.657143    27A     -0.650919
      28A     -0.650822    29A     -0.595311    30A     -0.594924
      31A     -0.574673    32A     -0.573997    33A     -0.537817
      34A     -0.537732    35A     -0.517005    36A     -0.516745
      37A     -0.417006    38A     -0.415718    39A     -0.380968
      40A     -0.380855    41A     -0.344660    42A     -0.344560

  @DF-RHF Final Energy:  -493.58640672789011

   => Energetics <=

    Nuclear Repulsion Energy =            540.9295366288100695
    One-Electron Energy =               -1739.8121741870415917
    Two-Electron Energy =                 705.2962308303415284
    Total Energy =                       -493.5864067278901075

  Dipole Moment: [D]
     X:     0.0003      Y:    -0.0011      Z:    -0.0361     Total:     0.0361

  Basis Set: (AUG-CC-PVQZ AUX)
    Blend: AUG-CC-PVQZ-RI
	 Reference Energy          =    -493.5864067278901075 [Eh]
	 Singles Energy            =      -0.0000000000000000 [Eh]
	 Same-Spin Energy          =      -0.5687438552599238 [Eh]
	 Opposite-Spin Energy      =      -1.8855063327428965 [Eh]
	 Correlation Energy        =      -2.4542501880028205 [Eh]
	 Total Energy              =    -496.0406569158929528 [Eh]

	 ================> DF-SCS-MP2 Energies <==================
	-----------------------------------------------------------
	 SCS Same-Spin Scale       =       0.3333333333333333 [-]
	 SCS Opposite-Spin Scale   =       1.2000000000000000 [-]
	 SCS Same-Spin Energy      =      -0.1895812850866412 [Eh]
	 SCS Opposite-Spin Energy  =      -2.2626075992914756 [Eh]
	 SCS Correlation Energy    =      -2.4521888843781170 [Eh]
	 SCS Total Energy          =    -496.0385956122682387 [Eh]
	-----------------------------------------------------------

*** Psi4 exiting successfully. Buy a developer a beer!
