                               Psi4 1.4a2.dev224

  ==> Input File <==

--------------------------------------------------------------------------
#Generated by lconvert.py for cbs job

memory 40 GB

molecule  {
0 1
  C       -2.2753450    -0.1350750     0.8313340
  H       -2.4907180    -0.7279270    -0.0575660
  H       -2.2263240    -0.8184460     1.6788230
  H       -3.1120260     0.5449430     0.9874000
  C       -0.9616980     0.6192780     0.6693990
  H       -0.7886990     1.2504320     1.5447030
  H       -1.0261770     1.2954450    -0.1864580
  C        0.2265020    -0.3147100     0.4799860
  H        0.3094440    -0.9751390     1.3480380
  H        0.0391510    -0.9659990    -0.3787900
  C        1.5430020     0.4211750     0.2690000
  H        1.7116390     1.1077720     1.1024470
  H        1.4660950     1.0437430    -0.6252940
  C        2.7275760    -0.5268610     0.1374590
  H        2.5887420    -1.2032140    -0.7057570
  H        3.6615010     0.0116930    -0.0159690
  H        2.8351940    -1.1374100     1.0340750
--
0 1
  C       -0.3591160    -0.2555810     3.4839810
  O       -0.7817300    -1.3707610     3.2868340
  O       -1.1728090     0.8033850     3.7165700
  H       -2.0735710     0.4490040     3.6760350
  C        1.0811510     0.1540850     3.5011860
  H        1.7069740    -0.7160960     3.3430310
  H        1.2571880     0.8883590     2.7180620
  H        1.3184620     0.6233860     4.4529890
units angstrom
no_reorient
symmetry c1
}

set {
scf_type DF
mp2_type DF
e_convergence 7
reference rhf
}

energy('mp2/aug-cc-pv[tq]z', bsse_type='cp')
--------------------------------------------------------------------------

    Molecular point group: c1
  Charge       = 0
  Multiplicity = 1
  Basis Set: AUG-CC-PVTZ
    Blend: AUG-CC-PVTZ
  Basis Set: (AUG-CC-PVTZ AUX)
    Blend: AUG-CC-PVTZ-JKFIT
  @DF-RHF Final Energy:  -227.90526112941973
    Total Energy =                       -227.9052611294197277
  Basis Set: (AUG-CC-PVTZ AUX)
    Blend: AUG-CC-PVTZ-RI
	 Reference Energy          =    -227.9052611294197277 [Eh]
	 Singles Energy            =      -0.0000000000000000 [Eh]
	 Same-Spin Energy          =      -0.2149200516791181 [Eh]
	 Opposite-Spin Energy      =      -0.6692165583308752 [Eh]
	 Correlation Energy        =      -0.8841366100099933 [Eh]
	 Total Energy              =    -228.7893977394297167 [Eh]
	 SCS Total Energy          =    -228.7799610166431421 [Eh]
    Molecular point group: c1
  Basis Set: AUG-CC-PVQZ
    Blend: AUG-CC-PVQZ
  Basis Set: (AUG-CC-PVQZ AUX)
    Blend: AUG-CC-PVQZ-JKFIT
  @DF-RHF Final Energy:  -227.91999270897230
    Total Energy =                       -227.9199927089723019
  Basis Set: (AUG-CC-PVQZ AUX)
  @DF-RHF Final Energy:  -227.90569646861260
    Total Energy =                       -227.9056964686126037
  @DF-RHF Final Energy:  -227.92011059670628
    Total Energy =                       -227.9201105967062801
  @DF-RHF Final Energy:  -196.40440216518715
    Total Energy =                       -196.4044021651871503
  @DF-RHF Final Energy:  -196.41617483297210
    Total Energy =                       -196.4161748329721036
  @DF-RHF Final Energy:  -196.40432936954687
    Total Energy =                       -196.4043293695468719
  @DF-RHF Final Energy:  -196.41615072272901
    Total Energy =                       -196.4161507227290144
  @DF-RHF Final Energy:  -424.28242151246508
    Total Energy =                       -424.2824215124650209
  @DF-RHF Final Energy:  -424.30866158540204
    Total Energy =                       -424.3086615854019783
*** Psi4 exiting successfully. Buy a developer a beer!
                               Psi4 1.4a2.dev224
  @DF-RHF Final Energy:  -227.90526114283355
    Total Energy =                       -227.9052611428335524
  @DF-RHF Final Energy:  -227.91999272500570
    Total Energy =                       -227.9199927250056987
  @DF-RHF Final Energy:  -227.90563227513042
    Total Energy =                       -227.9056322751304151
  @DF-RHF Final Energy:  -227.92009589038832
    Total Energy =                       -227.9200958903883247
  @DF-RHF Final Energy:  -196.40438535981457
    Total Energy =                       -196.4043853598145688
  @DF-RHF Final Energy:  -196.41617043538548
    Total Energy =                       -196.4161704353854816
  @DF-RHF Final Energy:  -196.40432936983055
    Total Energy =                       -196.4043293698305490
  @DF-RHF Final Energy:  -196.41615072369925
    Total Energy =                       -196.4161507236992463
  @DF-RHF Final Energy:  -424.29719580414184
    Total Energy =                       -424.2971958041417793
  @DF-RHF Final Energy:  -424.32346794694917
    Total Energy =                       -424.3234679469492221
*** Psi4 exiting successfully. Buy a developer a beer!
                               Psi4 1.4a2.dev224
                               Psi4 1.4a2.dev224
                               Psi4 1.4a2.dev224
                               Psi4 1.4a2.dev224
                               Psi4 1.4a2.dev224
                               Psi4 1.4a2.dev224
                               Psi4 1.4a2.dev224
  @DF-RHF Final Energy:  -227.90526121198562
    Total Energy =                       -227.9052612119856178
  @DF-RHF Final Energy:  -227.91999280399128
    Total Energy =                       -227.9199928039912777
  @DF-RHF Final Energy:  -227.90533143650850
    Total Energy =                       -227.9053314365085043
  @DF-RHF Final Energy:  -227.92002369804862
    Total Energy =                       -227.9200236980486238
  @DF-RHF Final Energy:  -196.40433890578009
    Total Energy =                       -196.4043389057800937
  @DF-RHF Final Energy:  -196.41615576158551
    Total Energy =                       -196.4161557615855145
  @DF-RHF Final Energy:  -196.40432945102552
    Total Energy =                       -196.4043294510255180
  @DF-RHF Final Energy:  -196.41615080677317
    Total Energy =                       -196.4161508067731745
  @DF-RHF Final Energy:  -424.30970819202798
    Total Energy =                       -424.3097081920279834
  @DF-RHF Final Energy:  -424.33621722651128
    Total Energy =                       -424.3362172265112804
*** Psi4 exiting successfully. Buy a developer a beer!
                               Psi4 1.4a2.dev224
  @DF-RHF Final Energy:  -227.90526108744550
    Total Energy =                       -227.9052610874454956
  @DF-RHF Final Energy:  -227.91999265498367
    Total Energy =                       -227.9199926549836732
  @DF-RHF Final Energy:  -227.90529292448906
    Total Energy =                       -227.9052929244890606
  @DF-RHF Final Energy:  -227.92000933684855
    Total Energy =                       -227.9200093368485511
  @DF-RHF Final Energy:  -196.40433478494563
    Total Energy =                       -196.4043347849456325
  @DF-RHF Final Energy:  -196.41615398844220
    Total Energy =                       -196.4161539884422041
  @DF-RHF Final Energy:  -196.40432945306617
    Total Energy =                       -196.4043294530661683
  @DF-RHF Final Energy:  -196.41615080533398
    Total Energy =                       -196.4161508053339844
  Multiplicity = 1
  @DF-RHF Final Energy:  -424.30964253311703
    Total Energy =                       -424.3096425331170849
	 Singles Energy            =      -0.0000000000000000 [Eh]
	 Same-Spin Energy          =      -0.4230921260212095 [Eh]
	 Opposite-Spin Energy      =      -1.4630204585785633 [Eh]
	 Correlation Energy        =      -1.8861125845997728 [Eh]
	 Total Energy              =    -426.1957551177168284 [Eh]
	 SCS Total Energy          =    -426.2062977920850244 [Eh]
    Molecular point group: c1

    Geometry (in Angstrom), charge = 0, multiplicity = 1:

       Center              X                  Y                   Z               Mass
    ------------   -----------------  -----------------  -----------------  -----------------
         C           -2.004594370394    -0.002282331066    -2.318648290566    12.000000000000
         H           -2.219964370394    -0.595132331066    -3.207548290566     1.007825032230
         H           -1.955564370394    -0.685652331066    -1.471158290566     1.007825032230
         H           -2.841274370394     0.677737668934    -2.162578290566     1.007825032230
         C           -0.690944370394     0.752077668934    -2.480578290566    12.000000000000
         H           -0.517944370394     1.383227668934    -1.605278290566     1.007825032230
         H           -0.755424370394     1.428237668934    -3.336438290566     1.007825032230
         C            0.497255629606    -0.181912331066    -2.669988290566    12.000000000000
         H            0.580195629606    -0.842342331066    -1.801938290566     1.007825032230
         H            0.309905629606    -0.833202331066    -3.528768290566     1.007825032230
         C            1.813755629606     0.553977668934    -2.880978290566    12.000000000000
         H            1.982395629606     1.240567668934    -2.047528290566     1.007825032230
         H            1.736845629606     1.176537668934    -3.775268290566     1.007825032230
         C            2.998335629606    -0.394062331066    -3.012518290566    12.000000000000
         H            2.859495629606    -1.070412331066    -3.855738290566     1.007825032230
         H            3.932255629606     0.144487668934    -3.165948290566     1.007825032230
         H            3.105945629606    -1.004612331066    -2.115898290566     1.007825032230
         C           -0.646664370394    -0.267612331066     3.193011709434    12.000000000000
         O           -1.069284370394    -1.382792331066     2.995861709434    15.994914619570
         O           -1.460364370394     0.791347668934     3.425601709434    15.994914619570
         H           -2.361124370394     0.436967668934     3.385061709434     1.007825032230
         C            0.793595629606     0.142047668934     3.210211709434    12.000000000000
         H            1.419425629606    -0.728132331066     3.052061709434     1.007825032230
         H            0.969635629606     0.876327668934     2.427091709434     1.007825032230
         H            1.030905629606     0.611357668934     4.162021709434     1.007825032230

  Charge       = 0
  Multiplicity = 1
  Basis Set: AUG-CC-PVQZ
    Blend: AUG-CC-PVQZ
  Basis Set: (AUG-CC-PVQZ AUX)
    Blend: AUG-CC-PVQZ-JKFIT

    Orbital Energies [Eh]
    ---------------------

    Doubly Occupied:

       1A    -20.613663     2A    -20.550667     3A    -11.390412
       4A    -11.245747     5A    -11.212469     6A    -11.211851
       7A    -11.209279     8A    -11.206794     9A    -11.205189
      10A     -1.466882    11A     -1.362746    12A     -1.081186
      13A     -1.031524    14A     -1.015383    15A     -0.918764
      16A     -0.823842    17A     -0.819949    18A     -0.785571
      19A     -0.708863    20A     -0.682941    21A     -0.653477
      22A     -0.647356    23A     -0.599001    24A     -0.593107
      25A     -0.587619    26A     -0.576628    27A     -0.564491
      28A     -0.554001    29A     -0.547798    30A     -0.525567
      31A     -0.495035    32A     -0.486346    33A     -0.476200
      34A     -0.462719    35A     -0.459425    36A     -0.458075
      37A     -0.446952

  @DF-RHF Final Energy:  -424.33617823845850

   => Energetics <=

    Nuclear Repulsion Energy =            419.3389169901520290
    One-Electron Energy =               -1407.9951351456149951
    Two-Electron Energy =                 564.3200399170044648
    Total Energy =                       -424.3361782384585013

  Dipole Moment: [D]
     X:     0.7577      Y:     1.8308      Z:     0.2822     Total:     2.0014

  Basis Set: (AUG-CC-PVQZ AUX)
    Blend: AUG-CC-PVQZ-RI
	 Reference Energy          =    -424.3361782384585013 [Eh]
	 Singles Energy            =      -0.0000000000000000 [Eh]
	 Same-Spin Energy          =      -0.4482803117936502 [Eh]
	 Opposite-Spin Energy      =      -1.6369480016104077 [Eh]
	 Correlation Energy        =      -2.0852283134040581 [Eh]
	 Total Energy              =    -426.4214065518625603 [Eh]

	 ================> DF-SCS-MP2 Energies <==================
	-----------------------------------------------------------
	 SCS Same-Spin Scale       =       0.3333333333333333 [-]
	 SCS Opposite-Spin Scale   =       1.2000000000000000 [-]
	 SCS Same-Spin Energy      =      -0.1494267705978834 [Eh]
	 SCS Opposite-Spin Energy  =      -1.9643376019324892 [Eh]
	 SCS Correlation Energy    =      -2.1137643725303725 [Eh]
	 SCS Total Energy          =    -426.4499426109888987 [Eh]
	-----------------------------------------------------------

*** Psi4 exiting successfully. Buy a developer a beer!
