                               Psi4 1.4a2.dev224

  ==> Input File <==

--------------------------------------------------------------------------
#Generated by lconvert.py for cbs job

memory 40 GB

molecule  {
0 1
  C       -2.2753450    -0.1350750     0.8313340
  H       -2.4907180    -0.7279270    -0.0575660
  H       -2.2263240    -0.8184460     1.6788230
  H       -3.1120260     0.5449430     0.9874000
  C       -0.9616980     0.6192780     0.6693990
  H       -0.7886990     1.2504320     1.5447030
  H       -1.0261770     1.2954450    -0.1864580
  C        0.2265020    -0.3147100     0.4799860
  H        0.3094440    -0.9751390     1.3480380
  H        0.0391510    -0.9659990    -0.3787900
  C        1.5430020     0.4211750     0.2690000
  H        1.7116390     1.1077720     1.1024470
  H        1.4660950     1.0437430    -0.6252940
  C        2.7275760    -0.5268610     0.1374590
  H        2.5887420    -1.2032140    -0.7057570
  H        3.6615010     0.0116930    -0.0159690
  H        2.8351940    -1.1374100     1.0340750
--
0 1
  C       -0.5450400    -0.3038110     4.4360770
  O       -0.9676540    -1.4189920     4.2389300
  O       -1.3587320     0.7551540     4.6686660
  H       -2.2594950     0.4007740     4.6281300
  C        0.8952270     0.1058550     4.4532820
  H        1.5210500    -0.7643260     4.2951270
  H        1.0712640     0.8401280     3.6701570
  H        1.1325380     0.5751560     5.4050840
units angstrom
no_reorient
symmetry c1
}

set {
scf_type DF
mp2_type DF
e_convergence 7
reference rhf
}

energy('mp2/aug-cc-pv[tq]z', bsse_type='cp')
--------------------------------------------------------------------------

    Molecular point group: c1
  Charge       = 0
  Multiplicity = 1
  Basis Set: AUG-CC-PVTZ
    Blend: AUG-CC-PVTZ
  Basis Set: (AUG-CC-PVTZ AUX)
    Blend: AUG-CC-PVTZ-JKFIT
  @DF-RHF Final Energy:  -227.90526108586715
    Total Energy =                       -227.9052610858671528
  Basis Set: (AUG-CC-PVTZ AUX)
    Blend: AUG-CC-PVTZ-RI
	 Reference Energy          =    -227.9052610858671528 [Eh]
	 Singles Energy            =      -0.0000000000000000 [Eh]
	 Same-Spin Energy          =      -0.2149200709882991 [Eh]
	 Opposite-Spin Energy      =      -0.6692165817344893 [Eh]
	 Correlation Energy        =      -0.8841366527227884 [Eh]
	 Total Energy              =    -228.7893977385899404 [Eh]
	 SCS Total Energy          =    -228.7799610076113197 [Eh]
    Molecular point group: c1
  Basis Set: AUG-CC-PVQZ
    Blend: AUG-CC-PVQZ
  Basis Set: (AUG-CC-PVQZ AUX)
    Blend: AUG-CC-PVQZ-JKFIT
  @DF-RHF Final Energy:  -227.91999266315773
    Total Energy =                       -227.9199926631577284
  Basis Set: (AUG-CC-PVQZ AUX)
  @DF-RHF Final Energy:  -227.90546913705055
    Total Energy =                       -227.9054691370505452
  @DF-RHF Final Energy:  -227.92006166463295
    Total Energy =                       -227.9200616646329536
  @DF-RHF Final Energy:  -196.40435557490585
    Total Energy =                       -196.4043555749058498
  @DF-RHF Final Energy:  -196.41616170763291
    Total Energy =                       -196.4161617076329094
  @DF-RHF Final Energy:  -196.40432937132670
    Total Energy =                       -196.4043293713266962
  @DF-RHF Final Energy:  -196.41615072250107
    Total Energy =                       -196.4161507225010723
  Multiplicity = 1
  @DF-RHF Final Energy:  -424.30877845184244
    Total Energy =                       -424.3087784518424996
	 Singles Energy            =      -0.0000000000000000 [Eh]
	 Same-Spin Energy          =      -0.4255872568924855 [Eh]
	 Opposite-Spin Energy      =      -1.4674593943597443 [Eh]
	 Correlation Energy        =      -1.8930466512522297 [Eh]
	 Total Energy              =    -426.2018251030946772 [Eh]
	 SCS Total Energy          =    -426.2115921440383204 [Eh]
    Molecular point group: c1

    Geometry (in Angstrom), charge = 0, multiplicity = 1:

       Center              X                  Y                   Z               Mass
    ------------   -----------------  -----------------  -----------------  -----------------
         C           -2.173768451908    -0.046164164329    -1.452315894216    12.000000000000
         H           -2.389141451908    -0.639016164329    -2.341215894216     1.007825032230
         H           -2.124747451908    -0.729535164329    -0.604826894216     1.007825032230
         H           -3.010449451908     0.633853835671    -1.296249894216     1.007825032230
         C           -0.860121451908     0.708188835671    -1.614250894216    12.000000000000
         H           -0.687122451908     1.339342835671    -0.738946894216     1.007825032230
         H           -0.924600451908     1.384355835671    -2.470107894216     1.007825032230
         C            0.328078548092    -0.225799164329    -1.803663894216    12.000000000000
         H            0.411020548092    -0.886228164329    -0.935611894216     1.007825032230
         H            0.140727548092    -0.877088164329    -2.662439894216     1.007825032230
         C            1.644578548092     0.510085835671    -2.014649894216    12.000000000000
         H            1.813215548092     1.196682835671    -1.181202894216     1.007825032230
         H            1.567671548092     1.132653835671    -2.908943894216     1.007825032230
         C            2.829152548092    -0.437950164329    -2.146190894216    12.000000000000
         H            2.690318548092    -1.114303164329    -2.989406894216     1.007825032230
         H            3.763077548092     0.100603835671    -2.299618894216     1.007825032230
         H            2.936770548092    -1.048499164329    -1.249574894216     1.007825032230
         C           -0.443463451908    -0.214900164329     2.152427105784    12.000000000000
         O           -0.866077451908    -1.330081164329     1.955280105784    15.994914619570
         O           -1.257155451908     0.844064835671     2.385016105784    15.994914619570
         H           -2.157918451908     0.489684835671     2.344480105784     1.007825032230
         C            0.996803548092     0.194765835671     2.169632105784    12.000000000000
         H            1.622626548092    -0.675415164329     2.011477105784     1.007825032230
         H            1.172840548092     0.929038835671     1.386507105784     1.007825032230
         H            1.234114548092     0.664066835671     3.121434105784     1.007825032230

  Charge       = 0
  Multiplicity = 1
  Basis Set: AUG-CC-PVQZ
    Blend: AUG-CC-PVQZ
  Basis Set: (AUG-CC-PVQZ AUX)
    Blend: AUG-CC-PVQZ-JKFIT

    Orbital Energies [Eh]
    ---------------------

    Doubly Occupied:

       1A    -20.613992     2A    -20.551219     3A    -11.391012
       4A    -11.245695     5A    -11.214073     6A    -11.211907
       7A    -11.208896     8A    -11.208051     9A    -11.203361
      10A     -1.467468    11A     -1.363506    12A     -1.081786
      13A     -1.031831    14A     -1.015805    15A     -0.918882
      16A     -0.824263    17A     -0.820412    18A     -0.785964
      19A     -0.709628    20A     -0.683523    21A     -0.659464
      22A     -0.643155    23A     -0.599339    24A     -0.594115
      25A     -0.588049    26A     -0.576827    27A     -0.564613
      28A     -0.554256    29A     -0.547886    30A     -0.525413
      31A     -0.495563    32A     -0.488541    33A     -0.476567
      34A     -0.462704    35A     -0.459044    36A     -0.458369
      37A     -0.447293

  @DF-RHF Final Energy:  -424.33517838884416

   => Energetics <=

    Nuclear Repulsion Energy =            464.2981037977995129
    One-Electron Energy =               -1497.8816112270453687
    Two-Electron Energy =                 609.2483290404016998
    Total Energy =                       -424.3351783888441560

  Dipole Moment: [D]
     X:     0.7276      Y:     1.7117      Z:     0.2719     Total:     1.8797

  Basis Set: (AUG-CC-PVQZ AUX)
    Blend: AUG-CC-PVQZ-RI
	 Reference Energy          =    -424.3351783888441560 [Eh]
	 Singles Energy            =      -0.0000000000000000 [Eh]
	 Same-Spin Energy          =      -0.4506722339029544 [Eh]
	 Opposite-Spin Energy      =      -1.6400601568431259 [Eh]
	 Correlation Energy        =      -2.0907323907460804 [Eh]
	 Total Energy              =    -426.4259107795902537 [Eh]

	 ================> DF-SCS-MP2 Energies <==================
	-----------------------------------------------------------
	 SCS Same-Spin Scale       =       0.3333333333333333 [-]
	 SCS Opposite-Spin Scale   =       1.2000000000000000 [-]
	 SCS Same-Spin Energy      =      -0.1502240779676515 [Eh]
	 SCS Opposite-Spin Energy  =      -1.9680721882117509 [Eh]
	 SCS Correlation Energy    =      -2.1182962661794025 [Eh]
	 SCS Total Energy          =    -426.4534746550235695 [Eh]
	-----------------------------------------------------------

*** Psi4 exiting successfully. Buy a developer a beer!
