                               Psi4 1.4a2.dev224

  ==> Input File <==

--------------------------------------------------------------------------
#Generated by lconvert.py for cbs job

memory 20 GB

molecule  {
0 1
  C      -2.275350   -0.135080    0.831330
  H      -2.490720   -0.727930   -0.057570
  H      -2.226320   -0.818450    1.678820
  H      -3.112030    0.544940    0.987400
  C      -0.961700    0.619280    0.669400
  H      -0.788700    1.250430    1.544700
  H      -1.026180    1.295440   -0.186460
  C       0.226500   -0.314710    0.479990
  H       0.309440   -0.975140    1.348040
  H       0.039150   -0.966000   -0.378790
  C       1.543000    0.421180    0.269000
  H       1.711640    1.107770    1.102450
  H       1.466090    1.043740   -0.625290
  C       2.727580   -0.526860    0.137460
  H       2.588740   -1.203210   -0.705760
  H       3.661500    0.011690   -0.015970
  H       2.835190   -1.137410    1.034080
--
0 1
  C      -0.638140   -0.327960    4.912800
  O      -1.060750   -1.443140    4.715660
  O      -1.451830    0.731000    5.145390
  H      -2.352590    0.376620    5.104860
  C       0.802130    0.081700    4.930010
  H       1.427950   -0.788480    4.771860
  H       0.978170    0.815980    4.146890
  H       1.039440    0.551010    5.881810
units angstrom
no_reorient
symmetry c1
}

set {
scf_type DF
mp2_type DF
e_convergence 7
reference rhf
}

energy('mp2/aug-cc-pv[tq]z', bsse_type='cp')
--------------------------------------------------------------------------

    Molecular point group: c1
  Charge       = 0
  Multiplicity = 1
  Basis Set: AUG-CC-PVTZ
    Blend: AUG-CC-PVTZ
  Basis Set: (AUG-CC-PVTZ AUX)
    Blend: AUG-CC-PVTZ-JKFIT
  @DF-RHF Final Energy:  -227.90526182504834
    Total Energy =                       -227.9052618250483420
  Basis Set: (AUG-CC-PVTZ AUX)
    Blend: AUG-CC-PVTZ-RI
	 Reference Energy          =    -227.9052618250483420 [Eh]
	 Singles Energy            =      -0.0000000000000000 [Eh]
	 Same-Spin Energy          =      -0.2149198919460241 [Eh]
	 Opposite-Spin Energy      =      -0.6692160847775428 [Eh]
	 Correlation Energy        =      -0.8841359767235669 [Eh]
	 Total Energy              =    -228.7893978017719121 [Eh]
	 SCS Total Energy          =    -228.7799610907634076 [Eh]
    Molecular point group: c1
  Basis Set: AUG-CC-PVQZ
    Blend: AUG-CC-PVQZ
  Basis Set: (AUG-CC-PVQZ AUX)
    Blend: AUG-CC-PVQZ-JKFIT
  @DF-RHF Final Energy:  -227.91999344167090
    Total Energy =                       -227.9199934416708970
  Basis Set: (AUG-CC-PVQZ AUX)
  @DF-RHF Final Energy:  -227.90539890130600
    Total Energy =                       -227.9053989013060004
  @DF-RHF Final Energy:  -227.92004513214272
    Total Energy =                       -227.9200451321427181
  @DF-RHF Final Energy:  -196.40434646716486
    Total Energy =                       -196.4043464671648564
  @DF-RHF Final Energy:  -196.41615848666191
    Total Energy =                       -196.4161584866619137
  @DF-RHF Final Energy:  -196.40432945200925
    Total Energy =                       -196.4043294520092502
  @DF-RHF Final Energy:  -196.41615080188893
    Total Energy =                       -196.4161508018889322
  Multiplicity = 1
  @DF-RHF Final Energy:  -424.30963879209474
    Total Energy =                       -424.3096387920948018
	 Singles Energy            =      -0.0000000000000000 [Eh]
	 Same-Spin Energy          =      -0.4242874827738780 [Eh]
	 Opposite-Spin Energy      =      -1.4652893161197924 [Eh]
	 Correlation Energy        =      -1.8895767988936703 [Eh]
	 Total Energy              =    -426.1992155909883877 [Eh]
	 SCS Total Energy          =    -426.2094151323631195 [Eh]
    Molecular point group: c1

    Geometry (in Angstrom), charge = 0, multiplicity = 1:

       Center              X                  Y                   Z               Mass
    ------------   -----------------  -----------------  -----------------  -----------------
         C           -2.131477520434    -0.035197063256    -1.668901558598    12.000000000000
         H           -2.346847520434    -0.628047063256    -2.557801558598     1.007825032230
         H           -2.082447520434    -0.718567063256    -0.821411558598     1.007825032230
         H           -2.968157520434     0.644822936744    -1.512831558598     1.007825032230
         C           -0.817827520434     0.719162936744    -1.830831558598    12.000000000000
         H           -0.644827520434     1.350312936744    -0.955531558598     1.007825032230
         H           -0.882307520434     1.395322936744    -2.686691558598     1.007825032230
         C            0.370372479566    -0.214827063256    -2.020241558598    12.000000000000
         H            0.453312479566    -0.875257063256    -1.152191558598     1.007825032230
         H            0.183022479566    -0.866117063256    -2.879021558598     1.007825032230
         C            1.686872479566     0.521062936744    -2.231231558598    12.000000000000
         H            1.855512479566     1.207652936744    -1.397781558598     1.007825032230
         H            1.609962479566     1.143622936744    -3.125521558598     1.007825032230
         C            2.871452479566    -0.426977063256    -2.362771558598    12.000000000000
         H            2.732612479566    -1.103327063256    -3.205991558598     1.007825032230
         H            3.805372479566     0.111572936744    -2.516201558598     1.007825032230
         H            2.979062479566    -1.037527063256    -1.466151558598     1.007825032230
         C           -0.494267520434    -0.228077063256     2.412568441402    12.000000000000
         O           -0.916877520434    -1.343257063256     2.215428441402    15.994914619570
         O           -1.307957520434     0.830882936744     2.645158441402    15.994914619570
         H           -2.208717520434     0.476502936744     2.604628441402     1.007825032230
         C            0.946002479566     0.181582936744     2.429778441402    12.000000000000
         H            1.571822479566    -0.688597063256     2.271628441402     1.007825032230
         H            1.122042479566     0.915862936744     1.646658441402     1.007825032230
         H            1.183312479566     0.650892936744     3.381578441402     1.007825032230

  Charge       = 0
  Multiplicity = 1
  Basis Set: AUG-CC-PVQZ
    Blend: AUG-CC-PVQZ
  Basis Set: (AUG-CC-PVQZ AUX)
    Blend: AUG-CC-PVQZ-JKFIT

    Orbital Energies [Eh]
    ---------------------

    Doubly Occupied:

       1A    -20.613921     2A    -20.551104     3A    -11.390840
       4A    -11.245900     5A    -11.213517     6A    -11.212064
       7A    -11.209208     8A    -11.207602     9A    -11.204149
      10A     -1.467250    11A     -1.363211    12A     -1.081581
      13A     -1.031788    14A     -1.015671    15A     -0.918858
      16A     -0.824110    17A     -0.820283    18A     -0.785858
      19A     -0.709322    20A     -0.683302    21A     -0.655419
      22A     -0.646401    23A     -0.599236    24A     -0.593527
      25A     -0.587960    26A     -0.576857    27A     -0.564717
      28A     -0.554206    29A     -0.547875    30A     -0.525526
      31A     -0.495322    32A     -0.487205    33A     -0.476511
      34A     -0.462842    35A     -0.459579    36A     -0.458504
      37A     -0.447226

  @DF-RHF Final Energy:  -424.33609684623707

   => Energetics <=

    Nuclear Repulsion Energy =            450.2519600263227062
    One-Electron Energy =               -1469.7992082742325692
    Two-Electron Energy =                 595.2111514016728506
    Total Energy =                       -424.3360968462370693

  Dipole Moment: [D]
     X:     0.7344      Y:     1.7550      Z:     0.2732     Total:     1.9220

  Basis Set: (AUG-CC-PVQZ AUX)
    Blend: AUG-CC-PVQZ-RI
	 Reference Energy          =    -424.3360968462370693 [Eh]
	 Singles Energy            =      -0.0000000000000000 [Eh]
	 Same-Spin Energy          =      -0.4494102670827048 [Eh]
	 Opposite-Spin Energy      =      -1.6384680284692350 [Eh]
	 Correlation Energy        =      -2.0878782955519397 [Eh]
	 Total Energy              =    -426.4239751417890147 [Eh]

	 ================> DF-SCS-MP2 Energies <==================
	-----------------------------------------------------------
	 SCS Same-Spin Scale       =       0.3333333333333333 [-]
	 SCS Opposite-Spin Scale   =       1.2000000000000000 [-]
	 SCS Same-Spin Energy      =      -0.1498034223609016 [Eh]
	 SCS Opposite-Spin Energy  =      -1.9661616341630819 [Eh]
	 SCS Correlation Energy    =      -2.1159650565239834 [Eh]
	 SCS Total Energy          =    -426.4520619027610451 [Eh]
	-----------------------------------------------------------

*** Psi4 exiting successfully. Buy a developer a beer!
