                               Psi4 1.4a2.dev224

  ==> Input File <==

--------------------------------------------------------------------------
#Generated by lconvert.py for cbs job

memory 40 GB

molecule  {
0 1
  C       -2.2753450    -0.1350750     0.8313340
  H       -2.4907180    -0.7279270    -0.0575660
  H       -2.2263240    -0.8184460     1.6788230
  H       -3.1120260     0.5449430     0.9874000
  C       -0.9616980     0.6192780     0.6693990
  H       -0.7886990     1.2504320     1.5447030
  H       -1.0261770     1.2954450    -0.1864580
  C        0.2265020    -0.3147100     0.4799860
  H        0.3094440    -0.9751390     1.3480380
  H        0.0391510    -0.9659990    -0.3787900
  C        1.5430020     0.4211750     0.2690000
  H        1.7116390     1.1077720     1.1024470
  H        1.4660950     1.0437430    -0.6252940
  C        2.7275760    -0.5268610     0.1374590
  H        2.5887420    -1.2032140    -0.7057570
  H        3.6615010     0.0116930    -0.0159690
  H        2.8351940    -1.1374100     1.0340750
--
0 1
  C       -0.3591160    -0.2555810     3.4839810
  O       -0.7817300    -1.3707610     3.2868340
  O       -1.1728090     0.8033850     3.7165700
  H       -2.0735710     0.4490040     3.6760350
  C        1.0811510     0.1540850     3.5011860
  H        1.7069740    -0.7160960     3.3430310
  H        1.2571880     0.8883590     2.7180620
  H        1.3184620     0.6233860     4.4529890
units angstrom
no_reorient
symmetry c1
}

set {
scf_type DF
mp2_type DF
e_convergence 7
reference rhf
}

energy('mp2/aug-cc-pv[tq]z', bsse_type='cp')
--------------------------------------------------------------------------

    Molecular point group: c1
  Charge       = 0
  Multiplicity = 1
  Basis Set: AUG-CC-PVTZ
    Blend: AUG-CC-PVTZ
  Basis Set: (AUG-CC-PVTZ AUX)
    Blend: AUG-CC-PVTZ-JKFIT
  @DF-RHF Final Energy:  -227.90526112941973
    Total Energy =                       -227.9052611294197277
  Basis Set: (AUG-CC-PVTZ AUX)
    Blend: AUG-CC-PVTZ-RI
	 Reference Energy          =    -227.9052611294197277 [Eh]
	 Singles Energy            =      -0.0000000000000000 [Eh]
	 Same-Spin Energy          =      -0.2149200516791181 [Eh]
	 Opposite-Spin Energy      =      -0.6692165583308752 [Eh]
	 Correlation Energy        =      -0.8841366100099933 [Eh]
	 Total Energy              =    -228.7893977394297167 [Eh]
	 SCS Total Energy          =    -228.7799610166431421 [Eh]
    Molecular point group: c1
  Basis Set: AUG-CC-PVQZ
    Blend: AUG-CC-PVQZ
  Basis Set: (AUG-CC-PVQZ AUX)
    Blend: AUG-CC-PVQZ-JKFIT
  @DF-RHF Final Energy:  -227.91999270897230
    Total Energy =                       -227.9199927089723019
  Basis Set: (AUG-CC-PVQZ AUX)
  @DF-RHF Final Energy:  -227.90569646861260
    Total Energy =                       -227.9056964686126037
  @DF-RHF Final Energy:  -227.92011059670628
    Total Energy =                       -227.9201105967062801
  @DF-RHF Final Energy:  -196.40440216518715
    Total Energy =                       -196.4044021651871503
  @DF-RHF Final Energy:  -196.41617483297210
    Total Energy =                       -196.4161748329721036
  @DF-RHF Final Energy:  -196.40432936954687
    Total Energy =                       -196.4043293695468719
  @DF-RHF Final Energy:  -196.41615072272901
    Total Energy =                       -196.4161507227290144
  Multiplicity = 1
  @DF-RHF Final Energy:  -424.28242151246508
    Total Energy =                       -424.2824215124650209
	 Singles Energy            =      -0.0000000000000000 [Eh]
	 Same-Spin Energy          =      -0.4337991708369708 [Eh]
	 Opposite-Spin Energy      =      -1.4792228066027535 [Eh]
	 Correlation Energy        =      -1.9130219774397244 [Eh]
	 Total Energy              =    -426.1954434899047897 [Eh]
	 SCS Total Energy          =    -426.2020886040007213 [Eh]
    Molecular point group: c1

    Geometry (in Angstrom), charge = 0, multiplicity = 1:

       Center              X                  Y                   Z               Mass
    ------------   -----------------  -----------------  -----------------  -----------------
         C           -2.258235393197    -0.068075767214    -1.019769542228    12.000000000000
         H           -2.473608393197    -0.660927767214    -1.908669542228     1.007825032230
         H           -2.209214393197    -0.751446767214    -0.172280542228     1.007825032230
         H           -3.094916393197     0.611942232786    -0.863703542228     1.007825032230
         C           -0.944588393197     0.686277232786    -1.181704542228    12.000000000000
         H           -0.771589393197     1.317431232786    -0.306400542228     1.007825032230
         H           -1.009067393197     1.362444232786    -2.037561542228     1.007825032230
         C            0.243611606803    -0.247710767214    -1.371117542228    12.000000000000
         H            0.326553606803    -0.908139767214    -0.503065542228     1.007825032230
         H            0.056260606803    -0.898999767214    -2.229893542228     1.007825032230
         C            1.560111606803     0.488174232786    -1.582103542228    12.000000000000
         H            1.728748606803     1.174771232786    -0.748656542228     1.007825032230
         H            1.483204606803     1.110742232786    -2.476397542228     1.007825032230
         C            2.744685606803    -0.459861767214    -1.713644542228    12.000000000000
         H            2.605851606803    -1.136214767214    -2.556860542228     1.007825032230
         H            3.678610606803     0.078692232786    -1.867072542228     1.007825032230
         H            2.852303606803    -1.070410767214    -0.817028542228     1.007825032230
         C           -0.342006393197    -0.188581767214     1.632877457772    12.000000000000
         O           -0.764620393197    -1.303761767214     1.435730457772    15.994914619570
         O           -1.155699393197     0.870384232786     1.865466457772    15.994914619570
         H           -2.056461393197     0.516003232786     1.824931457772     1.007825032230
         C            1.098260606803     0.221084232786     1.650082457772    12.000000000000
         H            1.724083606803    -0.649096767214     1.491927457772     1.007825032230
         H            1.274297606803     0.955358232786     0.866958457772     1.007825032230
         H            1.335571606803     0.690385232786     2.601885457772     1.007825032230

  Charge       = 0
  Multiplicity = 1
  Basis Set: AUG-CC-PVQZ
    Blend: AUG-CC-PVQZ
  Basis Set: (AUG-CC-PVQZ AUX)
    Blend: AUG-CC-PVQZ-JKFIT

    Orbital Energies [Eh]
    ---------------------

    Doubly Occupied:

       1A    -20.612548     2A    -20.549469     3A    -11.391074
       4A    -11.241810     5A    -11.214207     6A    -11.209292
       7A    -11.207896     8A    -11.204447     9A    -11.199811
      10A     -1.469018    11A     -1.365295    12A     -1.083502
      13A     -1.032063    14A     -1.015950    15A     -0.918937
      16A     -0.827937    17A     -0.818550    18A     -0.786964
      19A     -0.711293    20A     -0.688292    21A     -0.684280
      22A     -0.624817    23A     -0.601329    24A     -0.599087
      25A     -0.588069    26A     -0.577169    27A     -0.558967
      28A     -0.552442    29A     -0.547870    30A     -0.524307
      31A     -0.502835    32A     -0.495374    33A     -0.475658
      34A     -0.460565    35A     -0.455879    36A     -0.446530
      37A     -0.443306

  @DF-RHF Final Energy:  -424.30866158540204

   => Energetics <=

    Nuclear Repulsion Energy =            501.1087626801921147
    One-Electron Energy =               -1571.4611681280910034
    Two-Electron Energy =                 646.0437438624969673
    Total Energy =                       -424.3086615854019783

  Dipole Moment: [D]
     X:     0.7346      Y:     1.5965      Z:     0.3067     Total:     1.7840

  Basis Set: (AUG-CC-PVQZ AUX)
    Blend: AUG-CC-PVQZ-RI
	 Reference Energy          =    -424.3086615854020351 [Eh]
	 Singles Energy            =      -0.0000000000000000 [Eh]
	 Same-Spin Energy          =      -0.4588025468605659 [Eh]
	 Opposite-Spin Energy      =      -1.6498856625093623 [Eh]
	 Correlation Energy        =      -2.1086882093699284 [Eh]
	 Total Energy              =    -426.4173497947719511 [Eh]

	 ================> DF-SCS-MP2 Energies <==================
	-----------------------------------------------------------
	 SCS Same-Spin Scale       =       0.3333333333333333 [-]
	 SCS Opposite-Spin Scale   =       1.2000000000000000 [-]
	 SCS Same-Spin Energy      =      -0.1529341822868553 [Eh]
	 SCS Opposite-Spin Energy  =      -1.9798627950112346 [Eh]
	 SCS Correlation Energy    =      -2.1327969772980899 [Eh]
	 SCS Total Energy          =    -426.4414585627001202 [Eh]
	-----------------------------------------------------------

*** Psi4 exiting successfully. Buy a developer a beer!
