                               Psi4 1.4a2.dev224

  ==> Input File <==

--------------------------------------------------------------------------
#Generated by lconvert.py for cbs job

memory 40 GB

molecule  {
0 1
  C       -2.2753450    -0.1350750     0.8313340
  H       -2.4907180    -0.7279270    -0.0575660
  H       -2.2263240    -0.8184460     1.6788230
  H       -3.1120260     0.5449430     0.9874000
  C       -0.9616980     0.6192780     0.6693990
  H       -0.7886990     1.2504320     1.5447030
  H       -1.0261770     1.2954450    -0.1864580
  C        0.2265020    -0.3147100     0.4799860
  H        0.3094440    -0.9751390     1.3480380
  H        0.0391510    -0.9659990    -0.3787900
  C        1.5430020     0.4211750     0.2690000
  H        1.7116390     1.1077720     1.1024470
  H        1.4660950     1.0437430    -0.6252940
  C        2.7275760    -0.5268610     0.1374590
  H        2.5887420    -1.2032140    -0.7057570
  H        3.6615010     0.0116930    -0.0159690
  H        2.8351940    -1.1374100     1.0340750
--
0 1
  C       -0.5218340    -0.2977910     4.3172390
  O       -0.9444480    -1.4129720     4.1200920
  O       -1.3355260     0.7611740     4.5498280
  H       -2.2362880     0.4067940     4.5092930
  C        0.9184330     0.1118750     4.3344440
  H        1.5442570    -0.7583060     4.1762890
  H        1.0944710     0.8461480     3.5513200
  H        1.1557450     0.5811760     5.2862470
units angstrom
no_reorient
symmetry c1
}

set {
scf_type DF
mp2_type DF
e_convergence 7
reference rhf
}

energy('mp2/aug-cc-pv[tq]z', bsse_type='cp')
--------------------------------------------------------------------------

    Molecular point group: c1
  Charge       = 0
  Multiplicity = 1
  Basis Set: AUG-CC-PVTZ
    Blend: AUG-CC-PVTZ
  Basis Set: (AUG-CC-PVTZ AUX)
    Blend: AUG-CC-PVTZ-JKFIT
  @DF-RHF Final Energy:  -227.90526111765584
    Total Energy =                       -227.9052611176558401
  Basis Set: (AUG-CC-PVTZ AUX)
    Blend: AUG-CC-PVTZ-RI
	 Reference Energy          =    -227.9052611176558401 [Eh]
	 Singles Energy            =      -0.0000000000000000 [Eh]
	 Same-Spin Energy          =      -0.2149200584806901 [Eh]
	 Opposite-Spin Energy      =      -0.6692165611695466 [Eh]
	 Correlation Energy        =      -0.8841366196502367 [Eh]
	 Total Energy              =    -228.7893977373060750 [Eh]
	 SCS Total Energy          =    -228.7799610105528529 [Eh]
    Molecular point group: c1
  Basis Set: AUG-CC-PVQZ
    Blend: AUG-CC-PVQZ
  Basis Set: (AUG-CC-PVQZ AUX)
    Blend: AUG-CC-PVQZ-JKFIT
  @DF-RHF Final Energy:  -227.91999269666215
    Total Energy =                       -227.9199926966621490
  Basis Set: (AUG-CC-PVQZ AUX)
  @DF-RHF Final Energy:  -227.90549087870042
    Total Energy =                       -227.9054908787004194
  @DF-RHF Final Energy:  -227.92006633307011
    Total Energy =                       -227.9200663330701104
  @DF-RHF Final Energy:  -196.40435855773063
    Total Energy =                       -196.4043585577306317
  @DF-RHF Final Energy:  -196.41616280138894
    Total Energy =                       -196.4161628013889356
  @DF-RHF Final Energy:  -196.40432937069625
    Total Energy =                       -196.4043293706962459
  @DF-RHF Final Energy:  -196.41615072576749
    Total Energy =                       -196.4161507257674941
  Multiplicity = 1
  @DF-RHF Final Energy:  -424.30820512698955
    Total Energy =                       -424.3082051269896056
	 Singles Energy            =      -0.0000000000000000 [Eh]
	 Same-Spin Energy          =      -0.4260823040699590 [Eh]
	 Opposite-Spin Energy      =      -1.4682308483058624 [Eh]
	 Correlation Energy        =      -1.8943131523758212 [Eh]
	 Total Energy              =    -426.2025182793653926 [Eh]
	 SCS Total Energy          =    -426.2121095796465511 [Eh]
    Molecular point group: c1

    Geometry (in Angstrom), charge = 0, multiplicity = 1:

       Center              X                  Y                   Z               Mass
    ------------   -----------------  -----------------  -----------------  -----------------
         C           -2.184311191534    -0.048899108260    -1.398326670117    12.000000000000
         H           -2.399684191534    -0.641751108260    -2.287226670117     1.007825032230
         H           -2.135290191534    -0.732270108260    -0.550837670117     1.007825032230
         H           -3.020992191534     0.631118891740    -1.242260670117     1.007825032230
         C           -0.870664191534     0.705453891740    -1.560261670117    12.000000000000
         H           -0.697665191534     1.336607891740    -0.684957670117     1.007825032230
         H           -0.935143191534     1.381620891740    -2.416118670117     1.007825032230
         C            0.317535808466    -0.228534108260    -1.749674670117    12.000000000000
         H            0.400477808466    -0.888963108260    -0.881622670117     1.007825032230
         H            0.130184808466    -0.879823108260    -2.608450670117     1.007825032230
         C            1.634035808466     0.507350891740    -1.960660670117    12.000000000000
         H            1.802672808466     1.193947891740    -1.127213670117     1.007825032230
         H            1.557128808466     1.129918891740    -2.854954670117     1.007825032230
         C            2.818609808466    -0.440685108260    -2.092201670117    12.000000000000
         H            2.679775808466    -1.117038108260    -2.935417670117     1.007825032230
         H            3.752534808466     0.097868891740    -2.245629670117     1.007825032230
         H            2.926227808466    -1.051234108260    -1.195585670117     1.007825032230
         C           -0.430800191534    -0.211615108260     2.087578329883    12.000000000000
         O           -0.853414191534    -1.326796108260     1.890431329883    15.994914619570
         O           -1.244492191534     0.847349891740     2.320167329883    15.994914619570
         H           -2.145254191534     0.492969891740     2.279632329883     1.007825032230
         C            1.009466808466     0.198050891740     2.104783329883    12.000000000000
         H            1.635290808466    -0.672130108260     1.946628329883     1.007825032230
         H            1.185504808466     0.932323891740     1.321659329883     1.007825032230
         H            1.246778808466     0.667351891740     3.056586329883     1.007825032230

  Charge       = 0
  Multiplicity = 1
  Basis Set: AUG-CC-PVQZ
    Blend: AUG-CC-PVQZ
  Basis Set: (AUG-CC-PVQZ AUX)
    Blend: AUG-CC-PVQZ-JKFIT

    Orbital Energies [Eh]
    ---------------------

    Doubly Occupied:

       1A    -20.613987     2A    -20.551214     3A    -11.391044
       4A    -11.245568     5A    -11.214213     6A    -11.211791
       7A    -11.208735     8A    -11.208181     9A    -11.203088
      10A     -1.467541    11A     -1.363604    12A     -1.081848
      13A     -1.031830    14A     -1.015839    15A     -0.918883
      16A     -0.824335    17A     -0.820419    18A     -0.785991
      19A     -0.709730    20A     -0.683608    21A     -0.661155
      22A     -0.641763    23A     -0.599366    24A     -0.594427
      25A     -0.588051    26A     -0.576794    27A     -0.564494
      28A     -0.554248    29A     -0.547884    30A     -0.525354
      31A     -0.495656    32A     -0.489154    33A     -0.476586
      34A     -0.462623    35A     -0.458916    36A     -0.457973
      37A     -0.447289

  @DF-RHF Final Energy:  -424.33458707611902

   => Energetics <=

    Nuclear Repulsion Energy =            468.1929825844164839
    One-Electron Energy =               -1505.6687633048593398
    Two-Electron Energy =                 613.1411936443237209
    Total Energy =                       -424.3345870761190781

  Dipole Moment: [D]
     X:     0.7265      Y:     1.6991      Z:     0.2725     Total:     1.8679

  Basis Set: (AUG-CC-PVQZ AUX)
    Blend: AUG-CC-PVQZ-RI
	 Reference Energy          =    -424.3345870761190213 [Eh]
	 Singles Energy            =      -0.0000000000000000 [Eh]
	 Same-Spin Energy          =      -0.4511557023462174 [Eh]
	 Opposite-Spin Energy      =      -1.6406587874888474 [Eh]
	 Correlation Energy        =      -2.0918144898350648 [Eh]
	 Total Energy              =    -426.4264015659541087 [Eh]

	 ================> DF-SCS-MP2 Energies <==================
	-----------------------------------------------------------
	 SCS Same-Spin Scale       =       0.3333333333333333 [-]
	 SCS Opposite-Spin Scale   =       1.2000000000000000 [-]
	 SCS Same-Spin Energy      =      -0.1503852341154058 [Eh]
	 SCS Opposite-Spin Energy  =      -1.9687905449866168 [Eh]
	 SCS Correlation Energy    =      -2.1191757791020227 [Eh]
	 SCS Total Energy          =    -426.4537628552210435 [Eh]
	-----------------------------------------------------------

*** Psi4 exiting successfully. Buy a developer a beer!
