                               Psi4 1.4a2.dev224

  ==> Input File <==

--------------------------------------------------------------------------
#Generated by lconvert.py for cbs job

memory 40 GB

molecule  {
0 1
  C       -2.2753450    -0.1350750     0.8313340
  H       -2.4907180    -0.7279270    -0.0575660
  H       -2.2263240    -0.8184460     1.6788230
  H       -3.1120260     0.5449430     0.9874000
  C       -0.9616980     0.6192780     0.6693990
  H       -0.7886990     1.2504320     1.5447030
  H       -1.0261770     1.2954450    -0.1864580
  C        0.2265020    -0.3147100     0.4799860
  H        0.3094440    -0.9751390     1.3480380
  H        0.0391510    -0.9659990    -0.3787900
  C        1.5430020     0.4211750     0.2690000
  H        1.7116390     1.1077720     1.1024470
  H        1.4660950     1.0437430    -0.6252940
  C        2.7275760    -0.5268610     0.1374590
  H        2.5887420    -1.2032140    -0.7057570
  H        3.6615010     0.0116930    -0.0159690
  H        2.8351940    -1.1374100     1.0340750
--
0 1
  C       -0.4986020    -0.2917650     4.1982700
  O       -0.9212160    -1.4069450     4.0011240
  O       -1.3122940     0.7672010     4.4308600
  H       -2.2130560     0.4128200     4.3903240
  C        0.9416650     0.1179010     4.2154760
  H        1.5674880    -0.7522800     4.0573210
  H        1.1177030     0.8521750     3.4323510
  H        1.1789770     0.5872020     5.1672780
units angstrom
no_reorient
symmetry c1
}

set {
scf_type DF
mp2_type DF
e_convergence 7
reference rhf
}

energy('mp2/aug-cc-pv[tq]z', bsse_type='cp')
--------------------------------------------------------------------------

    Molecular point group: c1
  Charge       = 0
  Multiplicity = 1
  Basis Set: AUG-CC-PVTZ
    Blend: AUG-CC-PVTZ
  Basis Set: (AUG-CC-PVTZ AUX)
    Blend: AUG-CC-PVTZ-JKFIT
  @DF-RHF Final Energy:  -227.90526114265231
    Total Energy =                       -227.9052611426523072
  Basis Set: (AUG-CC-PVTZ AUX)
    Blend: AUG-CC-PVTZ-RI
	 Reference Energy          =    -227.9052611426523072 [Eh]
	 Singles Energy            =      -0.0000000000000000 [Eh]
	 Same-Spin Energy          =      -0.2149200503052460 [Eh]
	 Opposite-Spin Energy      =      -0.6692165473528437 [Eh]
	 Correlation Energy        =      -0.8841365976580897 [Eh]
	 Total Energy              =    -228.7893977403103918 [Eh]
	 SCS Total Energy          =    -228.7799610162441297 [Eh]
    Molecular point group: c1
  Basis Set: AUG-CC-PVQZ
    Blend: AUG-CC-PVQZ
  Basis Set: (AUG-CC-PVQZ AUX)
    Blend: AUG-CC-PVQZ-JKFIT
  @DF-RHF Final Energy:  -227.91999272437687
    Total Energy =                       -227.9199927243768684
  Basis Set: (AUG-CC-PVQZ AUX)
  @DF-RHF Final Energy:  -227.90551539045487
    Total Energy =                       -227.9055153904548661
  @DF-RHF Final Energy:  -227.92007113780357
    Total Energy =                       -227.9200711378035749
  @DF-RHF Final Energy:  -196.40436207584375
    Total Energy =                       -196.4043620758437498
  @DF-RHF Final Energy:  -196.41616401601078
    Total Energy =                       -196.4161640160107822
  @DF-RHF Final Energy:  -196.40432937086948
    Total Energy =                       -196.4043293708694762
  @DF-RHF Final Energy:  -196.41615072277199
    Total Energy =                       -196.4161507227719881
  Multiplicity = 1
  @DF-RHF Final Energy:  -424.30734075044836
    Total Energy =                       -424.3073407504483612
	 Singles Energy            =      -0.0000000000000000 [Eh]
	 Same-Spin Energy          =      -0.4266763425204636 [Eh]
	 Opposite-Spin Energy      =      -1.4691342727320331 [Eh]
	 Correlation Energy        =      -1.8958106152524967 [Eh]
	 Total Energy              =    -426.2031513657008759 [Eh]
	 SCS Total Energy          =    -426.2125273252336228 [Eh]
    Molecular point group: c1

    Geometry (in Angstrom), charge = 0, multiplicity = 1:

       Center              X                  Y                   Z               Mass
    ------------   -----------------  -----------------  -----------------  -----------------
         C           -2.194865705068    -0.051637027813    -1.344278249166    12.000000000000
         H           -2.410238705068    -0.644489027813    -2.233178249166     1.007825032230
         H           -2.145844705068    -0.735008027813    -0.496789249166     1.007825032230
         H           -3.031546705068     0.628380972187    -1.188212249166     1.007825032230
         C           -0.881218705068     0.702715972187    -1.506213249166    12.000000000000
         H           -0.708219705068     1.333869972187    -0.630909249166     1.007825032230
         H           -0.945697705068     1.378882972187    -2.362070249166     1.007825032230
         C            0.306981294932    -0.231272027813    -1.695626249166    12.000000000000
         H            0.389923294932    -0.891701027813    -0.827574249166     1.007825032230
         H            0.119630294932    -0.882561027813    -2.554402249166     1.007825032230
         C            1.623481294932     0.504612972187    -1.906612249166    12.000000000000
         H            1.792118294932     1.191209972187    -1.073165249166     1.007825032230
         H            1.546574294932     1.127180972187    -2.800906249166     1.007825032230
         C            2.808055294932    -0.443423027813    -2.038153249166    12.000000000000
         H            2.669221294932    -1.119776027813    -2.881369249166     1.007825032230
         H            3.741980294932     0.095130972187    -2.191581249166     1.007825032230
         H            2.915673294932    -1.053972027813    -1.141537249166     1.007825032230
         C           -0.418122705068    -0.208327027813     2.022657750834    12.000000000000
         O           -0.840736705068    -1.323507027813     1.825511750834    15.994914619570
         O           -1.231814705068     0.850638972187     2.255247750834    15.994914619570
         H           -2.132576705068     0.496257972187     2.214711750834     1.007825032230
         C            1.022144294932     0.201338972187     2.039863750834    12.000000000000
         H            1.647967294932    -0.668842027813     1.881708750834     1.007825032230
         H            1.198182294932     0.935612972187     1.256738750834     1.007825032230
         H            1.259456294932     0.670639972187     2.991665750834     1.007825032230

  Charge       = 0
  Multiplicity = 1
  Basis Set: AUG-CC-PVQZ
    Blend: AUG-CC-PVQZ
  Basis Set: (AUG-CC-PVQZ AUX)
    Blend: AUG-CC-PVQZ-JKFIT

    Orbital Energies [Eh]
    ---------------------

    Doubly Occupied:

       1A    -20.613962     2A    -20.551181     3A    -11.391068
       4A    -11.245390     5A    -11.214343     6A    -11.211621
       7A    -11.208519     8A    -11.208317     9A    -11.202776
      10A     -1.467625    11A     -1.363717    12A     -1.081920
      13A     -1.031826    14A     -1.015872    15A     -0.918882
      16A     -0.824443    17A     -0.820400    18A     -0.786021
      19A     -0.709847    20A     -0.683717    21A     -0.663212
      22A     -0.640072    23A     -0.599397    24A     -0.594864
      25A     -0.588042    26A     -0.576748    27A     -0.564295
      28A     -0.554222    29A     -0.547880    30A     -0.525275
      31A     -0.495775    32A     -0.489939    33A     -0.476615
      34A     -0.462513    35A     -0.458824    36A     -0.457274
      37A     -0.447270

  @DF-RHF Final Energy:  -424.33370218424852

   => Energetics <=

    Nuclear Repulsion Energy =            472.2685355777730933
    One-Electron Energy =               -1513.8171435864171599
    Two-Electron Energy =                 617.2149058243956006
    Total Energy =                       -424.3337021842485228

  Dipole Moment: [D]
     X:     0.7256      Y:     1.6857      Z:     0.2737     Total:     1.8555

  Basis Set: (AUG-CC-PVQZ AUX)
    Blend: AUG-CC-PVQZ-RI
	 Reference Energy          =    -424.3337021842485228 [Eh]
	 Singles Energy            =      -0.0000000000000000 [Eh]
	 Same-Spin Energy          =      -0.4517370072337237 [Eh]
	 Opposite-Spin Energy      =      -1.6413748268997259 [Eh]
	 Correlation Energy        =      -2.0931118341334498 [Eh]
	 Total Energy              =    -426.4268140183819469 [Eh]

	 ================> DF-SCS-MP2 Energies <==================
	-----------------------------------------------------------
	 SCS Same-Spin Scale       =       0.3333333333333333 [-]
	 SCS Opposite-Spin Scale   =       1.2000000000000000 [-]
	 SCS Same-Spin Energy      =      -0.1505790024112412 [Eh]
	 SCS Opposite-Spin Energy  =      -1.9696497922796710 [Eh]
	 SCS Correlation Energy    =      -2.1202287946909122 [Eh]
	 SCS Total Energy          =    -426.4539309789394110 [Eh]
	-----------------------------------------------------------

*** Psi4 exiting successfully. Buy a developer a beer!
