                               Psi4 1.4a2.dev224

  ==> Input File <==

--------------------------------------------------------------------------
#Generated by lconvert.py for cbs job

memory 40 GB

molecule  {
0 1
  C       -2.2753450    -0.1350750     0.8313340
  H       -2.4907180    -0.7279270    -0.0575660
  H       -2.2263240    -0.8184460     1.6788230
  H       -3.1120260     0.5449430     0.9874000
  C       -0.9616980     0.6192780     0.6693990
  H       -0.7886990     1.2504320     1.5447030
  H       -1.0261770     1.2954450    -0.1864580
  C        0.2265020    -0.3147100     0.4799860
  H        0.3094440    -0.9751390     1.3480380
  H        0.0391510    -0.9659990    -0.3787900
  C        1.5430020     0.4211750     0.2690000
  H        1.7116390     1.1077720     1.1024470
  H        1.4660950     1.0437430    -0.6252940
  C        2.7275760    -0.5268610     0.1374590
  H        2.5887420    -1.2032140    -0.7057570
  H        3.6615010     0.0116930    -0.0159690
  H        2.8351940    -1.1374100     1.0340750
--
0 1
  C       -0.4521720    -0.2797200     3.9605070
  O       -0.8747850    -1.3949010     3.7633600
  O       -1.2658640     0.7792450     4.1930970
  H       -2.1666260     0.4248650     4.1525610
  C        0.9880960     0.1299460     3.9777120
  H        1.6139190    -0.7402350     3.8195570
  H        1.1641330     0.8642190     3.1945880
  H        1.2254070     0.5992470     4.9295150
units angstrom
no_reorient
symmetry c1
}

set {
scf_type DF
mp2_type DF
e_convergence 7
reference rhf
}

energy('mp2/aug-cc-pv[tq]z', bsse_type='cp')
--------------------------------------------------------------------------

    Molecular point group: c1
  Charge       = 0
  Multiplicity = 1
  Basis Set: AUG-CC-PVTZ
    Blend: AUG-CC-PVTZ
  Basis Set: (AUG-CC-PVTZ AUX)
    Blend: AUG-CC-PVTZ-JKFIT
  @DF-RHF Final Energy:  -227.90526114265219
    Total Energy =                       -227.9052611426521935
  Basis Set: (AUG-CC-PVTZ AUX)
    Blend: AUG-CC-PVTZ-RI
	 Reference Energy          =    -227.9052611426521935 [Eh]
	 Singles Energy            =      -0.0000000000000000 [Eh]
	 Same-Spin Energy          =      -0.2149200468206883 [Eh]
	 Opposite-Spin Energy      =      -0.6692165452621545 [Eh]
	 Correlation Energy        =      -0.8841365920828428 [Eh]
	 Total Energy              =    -228.7893977347350472 [Eh]
	 SCS Total Energy          =    -228.7799610125736649 [Eh]
    Molecular point group: c1
  Basis Set: AUG-CC-PVQZ
    Blend: AUG-CC-PVQZ
  Basis Set: (AUG-CC-PVQZ AUX)
    Blend: AUG-CC-PVQZ-JKFIT
  @DF-RHF Final Energy:  -227.91999272290721
    Total Energy =                       -227.9199927229072102
  Basis Set: (AUG-CC-PVQZ AUX)
  @DF-RHF Final Energy:  -227.90557135156664
    Total Energy =                       -227.9055713515666355
  @DF-RHF Final Energy:  -227.92008245455190
    Total Energy =                       -227.9200824545519026
  @DF-RHF Final Energy:  -196.40437157068115
    Total Energy =                       -196.4043715706811497
  @DF-RHF Final Energy:  -196.41616686382355
    Total Energy =                       -196.4161668638235483
  @DF-RHF Final Energy:  -196.40432937072762
    Total Energy =                       -196.4043293707276234
  @DF-RHF Final Energy:  -196.41615072387111
    Total Energy =                       -196.4161507238711124
  Multiplicity = 1
  @DF-RHF Final Energy:  -424.30414199316181
    Total Energy =                       -424.3041419931618066
	 Singles Energy            =      -0.0000000000000000 [Eh]
	 Same-Spin Energy          =      -0.4282450015925353 [Eh]
	 Opposite-Spin Energy      =      -1.4714533020307545 [Eh]
	 Correlation Energy        =      -1.8996983036232900 [Eh]
	 Total Energy              =    -426.2038402967850743 [Eh]
	 SCS Total Energy          =    -426.2126342894628692 [Eh]
    Molecular point group: c1

    Geometry (in Angstrom), charge = 0, multiplicity = 1:

       Center              X                  Y                   Z               Mass
    ------------   -----------------  -----------------  -----------------  -----------------
         C           -2.215959520393    -0.057108937458    -1.236260010733    12.000000000000
         H           -2.431332520393    -0.649960937458    -2.125160010733     1.007825032230
         H           -2.166938520393    -0.740479937458    -0.388771010733     1.007825032230
         H           -3.052640520393     0.622909062542    -1.080194010733     1.007825032230
         C           -0.902312520393     0.697244062542    -1.398195010733    12.000000000000
         H           -0.729313520393     1.328398062542    -0.522891010733     1.007825032230
         H           -0.966791520393     1.373411062542    -2.254052010733     1.007825032230
         C            0.285887479607    -0.236743937458    -1.587608010733    12.000000000000
         H            0.368829479607    -0.897172937458    -0.719556010733     1.007825032230
         H            0.098536479607    -0.888032937458    -2.446384010733     1.007825032230
         C            1.602387479607     0.499141062542    -1.798594010733    12.000000000000
         H            1.771024479607     1.185738062542    -0.965147010733     1.007825032230
         H            1.525480479607     1.121709062542    -2.692888010733     1.007825032230
         C            2.786961479607    -0.448894937458    -1.930135010733    12.000000000000
         H            2.648127479607    -1.125247937458    -2.773351010733     1.007825032230
         H            3.720886479607     0.089659062542    -2.083563010733     1.007825032230
         H            2.894579479607    -1.059443937458    -1.033519010733     1.007825032230
         C           -0.392786520393    -0.201753937458     1.892912989267    12.000000000000
         O           -0.815399520393    -1.316934937458     1.695765989267    15.994914619570
         O           -1.206478520393     0.857211062542     2.125502989267    15.994914619570
         H           -2.107240520393     0.502831062542     2.084966989267     1.007825032230
         C            1.047481479607     0.207912062542     1.910117989267    12.000000000000
         H            1.673304479607    -0.662268937458     1.751962989267     1.007825032230
         H            1.223518479607     0.942185062542     1.126993989267     1.007825032230
         H            1.284792479607     0.677213062542     2.861920989267     1.007825032230

  Charge       = 0
  Multiplicity = 1
  Basis Set: AUG-CC-PVQZ
    Blend: AUG-CC-PVQZ
  Basis Set: (AUG-CC-PVQZ AUX)
    Blend: AUG-CC-PVQZ-JKFIT

    Orbital Energies [Eh]
    ---------------------

    Doubly Occupied:

       1A    -20.613805     2A    -20.550985     3A    -11.391084
       4A    -11.244808     5A    -11.214538     6A    -11.211039
       7A    -11.208614     8A    -11.207828     9A    -11.202010
      10A     -1.467852    11A     -1.364009    12A     -1.082125
      13A     -1.031812    14A     -1.015935    15A     -0.918877
      16A     -0.824867    17A     -0.820206    18A     -0.786112
      19A     -0.710144    20A     -0.684070    21A     -0.668620
      22A     -0.635686    23A     -0.599489    24A     -0.596264
      25A     -0.587999    26A     -0.576647    27A     -0.563489
      28A     -0.554068    29A     -0.547869    30A     -0.525043
      31A     -0.496215    32A     -0.492096    33A     -0.476703
      34A     -0.462163    35A     -0.458527    36A     -0.454815
      37A     -0.447168

  @DF-RHF Final Energy:  -424.33045796614908

   => Energetics <=

    Nuclear Repulsion Energy =            480.9861062911475074
    One-Electron Energy =               -1531.2459539785465950
    Two-Electron Energy =                 625.9293897212500042
    Total Energy =                       -424.3304579661490834

  Dipole Moment: [D]
     X:     0.7253      Y:     1.6571      Z:     0.2787     Total:     1.8302

  Basis Set: (AUG-CC-PVQZ AUX)
    Blend: AUG-CC-PVQZ-RI
	 Reference Energy          =    -424.3304579661490834 [Eh]
	 Singles Energy            =      -0.0000000000000000 [Eh]
	 Same-Spin Energy          =      -0.4532774418632501 [Eh]
	 Opposite-Spin Energy      =      -1.6432596782211686 [Eh]
	 Correlation Energy        =      -2.0965371200844185 [Eh]
	 Total Energy              =    -426.4269950862334895 [Eh]

	 ================> DF-SCS-MP2 Energies <==================
	-----------------------------------------------------------
	 SCS Same-Spin Scale       =       0.3333333333333333 [-]
	 SCS Opposite-Spin Scale   =       1.2000000000000000 [-]
	 SCS Same-Spin Energy      =      -0.1510924806210834 [Eh]
	 SCS Opposite-Spin Energy  =      -1.9719116138654023 [Eh]
	 SCS Correlation Energy    =      -2.1230040944864856 [Eh]
	 SCS Total Energy          =    -426.4534620606355588 [Eh]
	-----------------------------------------------------------

*** Psi4 exiting successfully. Buy a developer a beer!
