                               Psi4 1.4a2.dev224

  ==> Input File <==

--------------------------------------------------------------------------
#Generated by lconvert.py for cbs job

memory 40 GB

molecule  {
0 1
  C       -2.2753450    -0.1350750     0.8313340
  H       -2.4907180    -0.7279270    -0.0575660
  H       -2.2263240    -0.8184460     1.6788230
  H       -3.1120260     0.5449430     0.9874000
  C       -0.9616980     0.6192780     0.6693990
  H       -0.7886990     1.2504320     1.5447030
  H       -1.0261770     1.2954450    -0.1864580
  C        0.2265020    -0.3147100     0.4799860
  H        0.3094440    -0.9751390     1.3480380
  H        0.0391510    -0.9659990    -0.3787900
  C        1.5430020     0.4211750     0.2690000
  H        1.7116390     1.1077720     1.1024470
  H        1.4660950     1.0437430    -0.6252940
  C        2.7275760    -0.5268610     0.1374590
  H        2.5887420    -1.2032140    -0.7057570
  H        3.6615010     0.0116930    -0.0159690
  H        2.8351940    -1.1374100     1.0340750
--
0 1
  C       -0.4056640    -0.2676560     3.7223450
  O       -0.8282780    -1.3828360     3.5251990
  O       -1.2193560     0.7913100     3.9549350
  H       -2.1201180     0.4369290     3.9143990
  C        1.0346030     0.1420100     3.7395510
  H        1.6604260    -0.7281710     3.5813960
  H        1.2106410     0.8762840     2.9564260
  H        1.2719150     0.6113110     4.6913530
units angstrom
no_reorient
symmetry c1
}

set {
scf_type DF
mp2_type DF
e_convergence 7
reference rhf
}

energy('mp2/aug-cc-pv[tq]z', bsse_type='cp')
--------------------------------------------------------------------------

    Molecular point group: c1
  Charge       = 0
  Multiplicity = 1
  Basis Set: AUG-CC-PVTZ
    Blend: AUG-CC-PVTZ
  Basis Set: (AUG-CC-PVTZ AUX)
    Blend: AUG-CC-PVTZ-JKFIT
  @DF-RHF Final Energy:  -227.90526114283355
    Total Energy =                       -227.9052611428335524
  Basis Set: (AUG-CC-PVTZ AUX)
    Blend: AUG-CC-PVTZ-RI
	 Reference Energy          =    -227.9052611428335524 [Eh]
	 Singles Energy            =      -0.0000000000000000 [Eh]
	 Same-Spin Energy          =      -0.2149200503070975 [Eh]
	 Opposite-Spin Energy      =      -0.6692165473641118 [Eh]
	 Correlation Energy        =      -0.8841365976712093 [Eh]
	 Total Energy              =    -228.7893977405047679 [Eh]
	 SCS Total Energy          =    -228.7799610164395290 [Eh]
    Molecular point group: c1
  Basis Set: AUG-CC-PVQZ
    Blend: AUG-CC-PVQZ
  Basis Set: (AUG-CC-PVQZ AUX)
    Blend: AUG-CC-PVQZ-JKFIT
  @DF-RHF Final Energy:  -227.91999272500570
    Total Energy =                       -227.9199927250056987
  Basis Set: (AUG-CC-PVQZ AUX)
  @DF-RHF Final Energy:  -227.90563227513042
    Total Energy =                       -227.9056322751304151
  @DF-RHF Final Energy:  -227.92009589038832
    Total Energy =                       -227.9200958903883247
  @DF-RHF Final Energy:  -196.40438535981457
    Total Energy =                       -196.4043853598145688
  @DF-RHF Final Energy:  -196.41617043538548
    Total Energy =                       -196.4161704353854816
  @DF-RHF Final Energy:  -196.40432936983055
    Total Energy =                       -196.4043293698305490
  @DF-RHF Final Energy:  -196.41615072369925
    Total Energy =                       -196.4161507236992463
  Multiplicity = 1
  @DF-RHF Final Energy:  -424.29719580414184
    Total Energy =                       -424.2971958041417793
	 Singles Energy            =      -0.0000000000000000 [Eh]
	 Same-Spin Energy          =      -0.4305142489842321 [Eh]
	 Opposite-Spin Energy      =      -1.4746994217653500 [Eh]
	 Correlation Energy        =      -1.9052136707495819 [Eh]
	 Total Energy              =    -426.2024094748913967 [Eh]
	 SCS Total Energy          =    -426.2103398599216462 [Eh]
    Molecular point group: c1

    Geometry (in Angstrom), charge = 0, multiplicity = 1:

       Center              X                  Y                   Z               Mass
    ------------   -----------------  -----------------  -----------------  -----------------
         C           -2.237088332816    -0.062589978515    -1.128060941813    12.000000000000
         H           -2.452461332816    -0.655441978515    -2.016960941813     1.007825032230
         H           -2.188067332816    -0.745960978515    -0.280571941813     1.007825032230
         H           -3.073769332816     0.617428021485    -0.971994941813     1.007825032230
         C           -0.923441332816     0.691763021485    -1.289995941813    12.000000000000
         H           -0.750442332816     1.322917021485    -0.414691941813     1.007825032230
         H           -0.987920332816     1.367930021485    -2.145852941813     1.007825032230
         C            0.264758667184    -0.242224978515    -1.479408941813    12.000000000000
         H            0.347700667184    -0.902653978515    -0.611356941813     1.007825032230
         H            0.077407667184    -0.893513978515    -2.338184941813     1.007825032230
         C            1.581258667184     0.493660021485    -1.690394941813    12.000000000000
         H            1.749895667184     1.180257021485    -0.856947941813     1.007825032230
         H            1.504351667184     1.116228021485    -2.584688941813     1.007825032230
         C            2.765832667184    -0.454375978515    -1.821935941813    12.000000000000
         H            2.626998667184    -1.130728978515    -2.665151941813     1.007825032230
         H            3.699757667184     0.084178021485    -1.975363941813     1.007825032230
         H            2.873450667184    -1.064924978515    -0.925319941813     1.007825032230
         C           -0.367407332816    -0.195170978515     1.762950058187    12.000000000000
         O           -0.790021332816    -1.310350978515     1.565804058187    15.994914619570
         O           -1.181099332816     0.863795021485     1.995540058187    15.994914619570
         H           -2.081861332816     0.509414021485     1.955004058187     1.007825032230
         C            1.072859667184     0.214495021485     1.780156058187    12.000000000000
         H            1.698682667184    -0.655685978515     1.622001058187     1.007825032230
         H            1.248897667184     0.948769021485     0.997031058187     1.007825032230
         H            1.310171667184     0.683796021485     2.731958058187     1.007825032230

  Charge       = 0
  Multiplicity = 1
  Basis Set: AUG-CC-PVQZ
    Blend: AUG-CC-PVQZ
  Basis Set: (AUG-CC-PVQZ AUX)
    Blend: AUG-CC-PVQZ-JKFIT

    Orbital Energies [Eh]
    ---------------------

    Doubly Occupied:

       1A    -20.613398     2A    -20.550496     3A    -11.391061
       4A    -11.243737     5A    -11.214546     6A    -11.209931
       7A    -11.208935     8A    -11.206598     9A    -11.201026
      10A     -1.468239    11A     -1.364468    12A     -1.082535
      13A     -1.031839    14A     -1.015982    15A     -0.918879
      16A     -0.825853    17A     -0.819642    18A     -0.786334
      19A     -0.710581    20A     -0.684855    21A     -0.676090
      22A     -0.630012    23A     -0.599825    24A     -0.598356
      25A     -0.587988    26A     -0.576672    27A     -0.561779
      28A     -0.553625    29A     -0.547860    30A     -0.524696
      31A     -0.497952    32A     -0.494393    33A     -0.476657
      34A     -0.461549    35A     -0.457740    36A     -0.450442
      37A     -0.446932

  @DF-RHF Final Energy:  -424.32346794694917

   => Energetics <=

    Nuclear Repulsion Energy =            490.5642340125404530
    One-Electron Energy =               -1550.3923891174529217
    Two-Electron Energy =                 635.5046871579631897
    Total Energy =                       -424.3234679469492221

  Dipole Moment: [D]
     X:     0.7277      Y:     1.6267      Z:     0.2890     Total:     1.8053

  Basis Set: (AUG-CC-PVQZ AUX)
    Blend: AUG-CC-PVQZ-RI
	 Reference Energy          =    -424.3234679469491653 [Eh]
	 Singles Energy            =      -0.0000000000000000 [Eh]
	 Same-Spin Energy          =      -0.4555217074929296 [Eh]
	 Opposite-Spin Energy      =      -1.6459758769094375 [Eh]
	 Correlation Energy        =      -2.1014975844023671 [Eh]
	 Total Energy              =    -426.4249655313515177 [Eh]

	 ================> DF-SCS-MP2 Energies <==================
	-----------------------------------------------------------
	 SCS Same-Spin Scale       =       0.3333333333333333 [-]
	 SCS Opposite-Spin Scale   =       1.2000000000000000 [-]
	 SCS Same-Spin Energy      =      -0.1518405691643099 [Eh]
	 SCS Opposite-Spin Energy  =      -1.9751710522913248 [Eh]
	 SCS Correlation Energy    =      -2.1270116214556349 [Eh]
	 SCS Total Energy          =    -426.4504795684047735 [Eh]
	-----------------------------------------------------------

*** Psi4 exiting successfully. Buy a developer a beer!
