                               Psi4 1.4a2.dev224

  ==> Input File <==

--------------------------------------------------------------------------
#Generated by lconvert.py for cbs job

memory 40 GB

molecule  {
0 1
  C       -2.2753450    -0.1350750     0.8313340
  H       -2.4907180    -0.7279270    -0.0575660
  H       -2.2263240    -0.8184460     1.6788230
  H       -3.1120260     0.5449430     0.9874000
  C       -0.9616980     0.6192780     0.6693990
  H       -0.7886990     1.2504320     1.5447030
  H       -1.0261770     1.2954450    -0.1864580
  C        0.2265020    -0.3147100     0.4799860
  H        0.3094440    -0.9751390     1.3480380
  H        0.0391510    -0.9659990    -0.3787900
  C        1.5430020     0.4211750     0.2690000
  H        1.7116390     1.1077720     1.1024470
  H        1.4660950     1.0437430    -0.6252940
  C        2.7275760    -0.5268610     0.1374590
  H        2.5887420    -1.2032140    -0.7057570
  H        3.6615010     0.0116930    -0.0159690
  H        2.8351940    -1.1374100     1.0340750
--
0 1
  C       -0.4754000    -0.2857460     4.0794600
  O       -0.8980140    -1.4009260     3.8823130
  O       -1.2890930     0.7732190     4.3120490
  H       -2.1898550     0.4188390     4.2715140
  C        0.9648670     0.1239200     4.0966650
  H        1.5906900    -0.7462610     3.9385100
  H        1.1409040     0.8581940     3.3135410
  H        1.2021780     0.5932210     5.0484680
units angstrom
no_reorient
symmetry c1
}

set {
scf_type DF
mp2_type DF
e_convergence 7
reference rhf
}

energy('mp2/aug-cc-pv[tq]z', bsse_type='cp')
--------------------------------------------------------------------------

    Molecular point group: c1
  Charge       = 0
  Multiplicity = 1
  Basis Set: AUG-CC-PVTZ
    Blend: AUG-CC-PVTZ
  Basis Set: (AUG-CC-PVTZ AUX)
    Blend: AUG-CC-PVTZ-JKFIT
  @DF-RHF Final Energy:  -227.90526119914745
    Total Energy =                       -227.9052611991474464
  Basis Set: (AUG-CC-PVTZ AUX)
    Blend: AUG-CC-PVTZ-RI
	 Reference Energy          =    -227.9052611991474464 [Eh]
	 Singles Energy            =      -0.0000000000000000 [Eh]
	 Same-Spin Energy          =      -0.2149200357885536 [Eh]
	 Opposite-Spin Energy      =      -0.6692165115937108 [Eh]
	 Correlation Energy        =      -0.8841365473822644 [Eh]
	 Total Energy              =    -228.7893977465297155 [Eh]
	 SCS Total Energy          =    -228.7799610249894045 [Eh]
    Molecular point group: c1
  Basis Set: AUG-CC-PVQZ
    Blend: AUG-CC-PVQZ
  Basis Set: (AUG-CC-PVQZ AUX)
    Blend: AUG-CC-PVQZ-JKFIT
  @DF-RHF Final Energy:  -227.91999278177070
    Total Energy =                       -227.9199927817707021
  Basis Set: (AUG-CC-PVQZ AUX)
  @DF-RHF Final Energy:  -227.90554248987726
    Total Energy =                       -227.9055424898772628
  @DF-RHF Final Energy:  -227.92007645753944
    Total Energy =                       -227.9200764575394373
  @DF-RHF Final Energy:  -196.40436633471171
    Total Energy =                       -196.4043663347117104
  @DF-RHF Final Energy:  -196.41616536551064
    Total Energy =                       -196.4161653655106363
  @DF-RHF Final Energy:  -196.40432937078805
    Total Energy =                       -196.4043293707880480
  @DF-RHF Final Energy:  -196.41615072136281
    Total Energy =                       -196.4161507213628113
  Multiplicity = 1
  @DF-RHF Final Energy:  -424.30605270943920
    Total Energy =                       -424.3060527094392000
	 Singles Energy            =      -0.0000000000000000 [Eh]
	 Same-Spin Energy          =      -0.4273884492880777 [Eh]
	 Opposite-Spin Energy      =      -1.4701963716899342 [Eh]
	 Correlation Energy        =      -1.8975848209780120 [Eh]
	 Total Energy              =    -426.2036375304172111 [Eh]
	 SCS Total Energy          =    -426.2127511718964570 [Eh]
    Molecular point group: c1

    Geometry (in Angstrom), charge = 0, multiplicity = 1:

       Center              X                  Y                   Z               Mass
    ------------   -----------------  -----------------  -----------------  -----------------
         C           -2.205406452989    -0.054371396366    -1.290301382256    12.000000000000
         H           -2.420779452989    -0.647223396366    -2.179201382256     1.007825032230
         H           -2.156385452989    -0.737742396366    -0.442812382256     1.007825032230
         H           -3.042087452989     0.625646603634    -1.134235382256     1.007825032230
         C           -0.891759452989     0.699981603634    -1.452236382256    12.000000000000
         H           -0.718760452989     1.331135603634    -0.576932382256     1.007825032230
         H           -0.956238452989     1.376148603634    -2.308093382256     1.007825032230
         C            0.296440547011    -0.234006396366    -1.641649382256    12.000000000000
         H            0.379382547011    -0.894435396366    -0.773597382256     1.007825032230
         H            0.109089547011    -0.885295396366    -2.500425382256     1.007825032230
         C            1.612940547011     0.501878603634    -1.852635382256    12.000000000000
         H            1.781577547011     1.188475603634    -1.019188382256     1.007825032230
         H            1.536033547011     1.124446603634    -2.746929382256     1.007825032230
         C            2.797514547011    -0.446157396366    -1.984176382256    12.000000000000
         H            2.658680547011    -1.122510396366    -2.827392382256     1.007825032230
         H            3.731439547011     0.092396603634    -2.137604382256     1.007825032230
         H            2.905132547011    -1.056706396366    -1.087560382256     1.007825032230
         C           -0.405461452989    -0.205042396366     1.957824617744    12.000000000000
         O           -0.828075452989    -1.320222396366     1.760677617744    15.994914619570
         O           -1.219154452989     0.853922603634     2.190413617744    15.994914619570
         H           -2.119916452989     0.499542603634     2.149878617744     1.007825032230
         C            1.034805547011     0.204623603634     1.975029617744    12.000000000000
         H            1.660628547011    -0.665557396366     1.816874617744     1.007825032230
         H            1.210842547011     0.938897603634     1.191905617744     1.007825032230
         H            1.272116547011     0.673924603634     2.926832617744     1.007825032230

  Charge       = 0
  Multiplicity = 1
  Basis Set: AUG-CC-PVQZ
    Blend: AUG-CC-PVQZ
  Basis Set: (AUG-CC-PVQZ AUX)
    Blend: AUG-CC-PVQZ-JKFIT

    Orbital Energies [Eh]
    ---------------------

    Doubly Occupied:

       1A    -20.613905     2A    -20.551110     3A    -11.391081
       4A    -11.245144     5A    -11.214455     6A    -11.211378
       7A    -11.208465     8A    -11.208221     9A    -11.202418
      10A     -1.467726    11A     -1.363849    12A     -1.082008
      13A     -1.031818    14A     -1.015904    15A     -0.918880
      16A     -0.824609    17A     -0.820336    18A     -0.786059
      19A     -0.709983    20A     -0.683864    21A     -0.665680
      22A     -0.638054    23A     -0.599435    24A     -0.595464
      25A     -0.588022    26A     -0.576695    27A     -0.563977
      28A     -0.554167    29A     -0.547875    30A     -0.525173
      31A     -0.495942    32A     -0.490920    33A     -0.476657
      34A     -0.462364    35A     -0.458710    36A     -0.456242
      37A     -0.447232

  @DF-RHF Final Energy:  -424.33239174998101

   => Energetics <=

    Nuclear Repulsion Energy =            476.5255285359206709
    One-Electron Energy =               -1522.3281838997727391
    Two-Electron Energy =                 621.4702636138709977
    Total Energy =                       -424.3323917499809568

  Dipole Moment: [D]
     X:     0.7252      Y:     1.6717      Z:     0.2757     Total:     1.8430

  Basis Set: (AUG-CC-PVQZ AUX)
    Blend: AUG-CC-PVQZ-RI
	 Reference Energy          =    -424.3323917499810136 [Eh]
	 Singles Energy            =      -0.0000000000000000 [Eh]
	 Same-Spin Energy          =      -0.4524353396622848 [Eh]
	 Opposite-Spin Energy      =      -1.6422310718393991 [Eh]
	 Correlation Energy        =      -2.0946664115016840 [Eh]
	 Total Energy              =    -426.4270581614827051 [Eh]

	 ================> DF-SCS-MP2 Energies <==================
	-----------------------------------------------------------
	 SCS Same-Spin Scale       =       0.3333333333333333 [-]
	 SCS Opposite-Spin Scale   =       1.2000000000000000 [-]
	 SCS Same-Spin Energy      =      -0.1508117798874283 [Eh]
	 SCS Opposite-Spin Energy  =      -1.9706772862072788 [Eh]
	 SCS Correlation Energy    =      -2.1214890660947070 [Eh]
	 SCS Total Energy          =    -426.4538808160756957 [Eh]
	-----------------------------------------------------------

*** Psi4 exiting successfully. Buy a developer a beer!
