                               Psi4 1.4a2.dev224

  ==> Input File <==

--------------------------------------------------------------------------
#Generated by lconvert.py for cbs job

memory 20 GB

molecule  {
0 1
  C      -2.275350   -0.135080    0.831330
  H      -2.490720   -0.727930   -0.057570
  H      -2.226320   -0.818450    1.678820
  H      -3.112030    0.544940    0.987400
  C      -0.961700    0.619280    0.669400
  H      -0.788700    1.250430    1.544700
  H      -1.026180    1.295440   -0.186460
  C       0.226500   -0.314710    0.479990
  H       0.309440   -0.975140    1.348040
  H       0.039150   -0.966000   -0.378790
  C       1.543000    0.421180    0.269000
  H       1.711640    1.107770    1.102450
  H       1.466090    1.043740   -0.625290
  C       2.727580   -0.526860    0.137460
  H       2.588740   -1.203210   -0.705760
  H       3.661500    0.011690   -0.015970
  H       2.835190   -1.137410    1.034080
--
0 1
  C      -0.777780   -0.364190    5.627900
  O      -1.200390   -1.479370    5.430750
  O      -1.591470    0.694780    5.860490
  H      -2.492230    0.340400    5.819950
  C       0.662490    0.045480    5.645100
  H       1.288310   -0.824700    5.486950
  H       0.838520    0.779750    4.861980
  H       0.899800    0.514780    6.596900
units angstrom
no_reorient
symmetry c1
}

set {
scf_type DF
mp2_type DF
e_convergence 7
reference rhf
}

energy('mp2/aug-cc-pv[tq]z', bsse_type='cp')
--------------------------------------------------------------------------

    Molecular point group: c1
  Charge       = 0
  Multiplicity = 1
  Basis Set: AUG-CC-PVTZ
    Blend: AUG-CC-PVTZ
  Basis Set: (AUG-CC-PVTZ AUX)
    Blend: AUG-CC-PVTZ-JKFIT
  @DF-RHF Final Energy:  -227.90526121198562
    Total Energy =                       -227.9052612119856178
  Basis Set: (AUG-CC-PVTZ AUX)
    Blend: AUG-CC-PVTZ-RI
	 Reference Energy          =    -227.9052612119856178 [Eh]
	 Singles Energy            =      -0.0000000000000000 [Eh]
	 Same-Spin Energy          =      -0.2149200284370628 [Eh]
	 Opposite-Spin Energy      =      -0.6692164967755920 [Eh]
	 Correlation Energy        =      -0.8841365252126547 [Eh]
	 Total Energy              =    -228.7893977371982714 [Eh]
	 SCS Total Energy          =    -228.7799610175953546 [Eh]
    Molecular point group: c1
  Basis Set: AUG-CC-PVQZ
    Blend: AUG-CC-PVQZ
  Basis Set: (AUG-CC-PVQZ AUX)
    Blend: AUG-CC-PVQZ-JKFIT
  @DF-RHF Final Energy:  -227.91999280399128
    Total Energy =                       -227.9199928039912777
  Basis Set: (AUG-CC-PVQZ AUX)
  @DF-RHF Final Energy:  -227.90533143650850
    Total Energy =                       -227.9053314365085043
  @DF-RHF Final Energy:  -227.92002369804862
    Total Energy =                       -227.9200236980486238
  @DF-RHF Final Energy:  -196.40433890578009
    Total Energy =                       -196.4043389057800937
  @DF-RHF Final Energy:  -196.41615576158551
    Total Energy =                       -196.4161557615855145
  @DF-RHF Final Energy:  -196.40432945102552
    Total Energy =                       -196.4043294510255180
  @DF-RHF Final Energy:  -196.41615080677317
    Total Energy =                       -196.4161508067731745
  Multiplicity = 1
  @DF-RHF Final Energy:  -424.30970819202798
    Total Energy =                       -424.3097081920279834
	 Singles Energy            =      -0.0000000000000000 [Eh]
	 Same-Spin Energy          =      -0.4234308733622975 [Eh]
	 Opposite-Spin Energy      =      -1.4637255277521375 [Eh]
	 Correlation Energy        =      -1.8871564011144351 [Eh]
	 Total Energy              =    -426.1968645931424362 [Eh]
	 SCS Total Energy          =    -426.2073224497846695 [Eh]
    Molecular point group: c1

    Geometry (in Angstrom), charge = 0, multiplicity = 1:

       Center              X                  Y                   Z               Mass
    ------------   -----------------  -----------------  -----------------  -----------------
         C           -2.068037648387    -0.018739697161    -1.993775945930    12.000000000000
         H           -2.283407648387    -0.611589697161    -2.882675945930     1.007825032230
         H           -2.019007648387    -0.702109697161    -1.146285945930     1.007825032230
         H           -2.904717648387     0.661280302839    -1.837705945930     1.007825032230
         C           -0.754387648387     0.735620302839    -2.155705945930    12.000000000000
         H           -0.581387648387     1.366770302839    -1.280405945930     1.007825032230
         H           -0.818867648387     1.411780302839    -3.011565945930     1.007825032230
         C            0.433812351613    -0.198369697161    -2.345115945930    12.000000000000
         H            0.516752351613    -0.858799697161    -1.477065945930     1.007825032230
         H            0.246462351613    -0.849659697161    -3.203895945930     1.007825032230
         C            1.750312351613     0.537520302839    -2.556105945930    12.000000000000
         H            1.918952351613     1.224110302839    -1.722655945930     1.007825032230
         H            1.673402351613     1.160080302839    -3.450395945930     1.007825032230
         C            2.934892351613    -0.410519697161    -2.687645945930    12.000000000000
         H            2.796052351613    -1.086869697161    -3.530865945930     1.007825032230
         H            3.868812351613     0.128030302839    -2.841075945930     1.007825032230
         H            3.042502351613    -1.021069697161    -1.791025945930     1.007825032230
         C           -0.570467648387    -0.247849697161     2.802794054070    12.000000000000
         O           -0.993077648387    -1.363029697161     2.605644054070    15.994914619570
         O           -1.384157648387     0.811120302839     3.035384054070    15.994914619570
         H           -2.284917648387     0.456740302839     2.994844054070     1.007825032230
         C            0.869802351613     0.161820302839     2.819994054070    12.000000000000
         H            1.495622351613    -0.708359697161     2.661844054070     1.007825032230
         H            1.045832351613     0.896090302839     2.036874054070     1.007825032230
         H            1.107112351613     0.631120302839     3.771794054070     1.007825032230

  Charge       = 0
  Multiplicity = 1
  Basis Set: AUG-CC-PVQZ
    Blend: AUG-CC-PVQZ
  Basis Set: (AUG-CC-PVQZ AUX)
    Blend: AUG-CC-PVQZ-JKFIT

    Orbital Energies [Eh]
    ---------------------

    Doubly Occupied:

       1A    -20.613774     2A    -20.550856     3A    -11.390590
       4A    -11.245860     5A    -11.212881     6A    -11.211975
       7A    -11.209293     8A    -11.207116     9A    -11.204807
      10A     -1.467027    11A     -1.362926    12A     -1.081347
      13A     -1.031657    14A     -1.015502    15A     -0.918806
      16A     -0.823959    17A     -0.820084    18A     -0.785698
      19A     -0.709038    20A     -0.683089    21A     -0.653768
      22A     -0.647427    23A     -0.599100    24A     -0.593248
      25A     -0.587770    26A     -0.576752    27A     -0.564613
      28A     -0.554090    29A     -0.547833    30A     -0.525560
      31A     -0.495137    32A     -0.486580    33A     -0.476352
      34A     -0.462803    35A     -0.459572    36A     -0.458259
      37A     -0.447072

  @DF-RHF Final Energy:  -424.33621722651128

   => Energetics <=

    Nuclear Repulsion Energy =            433.0514930199619243
    One-Electron Energy =               -1435.4109675764325402
    Two-Electron Energy =                 578.0232573299592786
    Total Energy =                       -424.3362172265112804

  Dipole Moment: [D]
     X:     0.7467      Y:     1.8009      Z:     0.2782     Total:     1.9693

  Basis Set: (AUG-CC-PVQZ AUX)
    Blend: AUG-CC-PVQZ-RI
	 Reference Energy          =    -424.3362172265112804 [Eh]
	 Singles Energy            =      -0.0000000000000000 [Eh]
	 Same-Spin Energy          =      -0.4485928485677591 [Eh]
	 Opposite-Spin Energy      =      -1.6373855526686203 [Eh]
	 Correlation Energy        =      -2.0859784012363791 [Eh]
	 Total Energy              =    -426.4221956277476693 [Eh]

	 ================> DF-SCS-MP2 Energies <==================
	-----------------------------------------------------------
	 SCS Same-Spin Scale       =       0.3333333333333333 [-]
	 SCS Opposite-Spin Scale   =       1.2000000000000000 [-]
	 SCS Same-Spin Energy      =      -0.1495309495225863 [Eh]
	 SCS Opposite-Spin Energy  =      -1.9648626632023443 [Eh]
	 SCS Correlation Energy    =      -2.1143936127249305 [Eh]
	 SCS Total Energy          =    -426.4506108392362194 [Eh]
	-----------------------------------------------------------

*** Psi4 exiting successfully. Buy a developer a beer!
