                               Psi4 1.4a2.dev224

  ==> Input File <==

--------------------------------------------------------------------------
#Generated by lconvert.py for cbs job

memory 40 GB

molecule  {
0 1
  C       -2.5877760    -0.3231060     0.4694580
  H       -2.6103890    -0.8763660    -0.4696190
  H       -2.6597440    -1.0518870     1.2777140
  H       -3.4760350     0.3056250     0.5089610
  C       -1.3095600     0.4973940     0.5850630
  H       -1.3172510     1.0832620     1.5063410
  H       -1.2623770     1.2155740    -0.2367760
  C       -0.0568300    -0.3682600     0.5584400
  H       -0.0861750    -1.0733590     1.3958750
  H       -0.0538090    -0.9768430    -0.3514740
  C        1.2315960     0.4400660     0.6320320
  H        1.2132830     1.0535620     1.5345930
  H        1.2662970     1.1313770    -0.2131060
  C        2.4725750    -0.4431440     0.6192210
  H        2.5207190    -1.0352630    -0.2948970
  H        3.3877340     0.1440900     0.6839090
  H        2.4592970    -1.1393640     1.4586180
--
0 1
  C        0.0322660     0.1800750     3.6510390
  O        0.0591780     1.3651490     3.3591980
  N        1.1648460    -0.5718020     3.7538590
  H        2.0357860    -0.1492220     3.4851970
  H        1.1259080    -1.5636890     3.8852820
  C       -1.2579550    -0.5588620     3.9154930
  H       -1.1107050    -1.5195830     4.4026170
  H       -1.7641830    -0.7171710     2.9646800
  H       -1.8958990     0.0683740     4.5307650
units angstrom
no_reorient
symmetry c1
}

set {
scf_type DF
mp2_type DF
e_convergence 7
reference rhf
}

energy('mp2/aug-cc-pv[tq]z', bsse_type='cp')
--------------------------------------------------------------------------

    Molecular point group: c1
  Charge       = 0
  Multiplicity = 1
  Basis Set: AUG-CC-PVTZ
    Blend: AUG-CC-PVTZ
  Basis Set: (AUG-CC-PVTZ AUX)
    Blend: AUG-CC-PVTZ-JKFIT
  @DF-RHF Final Energy:  -208.06311309457658
    Total Energy =                       -208.0631130945765790
  Basis Set: (AUG-CC-PVTZ AUX)
    Blend: AUG-CC-PVTZ-RI
	 Reference Energy          =    -208.0631130945765790 [Eh]
	 Singles Energy            =      -0.0000000000000000 [Eh]
	 Same-Spin Energy          =      -0.2044960783496306 [Eh]
	 Opposite-Spin Energy      =      -0.6557355180813726 [Eh]
	 Correlation Energy        =      -0.8602315964310032 [Eh]
	 Total Energy              =    -208.9233446910075713 [Eh]
	 SCS Total Energy          =    -208.9181610757241003 [Eh]
    Molecular point group: c1
  Basis Set: AUG-CC-PVQZ
    Blend: AUG-CC-PVQZ
  Basis Set: (AUG-CC-PVQZ AUX)
    Blend: AUG-CC-PVQZ-JKFIT
  @DF-RHF Final Energy:  -208.07629509816522
    Total Energy =                       -208.0762950981652182
  Basis Set: (AUG-CC-PVQZ AUX)
  @DF-RHF Final Energy:  -208.06342431846275
    Total Energy =                       -208.0634243184627508
  @DF-RHF Final Energy:  -208.07637973902217
    Total Energy =                       -208.0763797390221725
  @DF-RHF Final Energy:  -196.40436406702833
    Total Energy =                       -196.4043640670283253
  @DF-RHF Final Energy:  -196.41613817841795
    Total Energy =                       -196.4161381784179525
  @DF-RHF Final Energy:  -196.40429366445304
    Total Energy =                       -196.4042936644530357
  @DF-RHF Final Energy:  -196.41611436158942
    Total Energy =                       -196.4161143615894218
  Multiplicity = 1
  @DF-RHF Final Energy:  -404.45009909157358
    Total Energy =                       -404.4500990915736338
	 Singles Energy            =      -0.0000000000000000 [Eh]
	 Same-Spin Energy          =      -0.4221524788013373 [Eh]
	 Opposite-Spin Energy      =      -1.4641583363742239 [Eh]
	 Correlation Energy        =      -1.8863108151755612 [Eh]
	 Total Energy              =    -406.3364099067491111 [Eh]
	 SCS Total Energy          =    -406.3478065881564021 [Eh]
    Molecular point group: c1

    Geometry (in Angstrom), charge = 0, multiplicity = 1:

       Center              X                  Y                   Z               Mass
    ------------   -----------------  -----------------  -----------------  -----------------
         C           -2.567222435203    -0.336662018105    -1.496036375745    12.000000000000
         H           -2.589835435203    -0.889922018105    -2.435113375745     1.007825032230
         H           -2.639190435203    -1.065443018105    -0.687780375745     1.007825032230
         H           -3.455481435203     0.292068981895    -1.456533375745     1.007825032230
         C           -1.289006435203     0.483837981895    -1.380431375745    12.000000000000
         H           -1.296697435203     1.069705981895    -0.459153375745     1.007825032230
         H           -1.241823435203     1.202017981895    -2.202270375745     1.007825032230
         C           -0.036276435203    -0.381816018105    -1.407054375745    12.000000000000
         H           -0.065621435203    -1.086915018105    -0.569619375745     1.007825032230
         H           -0.033255435203    -0.990399018105    -2.316968375745     1.007825032230
         C            1.252149564797     0.426509981895    -1.333462375745    12.000000000000
         H            1.233836564797     1.040005981895    -0.430901375745     1.007825032230
         H            1.286850564797     1.117820981895    -2.178600375745     1.007825032230
         C            2.493128564797    -0.456700018105    -1.346273375745    12.000000000000
         H            2.541272564797    -1.048819018105    -2.260391375745     1.007825032230
         H            3.408287564797     0.130533981895    -1.281585375745     1.007825032230
         H            2.479850564797    -1.152920018105    -0.506876375745     1.007825032230
         C            0.052819564797     0.166518981895     1.685544624255    12.000000000000
         O            0.079731564797     1.351592981895     1.393703624255    15.994914619570
         N            1.185399564797    -0.585358018105     1.788364624255    14.003074004430
         H            2.056339564797    -0.162778018105     1.519702624255     1.007825032230
         H            1.146461564797    -1.577245018105     1.919787624255     1.007825032230
         C           -1.237401435203    -0.572418018105     1.949998624255    12.000000000000
         H           -1.090151435203    -1.533139018105     2.437122624255     1.007825032230
         H           -1.743629435203    -0.730727018105     0.999185624255     1.007825032230
         H           -1.875345435203     0.054817981895     2.565270624255     1.007825032230

  Charge       = 0
  Multiplicity = 1
  Basis Set: AUG-CC-PVQZ
    Blend: AUG-CC-PVQZ
  Basis Set: (AUG-CC-PVQZ AUX)
    Blend: AUG-CC-PVQZ-JKFIT

    Orbital Energies [Eh]
    ---------------------

    Doubly Occupied:

       1A    -20.516426     2A    -15.585891     3A    -11.355373
       4A    -11.235768     5A    -11.205332     6A    -11.205214
       7A    -11.204833     8A    -11.200275     9A    -11.198606
      10A     -1.383252    11A     -1.216795    12A     -1.076139
      13A     -1.014910    14A     -1.005247    15A     -0.917377
      16A     -0.815902    17A     -0.803301    18A     -0.779697
      19A     -0.731441    20A     -0.669747    21A     -0.662716
      22A     -0.605090    23A     -0.594284    24A     -0.592802
      25A     -0.590264    26A     -0.562545    27A     -0.550331
      28A     -0.547407    29A     -0.533209    30A     -0.517382
      31A     -0.490766    32A     -0.473012    33A     -0.460136
      34A     -0.453840    35A     -0.441931    36A     -0.426284
      37A     -0.411399

  @DF-RHF Final Energy:  -404.47486855756250

   => Energetics <=

    Nuclear Repulsion Energy =            497.1951158999066251
    One-Electron Energy =               -1535.2701042699025038
    Two-Electron Energy =                 633.6001198124334906
    Total Energy =                       -404.4748685575624449

  Dipole Moment: [D]
     X:     0.3844      Y:    -3.5031      Z:     0.7713     Total:     3.6076

  Basis Set: (AUG-CC-PVQZ AUX)
    Blend: AUG-CC-PVQZ-RI
	 Reference Energy          =    -404.4748685575625018 [Eh]
	 Singles Energy            =      -0.0000000000000000 [Eh]
	 Same-Spin Energy          =      -0.4462155707075977 [Eh]
	 Opposite-Spin Energy      =      -1.6297658612025918 [Eh]
	 Correlation Energy        =      -2.0759814319101895 [Eh]
	 Total Energy              =    -406.5508499894726810 [Eh]

	 ================> DF-SCS-MP2 Energies <==================
	-----------------------------------------------------------
	 SCS Same-Spin Scale       =       0.3333333333333333 [-]
	 SCS Opposite-Spin Scale   =       1.2000000000000000 [-]
	 SCS Same-Spin Energy      =      -0.1487385235691992 [Eh]
	 SCS Opposite-Spin Energy  =      -1.9557190334431100 [Eh]
	 SCS Correlation Energy    =      -2.1044575570123092 [Eh]
	 SCS Total Energy          =    -406.5793261145748261 [Eh]
	-----------------------------------------------------------

*** Psi4 exiting successfully. Buy a developer a beer!
