                               Psi4 1.4a2.dev224

  ==> Input File <==

--------------------------------------------------------------------------
#Generated by lconvert.py for cbs job

memory 40 GB

molecule  {
0 1
  C       -2.5877760    -0.3231060     0.4694580
  H       -2.6103890    -0.8763660    -0.4696190
  H       -2.6597440    -1.0518870     1.2777140
  H       -3.4760350     0.3056250     0.5089610
  C       -1.3095600     0.4973940     0.5850630
  H       -1.3172510     1.0832620     1.5063410
  H       -1.2623770     1.2155740    -0.2367760
  C       -0.0568300    -0.3682600     0.5584400
  H       -0.0861750    -1.0733590     1.3958750
  H       -0.0538090    -0.9768430    -0.3514740
  C        1.2315960     0.4400660     0.6320320
  H        1.2132830     1.0535620     1.5345930
  H        1.2662970     1.1313770    -0.2131060
  C        2.4725750    -0.4431440     0.6192210
  H        2.5207190    -1.0352630    -0.2948970
  H        3.3877340     0.1440900     0.6839090
  H        2.4592970    -1.1393640     1.4586180
--
0 1
  C        0.0379880     0.1923140     3.9201720
  O        0.0649000     1.3773870     3.6283310
  N        1.1705680    -0.5595640     4.0229920
  H        2.0415080    -0.1369830     3.7543290
  H        1.1316300    -1.5514500     4.1544150
  C       -1.2522330    -0.5466240     4.1846260
  H       -1.1049830    -1.5073450     4.6717500
  H       -1.7584610    -0.7049320     3.2338120
  H       -1.8901770     0.0806130     4.7998970
units angstrom
no_reorient
symmetry c1
}

set {
scf_type DF
mp2_type DF
e_convergence 7
reference rhf
}

energy('mp2/aug-cc-pv[tq]z', bsse_type='cp')
--------------------------------------------------------------------------

    Molecular point group: c1
  Charge       = 0
  Multiplicity = 1
  Basis Set: AUG-CC-PVTZ
    Blend: AUG-CC-PVTZ
  Basis Set: (AUG-CC-PVTZ AUX)
    Blend: AUG-CC-PVTZ-JKFIT
  @DF-RHF Final Energy:  -208.06311315389786
    Total Energy =                       -208.0631131538978593
  Basis Set: (AUG-CC-PVTZ AUX)
    Blend: AUG-CC-PVTZ-RI
	 Reference Energy          =    -208.0631131538978593 [Eh]
	 Singles Energy            =      -0.0000000000000000 [Eh]
	 Same-Spin Energy          =      -0.2044960581585150 [Eh]
	 Opposite-Spin Energy      =      -0.6557354792235452 [Eh]
	 Correlation Energy        =      -0.8602315373820602 [Eh]
	 Total Energy              =    -208.9233446912799081 [Eh]
	 SCS Total Energy          =    -208.9181610816856107 [Eh]
    Molecular point group: c1
  Basis Set: AUG-CC-PVQZ
    Blend: AUG-CC-PVQZ
  Basis Set: (AUG-CC-PVQZ AUX)
    Blend: AUG-CC-PVQZ-JKFIT
  @DF-RHF Final Energy:  -208.07629516083421
    Total Energy =                       -208.0762951608342064
  Basis Set: (AUG-CC-PVQZ AUX)
  @DF-RHF Final Energy:  -208.06336572128572
    Total Energy =                       -208.0633657212857202
  @DF-RHF Final Energy:  -208.07636599813594
    Total Energy =                       -208.0763659981359410
  @DF-RHF Final Energy:  -196.40434484813213
    Total Energy =                       -196.4043448481321263
  @DF-RHF Final Energy:  -196.41613322356909
    Total Energy =                       -196.4161332235690907
  @DF-RHF Final Energy:  -196.40429366433554
    Total Energy =                       -196.4042936643355404
  @DF-RHF Final Energy:  -196.41611436215030
    Total Energy =                       -196.4161143621502958
  Multiplicity = 1
  @DF-RHF Final Energy:  -404.46057823362230
    Total Energy =                       -404.4605782336223001
	 Singles Energy            =      -0.0000000000000000 [Eh]
	 Same-Spin Energy          =      -0.4189528170046397 [Eh]
	 Opposite-Spin Energy      =      -1.4597106954063854 [Eh]
	 Correlation Energy        =      -1.8786635124110251 [Eh]
	 Total Energy              =    -406.3392417460333377 [Eh]
	 SCS Total Energy          =    -406.3518820071114988 [Eh]
    Molecular point group: c1

    Geometry (in Angstrom), charge = 0, multiplicity = 1:

       Center              X                  Y                   Z               Mass
    ------------   -----------------  -----------------  -----------------  -----------------
         C           -2.569798563873    -0.342171868192    -1.617203992889    12.000000000000
         H           -2.592411563873    -0.895431868192    -2.556280992889     1.007825032230
         H           -2.641766563873    -1.070952868192    -0.808947992889     1.007825032230
         H           -3.458057563873     0.286559131808    -1.577700992889     1.007825032230
         C           -1.291582563873     0.478328131808    -1.501598992889    12.000000000000
         H           -1.299273563873     1.064196131808    -0.580320992889     1.007825032230
         H           -1.244399563873     1.196508131808    -2.323437992889     1.007825032230
         C           -0.038852563873    -0.387325868192    -1.528221992889    12.000000000000
         H           -0.068197563873    -1.092424868192    -0.690786992889     1.007825032230
         H           -0.035831563873    -0.995908868192    -2.438135992889     1.007825032230
         C            1.249573436127     0.421000131808    -1.454629992889    12.000000000000
         H            1.231260436127     1.034496131808    -0.552068992889     1.007825032230
         H            1.284274436127     1.112311131808    -2.299767992889     1.007825032230
         C            2.490552436127    -0.462209868192    -1.467440992889    12.000000000000
         H            2.538696436127    -1.054328868192    -2.381558992889     1.007825032230
         H            3.405711436127     0.125024131808    -1.402752992889     1.007825032230
         H            2.477274436127    -1.158429868192    -0.628043992889     1.007825032230
         C            0.055965436127     0.173248131808     1.833510007111    12.000000000000
         O            0.082877436127     1.358321131808     1.541669007111    15.994914619570
         N            1.188545436127    -0.578629868192     1.936330007111    14.003074004430
         H            2.059485436127    -0.156048868192     1.667667007111     1.007825032230
         H            1.149607436127    -1.570515868192     2.067753007111     1.007825032230
         C           -1.234255563873    -0.565689868192     2.097964007111    12.000000000000
         H           -1.087005563873    -1.526410868192     2.585088007111     1.007825032230
         H           -1.740483563873    -0.723997868192     1.147150007111     1.007825032230
         H           -1.872199563873     0.061547131808     2.713235007111     1.007825032230

  Charge       = 0
  Multiplicity = 1
  Basis Set: AUG-CC-PVQZ
    Blend: AUG-CC-PVQZ
  Basis Set: (AUG-CC-PVQZ AUX)
    Blend: AUG-CC-PVQZ-JKFIT

    Orbital Energies [Eh]
    ---------------------

    Doubly Occupied:

       1A    -20.516619     2A    -15.586715     3A    -11.355314
       4A    -11.237143     5A    -11.206023     6A    -11.205687
       7A    -11.204968     8A    -11.202430     9A    -11.201494
      10A     -1.381574    11A     -1.216340    12A     -1.076408
      13A     -1.013129    14A     -1.007126    15A     -0.917086
      16A     -0.815987    17A     -0.802994    18A     -0.780046
      19A     -0.730852    20A     -0.668624    21A     -0.654272
      22A     -0.609376    23A     -0.595297    24A     -0.592063
      25A     -0.589767    26A     -0.563845    27A     -0.550616
      28A     -0.546694    29A     -0.531181    30A     -0.520769
      31A     -0.490983    32A     -0.472381    33A     -0.458066
      34A     -0.455240    35A     -0.442545    36A     -0.427740
      37A     -0.415090

  @DF-RHF Final Energy:  -404.48538312047998

   => Energetics <=

    Nuclear Repulsion Energy =            485.9558173326745987
    One-Electron Energy =               -1512.7974211665407438
    Two-Electron Energy =                 622.3562207133861648
    Total Energy =                       -404.4853831204800372

  Dipole Moment: [D]
     X:     0.4067      Y:    -3.5833      Z:     0.7543     Total:     3.6844

  Basis Set: (AUG-CC-PVQZ AUX)
    Blend: AUG-CC-PVQZ-RI
	 Reference Energy          =    -404.4853831204799803 [Eh]
	 Singles Energy            =      -0.0000000000000000 [Eh]
	 Same-Spin Energy          =      -0.4430386999680737 [Eh]
	 Opposite-Spin Energy      =      -1.6260124135164502 [Eh]
	 Correlation Energy        =      -2.0690511134845240 [Eh]
	 Total Energy              =    -406.5544342339645141 [Eh]

	 ================> DF-SCS-MP2 Energies <==================
	-----------------------------------------------------------
	 SCS Same-Spin Scale       =       0.3333333333333333 [-]
	 SCS Opposite-Spin Scale   =       1.2000000000000000 [-]
	 SCS Same-Spin Energy      =      -0.1476795666560246 [Eh]
	 SCS Opposite-Spin Energy  =      -1.9512148962197402 [Eh]
	 SCS Correlation Energy    =      -2.0988944628757649 [Eh]
	 SCS Total Energy          =    -406.5842775833557425 [Eh]
	-----------------------------------------------------------

*** Psi4 exiting successfully. Buy a developer a beer!
