                               Psi4 1.4a2.dev224

  ==> Input File <==

--------------------------------------------------------------------------
#Generated by lconvert.py for cbs job

memory 20 GB

molecule  {
0 1
  C      -2.587780   -0.323110    0.469460
  H      -2.610390   -0.876370   -0.469620
  H      -2.659740   -1.051890    1.277710
  H      -3.476030    0.305620    0.508960
  C      -1.309560    0.497390    0.585060
  H      -1.317250    1.083260    1.506340
  H      -1.262380    1.215570   -0.236780
  C      -0.056830   -0.368260    0.558440
  H      -0.086180   -1.073360    1.395870
  H      -0.053810   -0.976840   -0.351470
  C       1.231600    0.440070    0.632030
  H       1.213280    1.053560    1.534590
  H       1.266300    1.131380   -0.213110
  C       2.472570   -0.443140    0.619220
  H       2.520720   -1.035260   -0.294900
  H       3.387730    0.144090    0.683910
  H       2.459300   -1.139360    1.458620
--
0 1
  C       0.078690    0.279370    5.834600
  O       0.105610    1.464440    5.542760
  N       1.211270   -0.472510    5.937420
  H       2.082210   -0.049930    5.668760
  H       1.172340   -1.464390    6.068850
  C      -1.211530   -0.459570    6.099060
  H      -1.064280   -1.420290    6.586180
  H      -1.717750   -0.617880    5.148240
  H      -1.849470    0.167670    6.714330
units angstrom
no_reorient
symmetry c1
}

set {
scf_type DF
mp2_type DF
e_convergence 7
reference rhf
}

energy('mp2/aug-cc-pv[tq]z', bsse_type='cp')
--------------------------------------------------------------------------

    Molecular point group: c1
  Charge       = 0
  Multiplicity = 1
  Basis Set: AUG-CC-PVTZ
    Blend: AUG-CC-PVTZ
  Basis Set: (AUG-CC-PVTZ AUX)
    Blend: AUG-CC-PVTZ-JKFIT
  @DF-RHF Final Energy:  -208.06311355479963
    Total Energy =                       -208.0631135547996280
  Basis Set: (AUG-CC-PVTZ AUX)
    Blend: AUG-CC-PVTZ-RI
	 Reference Energy          =    -208.0631135547996280 [Eh]
	 Singles Energy            =      -0.0000000000000000 [Eh]
	 Same-Spin Energy          =      -0.2044959590150485 [Eh]
	 Opposite-Spin Energy      =      -0.6557352254752594 [Eh]
	 Correlation Energy        =      -0.8602311844903079 [Eh]
	 Total Energy              =    -208.9233447392899450 [Eh]
	 SCS Total Energy          =    -208.9181611450416085 [Eh]
    Molecular point group: c1
  Basis Set: AUG-CC-PVQZ
    Blend: AUG-CC-PVQZ
  Basis Set: (AUG-CC-PVQZ AUX)
    Blend: AUG-CC-PVQZ-JKFIT
  @DF-RHF Final Energy:  -208.07629558277355
    Total Energy =                       -208.0762955827735539
  Basis Set: (AUG-CC-PVQZ AUX)
  @DF-RHF Final Energy:  -208.06316662904308
    Total Energy =                       -208.0631666290430815
  @DF-RHF Final Energy:  -208.07631333065282
    Total Energy =                       -208.0763133306528232
  @DF-RHF Final Energy:  -196.40430243605005
    Total Energy =                       -196.4043024360500453
  @DF-RHF Final Energy:  -196.41611934709701
    Total Energy =                       -196.4161193470970090
  @DF-RHF Final Energy:  -196.40429379951962
    Total Energy =                       -196.4042937995196212
  @DF-RHF Final Energy:  -196.41611450771904
    Total Energy =                       -196.4161145077190440
  Multiplicity = 1
  @DF-RHF Final Energy:  -404.46765389995630
    Total Energy =                       -404.4676538999563036
	 Singles Energy            =      -0.0000000000000000 [Eh]
	 Same-Spin Energy          =      -0.4129440758005180 [Eh]
	 Opposite-Spin Energy      =      -1.4501031389510100 [Eh]
	 Correlation Energy        =      -1.8630472147515280 [Eh]
	 Total Energy              =    -406.3307011147078356 [Eh]
	 SCS Total Energy          =    -406.3454256919643512 [Eh]
    Molecular point group: c1

    Geometry (in Angstrom), charge = 0, multiplicity = 1:

       Center              X                  Y                   Z               Mass
    ------------   -----------------  -----------------  -----------------  -----------------
         C           -2.588127990239    -0.381368914422    -2.479105962461    12.000000000000
         H           -2.610737990239    -0.934628914422    -3.418185962461     1.007825032230
         H           -2.660087990239    -1.110148914422    -1.670855962461     1.007825032230
         H           -3.476377990239     0.247361085578    -2.439605962461     1.007825032230
         C           -1.309907990239     0.439131085578    -2.363505962461    12.000000000000
         H           -1.317597990239     1.025001085578    -1.442225962461     1.007825032230
         H           -1.262727990239     1.157311085578    -3.185345962461     1.007825032230
         C           -0.057177990239    -0.426518914422    -2.390125962461    12.000000000000
         H           -0.086527990239    -1.131618914422    -1.552695962461     1.007825032230
         H           -0.054157990239    -1.035098914422    -3.300035962461     1.007825032230
         C            1.231252009761     0.381811085578    -2.316535962461    12.000000000000
         H            1.212932009761     0.995301085578    -1.413975962461     1.007825032230
         H            1.265952009761     1.073121085578    -3.161675962461     1.007825032230
         C            2.472222009761    -0.501398914422    -2.329345962461    12.000000000000
         H            2.520372009761    -1.093518914422    -3.243465962461     1.007825032230
         H            3.387382009761     0.085831085578    -2.264655962461     1.007825032230
         H            2.458952009761    -1.197618914422    -1.489945962461     1.007825032230
         C            0.078342009761     0.221111085578     2.886034037539    12.000000000000
         O            0.105262009761     1.406181085578     2.594194037539    15.994914619570
         N            1.210922009761    -0.530768914422     2.988854037539    14.003074004430
         H            2.081862009761    -0.108188914422     2.720194037539     1.007825032230
         H            1.171992009761    -1.522648914422     3.120284037539     1.007825032230
         C           -1.211877990239    -0.517828914422     3.150494037539    12.000000000000
         H           -1.064627990239    -1.478548914422     3.637614037539     1.007825032230
         H           -1.718097990239    -0.676138914422     2.199674037539     1.007825032230
         H           -1.849817990239     0.109411085578     3.765764037539     1.007825032230

  Charge       = 0
  Multiplicity = 1
  Basis Set: AUG-CC-PVQZ
    Blend: AUG-CC-PVQZ
  Basis Set: (AUG-CC-PVQZ AUX)
    Blend: AUG-CC-PVQZ-JKFIT

    Orbital Energies [Eh]
    ---------------------

    Doubly Occupied:

       1A    -20.515134     2A    -15.586464     3A    -11.353808
       4A    -11.237793     5A    -11.208518     6A    -11.208300
       7A    -11.207423     8A    -11.205671     9A    -11.204999
      10A     -1.378326    11A     -1.214906    12A     -1.078794
      13A     -1.013161    14A     -1.007810    15A     -0.917357
      16A     -0.817973    17A     -0.801679    18A     -0.782733
      19A     -0.729504    20A     -0.666276    21A     -0.645174
      22A     -0.617583    23A     -0.596536    24A     -0.590916
      25A     -0.587623    26A     -0.564381    27A     -0.552423
      28A     -0.546348    29A     -0.526341    30A     -0.524324
      31A     -0.493239    32A     -0.473989    33A     -0.459923
      34A     -0.457035    35A     -0.444575    36A     -0.426684
      37A     -0.417096

  @DF-RHF Final Energy:  -404.49261761451356

   => Energetics <=

    Nuclear Repulsion Energy =            431.5436205149859461
    One-Electron Energy =               -1403.9508333837400187
    Two-Electron Energy =                 567.9145952542405666
    Total Energy =                       -404.4926176145135059

  Dipole Moment: [D]
     X:     0.4406      Y:    -3.8964      Z:     0.6732     Total:     3.9786

  Basis Set: (AUG-CC-PVQZ AUX)
    Blend: AUG-CC-PVQZ-RI
	 Reference Energy          =    -404.4926176145135628 [Eh]
	 Singles Energy            =      -0.0000000000000000 [Eh]
	 Same-Spin Energy          =      -0.4371909381334432 [Eh]
	 Opposite-Spin Energy      =      -1.6188098276743910 [Eh]
	 Correlation Energy        =      -2.0560007658078341 [Eh]
	 Total Energy              =    -406.5486183803213862 [Eh]

	 ================> DF-SCS-MP2 Energies <==================
	-----------------------------------------------------------
	 SCS Same-Spin Scale       =       0.3333333333333333 [-]
	 SCS Opposite-Spin Scale   =       1.2000000000000000 [-]
	 SCS Same-Spin Energy      =      -0.1457303127111477 [Eh]
	 SCS Opposite-Spin Energy  =      -1.9425717932092690 [Eh]
	 SCS Correlation Energy    =      -2.0883021059204165 [Eh]
	 SCS Total Energy          =    -406.5809197204339966 [Eh]
	-----------------------------------------------------------

*** Psi4 exiting successfully. Buy a developer a beer!
