                               Psi4 1.4a2.dev224

  ==> Input File <==

--------------------------------------------------------------------------
#Generated by lconvert.py for cbs job

memory 20 GB

molecule  {
0 1
  C      -2.587780   -0.323110    0.469460
  H      -2.610390   -0.876370   -0.469620
  H      -2.659740   -1.051890    1.277710
  H      -3.476030    0.305620    0.508960
  C      -1.309560    0.497390    0.585060
  H      -1.317250    1.083260    1.506340
  H      -1.262380    1.215570   -0.236780
  C      -0.056830   -0.368260    0.558440
  H      -0.086180   -1.073360    1.395870
  H      -0.053810   -0.976840   -0.351470
  C       1.231600    0.440070    0.632030
  H       1.213280    1.053560    1.534590
  H       1.266300    1.131380   -0.213110
  C       2.472570   -0.443140    0.619220
  H       2.520720   -1.035260   -0.294900
  H       3.387730    0.144090    0.683910
  H       2.459300   -1.139360    1.458620
--
0 1
  C       0.060920    0.241370    4.998930
  O       0.087840    1.426440    4.707090
  N       1.193510   -0.510510    5.101750
  H       2.064450   -0.087930    4.833090
  H       1.154570   -1.502390    5.233180
  C      -1.229300   -0.497570    5.263390
  H      -1.082050   -1.458290    5.750510
  H      -1.735520   -0.655880    4.312570
  H      -1.867240    0.129670    5.878660
units angstrom
no_reorient
symmetry c1
}

set {
scf_type DF
mp2_type DF
e_convergence 7
reference rhf
}

energy('mp2/aug-cc-pv[tq]z', bsse_type='cp')
--------------------------------------------------------------------------

    Molecular point group: c1
  Charge       = 0
  Multiplicity = 1
  Basis Set: AUG-CC-PVTZ
    Blend: AUG-CC-PVTZ
  Basis Set: (AUG-CC-PVTZ AUX)
    Blend: AUG-CC-PVTZ-JKFIT
  @DF-RHF Final Energy:  -208.06311337444512
    Total Energy =                       -208.0631133744451233
  Basis Set: (AUG-CC-PVTZ AUX)
    Blend: AUG-CC-PVTZ-RI
	 Reference Energy          =    -208.0631133744451233 [Eh]
	 Singles Energy            =      -0.0000000000000000 [Eh]
	 Same-Spin Energy          =      -0.2044959558091374 [Eh]
	 Opposite-Spin Energy      =      -0.6557353588253108 [Eh]
	 Correlation Energy        =      -0.8602313146344481 [Eh]
	 Total Energy              =    -208.9233446890795847 [Eh]
	 SCS Total Energy          =    -208.9181611236385550 [Eh]
    Molecular point group: c1
  Basis Set: AUG-CC-PVQZ
    Blend: AUG-CC-PVQZ
  Basis Set: (AUG-CC-PVQZ AUX)
    Blend: AUG-CC-PVQZ-JKFIT
  @DF-RHF Final Energy:  -208.07629538864830
    Total Energy =                       -208.0762953886483047
  Basis Set: (AUG-CC-PVQZ AUX)
  @DF-RHF Final Energy:  -208.06321986446991
    Total Energy =                       -208.0632198644699145
  @DF-RHF Final Energy:  -208.07632869602591
    Total Energy =                       -208.0763286960259109
  @DF-RHF Final Energy:  -196.40431063607150
    Total Energy =                       -196.4043106360715001
  @DF-RHF Final Energy:  -196.41612234935374
    Total Energy =                       -196.4161223493537420
  @DF-RHF Final Energy:  -196.40429379772070
    Total Energy =                       -196.4042937977206975
  @DF-RHF Final Energy:  -196.41611450706881
    Total Energy =                       -196.4161145070688121
  Multiplicity = 1
  @DF-RHF Final Energy:  -404.46773812326472
    Total Energy =                       -404.4677381232646667
	 Singles Energy            =      -0.0000000000000000 [Eh]
	 Same-Spin Energy          =      -0.4138740158614433 [Eh]
	 Opposite-Spin Energy      =      -1.4517975159280554 [Eh]
	 Correlation Energy        =      -1.8656715317894987 [Eh]
	 Total Energy              =    -406.3334096550541972 [Eh]
	 SCS Total Energy          =    -406.3478531476655462 [Eh]
    Molecular point group: c1

    Geometry (in Angstrom), charge = 0, multiplicity = 1:

       Center              X                  Y                   Z               Mass
    ------------   -----------------  -----------------  -----------------  -----------------
         C           -2.580128819261    -0.364260754785    -2.102875021303    12.000000000000
         H           -2.602738819261    -0.917520754785    -3.041955021303     1.007825032230
         H           -2.652088819261    -1.093040754785    -1.294625021303     1.007825032230
         H           -3.468378819261     0.264469245215    -2.063375021303     1.007825032230
         C           -1.301908819261     0.456239245215    -1.987275021303    12.000000000000
         H           -1.309598819261     1.042109245215    -1.065995021303     1.007825032230
         H           -1.254728819261     1.174419245215    -2.809115021303     1.007825032230
         C           -0.049178819261    -0.409410754785    -2.013895021303    12.000000000000
         H           -0.078528819261    -1.114510754785    -1.176465021303     1.007825032230
         H           -0.046158819261    -1.017990754785    -2.923805021303     1.007825032230
         C            1.239251180739     0.398919245215    -1.940305021303    12.000000000000
         H            1.220931180739     1.012409245215    -1.037745021303     1.007825032230
         H            1.273951180739     1.090229245215    -2.785445021303     1.007825032230
         C            2.480221180739    -0.484290754785    -1.953115021303    12.000000000000
         H            2.528371180739    -1.076410754785    -2.867235021303     1.007825032230
         H            3.395381180739     0.102939245215    -1.888425021303     1.007825032230
         H            2.466951180739    -1.180510754785    -1.113715021303     1.007825032230
         C            0.068571180739     0.200219245215     2.426594978697    12.000000000000
         O            0.095491180739     1.385289245215     2.134754978697    15.994914619570
         N            1.201161180739    -0.551660754785     2.529414978697    14.003074004430
         H            2.072101180739    -0.129080754785     2.260754978697     1.007825032230
         H            1.162221180739    -1.543540754785     2.660844978697     1.007825032230
         C           -1.221648819261    -0.538720754785     2.691054978697    12.000000000000
         H           -1.074398819261    -1.499440754785     3.178174978697     1.007825032230
         H           -1.727868819261    -0.697030754785     1.740234978697     1.007825032230
         H           -1.859588819261     0.088519245215     3.306324978697     1.007825032230

  Charge       = 0
  Multiplicity = 1
  Basis Set: AUG-CC-PVQZ
    Blend: AUG-CC-PVQZ
  Basis Set: (AUG-CC-PVQZ AUX)
    Blend: AUG-CC-PVQZ-JKFIT

    Orbital Energies [Eh]
    ---------------------

    Doubly Occupied:

       1A    -20.515773     2A    -15.586845     3A    -11.354385
       4A    -11.238056     5A    -11.207521     6A    -11.206858
       7A    -11.206571     8A    -11.205695     9A    -11.204935
      10A     -1.379048    11A     -1.215358    12A     -1.078008
      13A     -1.012657    14A     -1.008160    15A     -0.917171
      16A     -0.817318    17A     -0.802110    18A     -0.781853
      19A     -0.729905    20A     -0.666853    21A     -0.644815
      22A     -0.617694    23A     -0.596090    24A     -0.590525
      25A     -0.588230    26A     -0.564664    27A     -0.551854
      28A     -0.546298    29A     -0.527018    30A     -0.524225
      31A     -0.492580    32A     -0.473217    33A     -0.459037
      34A     -0.456184    35A     -0.444010    36A     -0.427330
      37A     -0.417587

  @DF-RHF Final Energy:  -404.49265822750442

   => Energetics <=

    Nuclear Repulsion Energy =            450.9288227188989140
    One-Electron Energy =               -1442.7300763654900493
    Two-Electron Energy =                 587.3085954190867142
    Total Energy =                       -404.4926582275044211

  Dipole Moment: [D]
     X:     0.4350      Y:    -3.8011      Z:     0.6982     Total:     3.8891

  Basis Set: (AUG-CC-PVQZ AUX)
    Blend: AUG-CC-PVQZ-RI
	 Reference Energy          =    -404.4926582275044211 [Eh]
	 Singles Energy            =      -0.0000000000000000 [Eh]
	 Same-Spin Energy          =      -0.4380755421692745 [Eh]
	 Opposite-Spin Energy      =      -1.6199673175295615 [Eh]
	 Correlation Energy        =      -2.0580428596988360 [Eh]
	 Total Energy              =    -406.5507010872032652 [Eh]

	 ================> DF-SCS-MP2 Energies <==================
	-----------------------------------------------------------
	 SCS Same-Spin Scale       =       0.3333333333333333 [-]
	 SCS Opposite-Spin Scale   =       1.2000000000000000 [-]
	 SCS Same-Spin Energy      =      -0.1460251807230915 [Eh]
	 SCS Opposite-Spin Energy  =      -1.9439607810354738 [Eh]
	 SCS Correlation Energy    =      -2.0899859617585652 [Eh]
	 SCS Total Energy          =    -406.5826441892629646 [Eh]
	-----------------------------------------------------------

*** Psi4 exiting successfully. Buy a developer a beer!
