                               Psi4 1.4a2.dev224

  ==> Input File <==

--------------------------------------------------------------------------
#Generated by lconvert.py for cbs job

memory 40 GB

molecule  {
0 1
  C       -2.5877760    -0.3231060     0.4694580
  H       -2.6103890    -0.8763660    -0.4696190
  H       -2.6597440    -1.0518870     1.2777140
  H       -3.4760350     0.3056250     0.5089610
  C       -1.3095600     0.4973940     0.5850630
  H       -1.3172510     1.0832620     1.5063410
  H       -1.2623770     1.2155740    -0.2367760
  C       -0.0568300    -0.3682600     0.5584400
  H       -0.0861750    -1.0733590     1.3958750
  H       -0.0538090    -0.9768430    -0.3514740
  C        1.2315960     0.4400660     0.6320320
  H        1.2132830     1.0535620     1.5345930
  H        1.2662970     1.1313770    -0.2131060
  C        2.4725750    -0.4431440     0.6192210
  H        2.5207190    -1.0352630    -0.2948970
  H        3.3877340     0.1440900     0.6839090
  H        2.4592970    -1.1393640     1.4586180
--
0 1
  C        0.0407960     0.1983200     4.0522530
  O        0.0677080     1.3833940     3.7604120
  N        1.1733760    -0.5535570     4.1550730
  H        2.0443170    -0.1309770     3.8864110
  H        1.1344380    -1.5454440     4.2864960
  C       -1.2494250    -0.5406170     4.3167070
  H       -1.1021750    -1.5013390     4.8038310
  H       -1.7556520    -0.6989260     3.3658940
  H       -1.8873690     0.0866190     4.9319790
units angstrom
no_reorient
symmetry c1
}

set {
scf_type DF
mp2_type DF
e_convergence 7
reference rhf
}

energy('mp2/aug-cc-pv[tq]z', bsse_type='cp')
--------------------------------------------------------------------------

    Molecular point group: c1
  Charge       = 0
  Multiplicity = 1
  Basis Set: AUG-CC-PVTZ
    Blend: AUG-CC-PVTZ
  Basis Set: (AUG-CC-PVTZ AUX)
    Blend: AUG-CC-PVTZ-JKFIT
  @DF-RHF Final Energy:  -208.06311307175906
    Total Energy =                       -208.0631130717590622
  Basis Set: (AUG-CC-PVTZ AUX)
    Blend: AUG-CC-PVTZ-RI
	 Reference Energy          =    -208.0631130717590622 [Eh]
	 Singles Energy            =      -0.0000000000000000 [Eh]
	 Same-Spin Energy          =      -0.2044960833872014 [Eh]
	 Opposite-Spin Energy      =      -0.6557355340079769 [Eh]
	 Correlation Energy        =      -0.8602316173951783 [Eh]
	 Total Energy              =    -208.9233446891542485 [Eh]
	 SCS Total Energy          =    -208.9181610736976893 [Eh]
    Molecular point group: c1
  Basis Set: AUG-CC-PVQZ
    Blend: AUG-CC-PVQZ
  Basis Set: (AUG-CC-PVQZ AUX)
    Blend: AUG-CC-PVQZ-JKFIT
  @DF-RHF Final Energy:  -208.07629507355654
    Total Energy =                       -208.0762950735565369
  Basis Set: (AUG-CC-PVQZ AUX)
  @DF-RHF Final Energy:  -208.06334156942395
    Total Energy =                       -208.0633415694239545
  @DF-RHF Final Energy:  -208.07635959662650
    Total Energy =                       -208.0763595966265029
  @DF-RHF Final Energy:  -196.40433746885310
    Total Energy =                       -196.4043374688531003
  @DF-RHF Final Energy:  -196.41613108620558
    Total Energy =                       -196.4161310862055814
  @DF-RHF Final Energy:  -196.40429366403262
    Total Energy =                       -196.4042936640326218
  @DF-RHF Final Energy:  -196.41611436270924
    Total Energy =                       -196.4161143627092372
  Multiplicity = 1
  @DF-RHF Final Energy:  -404.46327244932127
    Total Energy =                       -404.4632724493212663
	 Singles Energy            =      -0.0000000000000000 [Eh]
	 Same-Spin Energy          =      -0.4178028450613149 [Eh]
	 Opposite-Spin Energy      =      -1.4580382235197915 [Eh]
	 Correlation Energy        =      -1.8758410685811064 [Eh]
	 Total Energy              =    -406.3391135179023763 [Eh]
	 SCS Total Energy          =    -406.3521859325654759 [Eh]
    Molecular point group: c1

    Geometry (in Angstrom), charge = 0, multiplicity = 1:

       Center              X                  Y                   Z               Mass
    ------------   -----------------  -----------------  -----------------  -----------------
         C           -2.571062782198    -0.344876178119    -1.676668827341    12.000000000000
         H           -2.593675782198    -0.898136178119    -2.615745827341     1.007825032230
         H           -2.643030782198    -1.073657178119    -0.868412827341     1.007825032230
         H           -3.459321782198     0.283854821881    -1.637165827341     1.007825032230
         C           -1.292846782198     0.475623821881    -1.561063827341    12.000000000000
         H           -1.300537782198     1.061491821881    -0.639785827341     1.007825032230
         H           -1.245663782198     1.193803821881    -2.382902827341     1.007825032230
         C           -0.040116782198    -0.390030178119    -1.587686827341    12.000000000000
         H           -0.069461782198    -1.095129178119    -0.750251827341     1.007825032230
         H           -0.037095782198    -0.998613178119    -2.497600827341     1.007825032230
         C            1.248309217802     0.418295821881    -1.514094827341    12.000000000000
         H            1.229996217802     1.031791821881    -0.611533827341     1.007825032230
         H            1.283010217802     1.109606821881    -2.359232827341     1.007825032230
         C            2.489288217802    -0.464914178119    -1.526905827341    12.000000000000
         H            2.537432217802    -1.057033178119    -2.441023827341     1.007825032230
         H            3.404447217802     0.122319821881    -1.462217827341     1.007825032230
         H            2.476010217802    -1.161134178119    -0.687508827341     1.007825032230
         C            0.057509217802     0.176549821881     1.906126172659    12.000000000000
         O            0.084421217802     1.361623821881     1.614285172659    15.994914619570
         N            1.190089217802    -0.575327178119     2.008946172659    14.003074004430
         H            2.061030217802    -0.152747178119     1.740284172659     1.007825032230
         H            1.151151217802    -1.567214178119     2.140369172659     1.007825032230
         C           -1.232711782198    -0.562387178119     2.170580172659    12.000000000000
         H           -1.085461782198    -1.523109178119     2.657704172659     1.007825032230
         H           -1.738938782198    -0.720696178119     1.219767172659     1.007825032230
         H           -1.870655782198     0.064848821881     2.785852172659     1.007825032230

  Charge       = 0
  Multiplicity = 1
  Basis Set: AUG-CC-PVQZ
    Blend: AUG-CC-PVQZ
  Basis Set: (AUG-CC-PVQZ AUX)
    Blend: AUG-CC-PVQZ-JKFIT

    Orbital Energies [Eh]
    ---------------------

    Doubly Occupied:

       1A    -20.516601     2A    -15.586907     3A    -11.355238
       4A    -11.237526     5A    -11.206308     6A    -11.205782
       7A    -11.205017     8A    -11.203248     9A    -11.202550
      10A     -1.381023    11A     -1.216178    12A     -1.076610
      13A     -1.012688    14A     -1.007662    15A     -0.917043
      16A     -0.816142    17A     -0.802862    18A     -0.780278
      19A     -0.730668    20A     -0.668257    21A     -0.651341
      22A     -0.611750    23A     -0.595398    24A     -0.591530
      25A     -0.589490    26A     -0.564216    27A     -0.550789
      28A     -0.546533    29A     -0.530285    30A     -0.521826
      31A     -0.491206    32A     -0.472313    33A     -0.457696
      34A     -0.455553    35A     -0.442805    36A     -0.427966
      37A     -0.416155

  @DF-RHF Final Energy:  -404.48809395806558

   => Energetics <=

    Nuclear Repulsion Energy =            480.8649475466318108
    One-Electron Energy =               -1502.6152041952304899
    Two-Electron Energy =                 617.2621626905331595
    Total Energy =                       -404.4880939580655195

  Dipole Moment: [D]
     X:     0.4138      Y:    -3.6182      Z:     0.7459     Total:     3.7173

  Basis Set: (AUG-CC-PVQZ AUX)
    Blend: AUG-CC-PVQZ-RI
	 Reference Energy          =    -404.4880939580655763 [Eh]
	 Singles Energy            =      -0.0000000000000000 [Eh]
	 Same-Spin Energy          =      -0.4419043523120918 [Eh]
	 Opposite-Spin Energy      =      -1.6246548461317232 [Eh]
	 Correlation Energy        =      -2.0665591984438150 [Eh]
	 Total Energy              =    -406.5546531565094028 [Eh]

	 ================> DF-SCS-MP2 Energies <==================
	-----------------------------------------------------------
	 SCS Same-Spin Scale       =       0.3333333333333333 [-]
	 SCS Opposite-Spin Scale   =       1.2000000000000000 [-]
	 SCS Same-Spin Energy      =      -0.1473014507706973 [Eh]
	 SCS Opposite-Spin Energy  =      -1.9495858153580676 [Eh]
	 SCS Correlation Energy    =      -2.0968872661287650 [Eh]
	 SCS Total Energy          =    -406.5849812241943368 [Eh]
	-----------------------------------------------------------

*** Psi4 exiting successfully. Buy a developer a beer!
