                               Psi4 1.4a2.dev224

  ==> Input File <==

--------------------------------------------------------------------------
#Generated by lconvert.py for cbs job

memory 40 GB

molecule  {
0 1
  C       -2.5877760    -0.3231060     0.4694580
  H       -2.6103890    -0.8763660    -0.4696190
  H       -2.6597440    -1.0518870     1.2777140
  H       -3.4760350     0.3056250     0.5089610
  C       -1.3095600     0.4973940     0.5850630
  H       -1.3172510     1.0832620     1.5063410
  H       -1.2623770     1.2155740    -0.2367760
  C       -0.0568300    -0.3682600     0.5584400
  H       -0.0861750    -1.0733590     1.3958750
  H       -0.0538090    -0.9768430    -0.3514740
  C        1.2315960     0.4400660     0.6320320
  H        1.2132830     1.0535620     1.5345930
  H        1.2662970     1.1313770    -0.2131060
  C        2.4725750    -0.4431440     0.6192210
  H        2.5207190    -1.0352630    -0.2948970
  H        3.3877340     0.1440900     0.6839090
  H        2.4592970    -1.1393640     1.4586180
--
0 1
  C        0.0435760     0.2042650     4.1829920
  O        0.0704880     1.3893390     3.8911510
  N        1.1761560    -0.5476120     4.2858120
  H        2.0470960    -0.1250320     4.0171500
  H        1.1372180    -1.5394990     4.4172350
  C       -1.2466450    -0.5346720     4.4474460
  H       -1.0993950    -1.4953930     4.9345700
  H       -1.7528730    -0.6929810     3.4966330
  H       -1.8845890     0.0925640     5.0627180
units angstrom
no_reorient
symmetry c1
}

set {
scf_type DF
mp2_type DF
e_convergence 7
reference rhf
}

energy('mp2/aug-cc-pv[tq]z', bsse_type='cp')
--------------------------------------------------------------------------

    Molecular point group: c1
  Charge       = 0
  Multiplicity = 1
  Basis Set: AUG-CC-PVTZ
    Blend: AUG-CC-PVTZ
  Basis Set: (AUG-CC-PVTZ AUX)
    Blend: AUG-CC-PVTZ-JKFIT
  @DF-RHF Final Energy:  -208.06311309457107
    Total Energy =                       -208.0631130945710652
  Basis Set: (AUG-CC-PVTZ AUX)
    Blend: AUG-CC-PVTZ-RI
	 Reference Energy          =    -208.0631130945710652 [Eh]
	 Singles Energy            =      -0.0000000000000000 [Eh]
	 Same-Spin Energy          =      -0.2044960783486694 [Eh]
	 Opposite-Spin Energy      =      -0.6557355180758206 [Eh]
	 Correlation Energy        =      -0.8602315964244900 [Eh]
	 Total Energy              =    -208.9233446909955489 [Eh]
	 SCS Total Energy          =    -208.9181610757115948 [Eh]
    Molecular point group: c1
  Basis Set: AUG-CC-PVQZ
    Blend: AUG-CC-PVQZ
  Basis Set: (AUG-CC-PVQZ AUX)
    Blend: AUG-CC-PVQZ-JKFIT
  @DF-RHF Final Energy:  -208.07629509839245
    Total Energy =                       -208.0762950983924497
  Basis Set: (AUG-CC-PVQZ AUX)
  @DF-RHF Final Energy:  -208.06332065278457
    Total Energy =                       -208.0633206527845687
  @DF-RHF Final Energy:  -208.07635382392786
    Total Energy =                       -208.0763538239278603
  @DF-RHF Final Energy:  -196.40433149379021
    Total Energy =                       -196.4043314937902096
  @DF-RHF Final Energy:  -196.41612914690455
    Total Energy =                       -196.4161291469045523
  @DF-RHF Final Energy:  -196.40429366469442
    Total Energy =                       -196.4042936646944213
  @DF-RHF Final Energy:  -196.41611436365741
    Total Energy =                       -196.4161143636574138
  Multiplicity = 1
  @DF-RHF Final Energy:  -404.46501138174659
    Total Energy =                       -404.4650113817465353
	 Singles Energy            =      -0.0000000000000000 [Eh]
	 Same-Spin Energy          =      -0.4168728126304743 [Eh]
	 Opposite-Spin Energy      =      -1.4566546940230272 [Eh]
	 Correlation Energy        =      -1.8735275066535015 [Eh]
	 Total Energy              =    -406.3385388884000804 [Eh]
	 SCS Total Energy          =    -406.3519546187843616 [Eh]
    Molecular point group: c1

    Geometry (in Angstrom), charge = 0, multiplicity = 1:

       Center              X                  Y                   Z               Mass
    ------------   -----------------  -----------------  -----------------  -----------------
         C           -2.572314363769    -0.347552712358    -1.735529450573    12.000000000000
         H           -2.594927363769    -0.900812712358    -2.674606450573     1.007825032230
         H           -2.644282363769    -1.076333712358    -0.927273450573     1.007825032230
         H           -3.460573363769     0.281178287642    -1.696026450573     1.007825032230
         C           -1.294098363769     0.472947287642    -1.619924450573    12.000000000000
         H           -1.301789363769     1.058815287642    -0.698646450573     1.007825032230
         H           -1.246915363769     1.191127287642    -2.441763450573     1.007825032230
         C           -0.041368363769    -0.392706712358    -1.646547450573    12.000000000000
         H           -0.070713363769    -1.097805712358    -0.809112450573     1.007825032230
         H           -0.038347363769    -1.001289712358    -2.556461450573     1.007825032230
         C            1.247057636231     0.415619287642    -1.572955450573    12.000000000000
         H            1.228744636231     1.029115287642    -0.670394450573     1.007825032230
         H            1.281758636231     1.106930287642    -2.418093450573     1.007825032230
         C            2.488036636231    -0.467590712358    -1.585766450573    12.000000000000
         H            2.536180636231    -1.059709712358    -2.499884450573     1.007825032230
         H            3.403195636231     0.119643287642    -1.521078450573     1.007825032230
         H            2.474758636231    -1.163810712358    -0.746369450573     1.007825032230
         C            0.059037636231     0.179818287642     1.978004549427    12.000000000000
         O            0.085949636231     1.364892287642     1.686163549427    15.994914619570
         N            1.191617636231    -0.572058712358     2.080824549427    14.003074004430
         H            2.062557636231    -0.149478712358     1.812162549427     1.007825032230
         H            1.152679636231    -1.563945712358     2.212247549427     1.007825032230
         C           -1.231183363769    -0.559118712358     2.242458549427    12.000000000000
         H           -1.083933363769    -1.519839712358     2.729582549427     1.007825032230
         H           -1.737411363769    -0.717427712358     1.291645549427     1.007825032230
         H           -1.869127363769     0.068117287642     2.857730549427     1.007825032230

  Charge       = 0
  Multiplicity = 1
  Basis Set: AUG-CC-PVQZ
    Blend: AUG-CC-PVQZ
  Basis Set: (AUG-CC-PVQZ AUX)
    Blend: AUG-CC-PVQZ-JKFIT

    Orbital Energies [Eh]
    ---------------------

    Doubly Occupied:

       1A    -20.516538     2A    -15.587010     3A    -11.355140
       4A    -11.237779     5A    -11.206540     6A    -11.205844
       7A    -11.205071     8A    -11.203921     9A    -11.203416
      10A     -1.380588    11A     -1.216037    12A     -1.076824
      13A     -1.012447    14A     -1.007997    15A     -0.917032
      16A     -0.816318    17A     -0.802740    18A     -0.780520
      19A     -0.730521    20A     -0.667962    21A     -0.649135
      22A     -0.613659    23A     -0.595492    24A     -0.591111
      25A     -0.589251    26A     -0.564458    27A     -0.550963
      28A     -0.546436    29A     -0.529512    30A     -0.522595
      31A     -0.491440    32A     -0.472344    33A     -0.457696
      34A     -0.455644    35A     -0.443035    36A     -0.428025
      37A     -0.416854

  @DF-RHF Final Energy:  -404.48984795555646

   => Energetics <=

    Nuclear Repulsion Energy =            476.0772506856131372
    One-Electron Energy =               -1493.0384010614857289
    Two-Electron Energy =                 612.4713024203161922
    Total Energy =                       -404.4898479555564563

  Dipole Moment: [D]
     X:     0.4192      Y:    -3.6500      Z:     0.7379     Total:     3.7474

  Basis Set: (AUG-CC-PVQZ AUX)
    Blend: AUG-CC-PVQZ-RI
	 Reference Energy          =    -404.4898479555564563 [Eh]
	 Singles Energy            =      -0.0000000000000000 [Eh]
	 Same-Spin Energy          =      -0.4409904623318768 [Eh]
	 Opposite-Spin Energy      =      -1.6235515195560113 [Eh]
	 Correlation Energy        =      -2.0645419818878881 [Eh]
	 Total Energy              =    -406.5543899374443413 [Eh]

	 ================> DF-SCS-MP2 Energies <==================
	-----------------------------------------------------------
	 SCS Same-Spin Scale       =       0.3333333333333333 [-]
	 SCS Opposite-Spin Scale   =       1.2000000000000000 [-]
	 SCS Same-Spin Energy      =      -0.1469968207772923 [Eh]
	 SCS Opposite-Spin Energy  =      -1.9482618234672135 [Eh]
	 SCS Correlation Energy    =      -2.0952586442445060 [Eh]
	 SCS Total Energy          =    -406.5851065998009517 [Eh]
	-----------------------------------------------------------

*** Psi4 exiting successfully. Buy a developer a beer!
