                               Psi4 1.4a2.dev224

  ==> Input File <==

--------------------------------------------------------------------------
#Generated by lconvert.py for cbs job

memory 40 GB

molecule  {
0 1
  C       -2.5877760    -0.3231060     0.4694580
  H       -2.6103890    -0.8763660    -0.4696190
  H       -2.6597440    -1.0518870     1.2777140
  H       -3.4760350     0.3056250     0.5089610
  C       -1.3095600     0.4973940     0.5850630
  H       -1.3172510     1.0832620     1.5063410
  H       -1.2623770     1.2155740    -0.2367760
  C       -0.0568300    -0.3682600     0.5584400
  H       -0.0861750    -1.0733590     1.3958750
  H       -0.0538090    -0.9768430    -0.3514740
  C        1.2315960     0.4400660     0.6320320
  H        1.2132830     1.0535620     1.5345930
  H        1.2662970     1.1313770    -0.2131060
  C        2.4725750    -0.4431440     0.6192210
  H        2.5207190    -1.0352630    -0.2948970
  H        3.3877340     0.1440900     0.6839090
  H        2.4592970    -1.1393640     1.4586180
--
0 1
  C        0.0263430     0.1674080     3.3724820
  O        0.0532550     1.3524820     3.0806410
  N        1.1589230    -0.5844690     3.4753020
  H        2.0298630    -0.1618890     3.2066400
  H        1.1199850    -1.5763560     3.6067250
  C       -1.2638780    -0.5715290     3.6369360
  H       -1.1166280    -1.5322500     4.1240600
  H       -1.7701060    -0.7298380     2.6861230
  H       -1.9018220     0.0557070     4.2522080
units angstrom
no_reorient
symmetry c1
}

set {
scf_type DF
mp2_type DF
e_convergence 7
reference rhf
}

energy('mp2/aug-cc-pv[tq]z', bsse_type='cp')
--------------------------------------------------------------------------

    Molecular point group: c1
  Charge       = 0
  Multiplicity = 1
  Basis Set: AUG-CC-PVTZ
    Blend: AUG-CC-PVTZ
  Basis Set: (AUG-CC-PVTZ AUX)
    Blend: AUG-CC-PVTZ-JKFIT
  @DF-RHF Final Energy:  -208.06311309475865
    Total Energy =                       -208.0631130947586485
  Basis Set: (AUG-CC-PVTZ AUX)
    Blend: AUG-CC-PVTZ-RI
	 Reference Energy          =    -208.0631130947586485 [Eh]
	 Singles Energy            =      -0.0000000000000000 [Eh]
	 Same-Spin Energy          =      -0.2044960783492937 [Eh]
	 Opposite-Spin Energy      =      -0.6557355180783342 [Eh]
	 Correlation Energy        =      -0.8602315964276279 [Eh]
	 Total Energy              =    -208.9233446911862870 [Eh]
	 SCS Total Energy          =    -208.9181610759024181 [Eh]
    Molecular point group: c1
  Basis Set: AUG-CC-PVQZ
    Blend: AUG-CC-PVQZ
  Basis Set: (AUG-CC-PVQZ AUX)
    Blend: AUG-CC-PVQZ-JKFIT
  @DF-RHF Final Energy:  -208.07629509781859
    Total Energy =                       -208.0762950978185870
  Basis Set: (AUG-CC-PVQZ AUX)
  @DF-RHF Final Energy:  -208.06349611632237
    Total Energy =                       -208.0634961163223693
  @DF-RHF Final Energy:  -208.07639592067437
    Total Energy =                       -208.0763959206743721
  @DF-RHF Final Energy:  -196.40438825653209
    Total Energy =                       -196.4043882565320871
  @DF-RHF Final Energy:  -196.41614466092892
    Total Energy =                       -196.4161446609289214
  @DF-RHF Final Energy:  -196.40429366493788
    Total Energy =                       -196.4042936649378817
  @DF-RHF Final Energy:  -196.41611436218156
    Total Energy =                       -196.4161143621815597
  Multiplicity = 1
  @DF-RHF Final Energy:  -404.42572208761203
    Total Energy =                       -404.4257220876120300
	 Singles Energy            =      -0.0000000000000000 [Eh]
	 Same-Spin Energy          =      -0.4271494504046734 [Eh]
	 Opposite-Spin Energy      =      -1.4707050058895956 [Eh]
	 Correlation Energy        =      -1.8978544562942692 [Eh]
	 Total Energy              =    -406.3235765439063130 [Eh]
	 SCS Total Energy          =    -406.3329512448144101 [Eh]
    Molecular point group: c1

    Geometry (in Angstrom), charge = 0, multiplicity = 1:

       Center              X                  Y                   Z               Mass
    ------------   -----------------  -----------------  -----------------  -----------------
         C           -2.564555813373    -0.330959148154    -1.370625911954    12.000000000000
         H           -2.587168813373    -0.884219148154    -2.309702911954     1.007825032230
         H           -2.636523813373    -1.059740148154    -0.562369911954     1.007825032230
         H           -3.452814813373     0.297771851846    -1.331122911954     1.007825032230
         C           -1.286339813373     0.489540851846    -1.255020911954    12.000000000000
         H           -1.294030813373     1.075408851846    -0.333742911954     1.007825032230
         H           -1.239156813373     1.207720851846    -2.076859911954     1.007825032230
         C           -0.033609813373    -0.376113148154    -1.281643911954    12.000000000000
         H           -0.062954813373    -1.081212148154    -0.444208911954     1.007825032230
         H           -0.030588813373    -0.984696148154    -2.191557911954     1.007825032230
         C            1.254816186627     0.432212851846    -1.208051911954    12.000000000000
         H            1.236503186627     1.045708851846    -0.305490911954     1.007825032230
         H            1.289517186627     1.123523851846    -2.053189911954     1.007825032230
         C            2.495795186627    -0.450997148154    -1.220862911954    12.000000000000
         H            2.543939186627    -1.043116148154    -2.134980911954     1.007825032230
         H            3.410954186627     0.136236851846    -1.156174911954     1.007825032230
         H            2.482517186627    -1.147217148154    -0.381465911954     1.007825032230
         C            0.049563186627     0.159554851846     1.532398088046    12.000000000000
         O            0.076475186627     1.344628851846     1.240557088046    15.994914619570
         N            1.182143186627    -0.592322148154     1.635218088046    14.003074004430
         H            2.053083186627    -0.169742148154     1.366556088046     1.007825032230
         H            1.143205186627    -1.584209148154     1.766641088046     1.007825032230
         C           -1.240657813373    -0.579382148154     1.796852088046    12.000000000000
         H           -1.093407813373    -1.540103148154     2.283976088046     1.007825032230
         H           -1.746885813373    -0.737691148154     0.846039088046     1.007825032230
         H           -1.878601813373     0.047853851846     2.412124088046     1.007825032230

  Charge       = 0
  Multiplicity = 1
  Basis Set: AUG-CC-PVQZ
    Blend: AUG-CC-PVQZ
  Basis Set: (AUG-CC-PVQZ AUX)
    Blend: AUG-CC-PVQZ-JKFIT

    Orbital Energies [Eh]
    ---------------------

    Doubly Occupied:

       1A    -20.515712     2A    -15.583951     3A    -11.355287
       4A    -11.232996     5A    -11.204638     6A    -11.204571
       7A    -11.203889     8A    -11.197195     9A    -11.194160
      10A     -1.386476    11A     -1.217694    12A     -1.076410
      13A     -1.018688    14A     -1.001857    15A     -0.918382
      16A     -0.816775    17A     -0.803692    18A     -0.779777
      19A     -0.732696    20A     -0.675419    21A     -0.671514
      22A     -0.608890    23A     -0.595018    24A     -0.591301
      25A     -0.583348    26A     -0.560100    27A     -0.550469
      28A     -0.548961    29A     -0.534909    30A     -0.511365
      31A     -0.491813    32A     -0.474432    33A     -0.463586
      34A     -0.451483    35A     -0.441213    36A     -0.421946
      37A     -0.404848

  @DF-RHF Final Energy:  -404.45045982695939

   => Energetics <=

    Nuclear Repulsion Energy =            510.2021103475007635
    One-Electron Energy =               -1561.2541908550381322
    Two-Electron Energy =                 646.6016206805779802
    Total Energy =                       -404.4504598269593316

  Dipole Moment: [D]
     X:     0.3415      Y:    -3.4051      Z:     0.7840     Total:     3.5108

  Basis Set: (AUG-CC-PVQZ AUX)
    Blend: AUG-CC-PVQZ-RI
	 Reference Energy          =    -404.4504598269593885 [Eh]
	 Singles Energy            =      -0.0000000000000000 [Eh]
	 Same-Spin Energy          =      -0.4512208570471583 [Eh]
	 Opposite-Spin Energy      =      -1.6356249588433638 [Eh]
	 Correlation Energy        =      -2.0868458158905221 [Eh]
	 Total Energy              =    -406.5373056428499012 [Eh]

	 ================> DF-SCS-MP2 Energies <==================
	-----------------------------------------------------------
	 SCS Same-Spin Scale       =       0.3333333333333333 [-]
	 SCS Opposite-Spin Scale   =       1.2000000000000000 [-]
	 SCS Same-Spin Energy      =      -0.1504069523490528 [Eh]
	 SCS Opposite-Spin Energy  =      -1.9627499506120365 [Eh]
	 SCS Correlation Energy    =      -2.1131569029610890 [Eh]
	 SCS Total Energy          =    -406.5636167299204544 [Eh]
	-----------------------------------------------------------

*** Psi4 exiting successfully. Buy a developer a beer!
