                               Psi4 1.4a2.dev224

  ==> Input File <==

--------------------------------------------------------------------------
#Generated by lconvert.py for cbs job

memory 40 GB

molecule  {
0 1
  C       -2.5877760    -0.3231060     0.4694580
  H       -2.6103890    -0.8763660    -0.4696190
  H       -2.6597440    -1.0518870     1.2777140
  H       -3.4760350     0.3056250     0.5089610
  C       -1.3095600     0.4973940     0.5850630
  H       -1.3172510     1.0832620     1.5063410
  H       -1.2623770     1.2155740    -0.2367760
  C       -0.0568300    -0.3682600     0.5584400
  H       -0.0861750    -1.0733590     1.3958750
  H       -0.0538090    -0.9768430    -0.3514740
  C        1.2315960     0.4400660     0.6320320
  H        1.2132830     1.0535620     1.5345930
  H        1.2662970     1.1313770    -0.2131060
  C        2.4725750    -0.4431440     0.6192210
  H        2.5207190    -1.0352630    -0.2948970
  H        3.3877340     0.1440900     0.6839090
  H        2.4592970    -1.1393640     1.4586180
--
0 1
  C        0.0263430     0.1674080     3.3724820
  O        0.0532550     1.3524820     3.0806410
  N        1.1589230    -0.5844690     3.4753020
  H        2.0298630    -0.1618890     3.2066400
  H        1.1199850    -1.5763560     3.6067250
  C       -1.2638780    -0.5715290     3.6369360
  H       -1.1166280    -1.5322500     4.1240600
  H       -1.7701060    -0.7298380     2.6861230
  H       -1.9018220     0.0557070     4.2522080
units angstrom
no_reorient
symmetry c1
}

set {
scf_type DF
mp2_type DF
e_convergence 7
reference rhf
}

energy('mp2/aug-cc-pv[tq]z', bsse_type='cp')
--------------------------------------------------------------------------

    Molecular point group: c1
  Charge       = 0
  Multiplicity = 1
  Basis Set: AUG-CC-PVTZ
    Blend: AUG-CC-PVTZ
  Basis Set: (AUG-CC-PVTZ AUX)
    Blend: AUG-CC-PVTZ-JKFIT
  @DF-RHF Final Energy:  -208.06311309475865
    Total Energy =                       -208.0631130947586485
  Basis Set: (AUG-CC-PVTZ AUX)
    Blend: AUG-CC-PVTZ-RI
	 Reference Energy          =    -208.0631130947586485 [Eh]
	 Singles Energy            =      -0.0000000000000000 [Eh]
	 Same-Spin Energy          =      -0.2044960783492937 [Eh]
	 Opposite-Spin Energy      =      -0.6557355180783342 [Eh]
	 Correlation Energy        =      -0.8602315964276279 [Eh]
	 Total Energy              =    -208.9233446911862870 [Eh]
	 SCS Total Energy          =    -208.9181610759024181 [Eh]
    Molecular point group: c1
  Basis Set: AUG-CC-PVQZ
    Blend: AUG-CC-PVQZ
  Basis Set: (AUG-CC-PVQZ AUX)
    Blend: AUG-CC-PVQZ-JKFIT
  @DF-RHF Final Energy:  -208.07629509781859
    Total Energy =                       -208.0762950978185870
  Basis Set: (AUG-CC-PVQZ AUX)
  @DF-RHF Final Energy:  -208.06349611632237
    Total Energy =                       -208.0634961163223693
  @DF-RHF Final Energy:  -208.07639592067437
    Total Energy =                       -208.0763959206743721
  @DF-RHF Final Energy:  -196.40438825653209
    Total Energy =                       -196.4043882565320871
  @DF-RHF Final Energy:  -196.41614466092892
    Total Energy =                       -196.4161446609289214
  @DF-RHF Final Energy:  -196.40429366493788
    Total Energy =                       -196.4042936649378817
  @DF-RHF Final Energy:  -196.41611436218156
    Total Energy =                       -196.4161143621815597
  @DF-RHF Final Energy:  -404.42572208761203
    Total Energy =                       -404.4257220876120300
  @DF-RHF Final Energy:  -404.45045982695939
    Total Energy =                       -404.4504598269593316
*** Psi4 exiting successfully. Buy a developer a beer!
                               Psi4 1.4a2.dev224
  @DF-RHF Final Energy:  -208.06311309457658
    Total Energy =                       -208.0631130945765790
  @DF-RHF Final Energy:  -208.07629509816522
    Total Energy =                       -208.0762950981652182
  @DF-RHF Final Energy:  -208.06342431846275
    Total Energy =                       -208.0634243184627508
  @DF-RHF Final Energy:  -208.07637973902217
    Total Energy =                       -208.0763797390221725
  @DF-RHF Final Energy:  -196.40436406702833
    Total Energy =                       -196.4043640670283253
  @DF-RHF Final Energy:  -196.41613817841795
    Total Energy =                       -196.4161381784179525
  @DF-RHF Final Energy:  -196.40429366445304
    Total Energy =                       -196.4042936644530357
  @DF-RHF Final Energy:  -196.41611436158942
    Total Energy =                       -196.4161143615894218
  @DF-RHF Final Energy:  -404.45009909157358
    Total Energy =                       -404.4500990915736338
  @DF-RHF Final Energy:  -404.47486855756250
    Total Energy =                       -404.4748685575624449
*** Psi4 exiting successfully. Buy a developer a beer!
                               Psi4 1.4a2.dev224
                               Psi4 1.4a2.dev224
                               Psi4 1.4a2.dev224
                               Psi4 1.4a2.dev224
                               Psi4 1.4a2.dev224
                               Psi4 1.4a2.dev224
                               Psi4 1.4a2.dev224
  @DF-RHF Final Energy:  -208.06311355479963
    Total Energy =                       -208.0631135547996280
  @DF-RHF Final Energy:  -208.07629558277355
    Total Energy =                       -208.0762955827735539
  @DF-RHF Final Energy:  -208.06316662904308
    Total Energy =                       -208.0631666290430815
  @DF-RHF Final Energy:  -208.07631333065282
    Total Energy =                       -208.0763133306528232
  @DF-RHF Final Energy:  -196.40430243605005
    Total Energy =                       -196.4043024360500453
  @DF-RHF Final Energy:  -196.41611934709701
    Total Energy =                       -196.4161193470970090
  @DF-RHF Final Energy:  -196.40429379951962
    Total Energy =                       -196.4042937995196212
  @DF-RHF Final Energy:  -196.41611450771904
    Total Energy =                       -196.4161145077190440
  @DF-RHF Final Energy:  -404.46765389995630
    Total Energy =                       -404.4676538999563036
  @DF-RHF Final Energy:  -404.49261761451356
    Total Energy =                       -404.4926176145135059
*** Psi4 exiting successfully. Buy a developer a beer!
                               Psi4 1.4a2.dev224
  @DF-RHF Final Energy:  -208.06311264499953
    Total Energy =                       -208.0631126449995350
  @DF-RHF Final Energy:  -208.07629461879881
    Total Energy =                       -208.0762946187988121
  @DF-RHF Final Energy:  -208.06313511433214
    Total Energy =                       -208.0631351143321410
  @DF-RHF Final Energy:  -208.07630396426208
    Total Energy =                       -208.0763039642620811
  @DF-RHF Final Energy:  -196.40429793299813
    Total Energy =                       -196.4042979329981335
  @DF-RHF Final Energy:  -196.41611699863273
    Total Energy =                       -196.4161169986327309
  @DF-RHF Final Energy:  -196.40429379859864
    Total Energy =                       -196.4042937985986441
  @DF-RHF Final Energy:  -196.41611450760604
    Total Energy =                       -196.4161145076060393
  Multiplicity = 1
  @DF-RHF Final Energy:  -404.46752905763083
    Total Energy =                       -404.4675290576308271
	 Singles Energy            =      -0.0000000000000000 [Eh]
	 Same-Spin Energy          =      -0.4126225145108493 [Eh]
	 Opposite-Spin Energy      =      -1.4494005540405268 [Eh]
	 Correlation Energy        =      -1.8620230685513761 [Eh]
	 Total Energy              =    -406.3295521261821932 [Eh]
	 SCS Total Energy          =    -406.3443505606497297 [Eh]
    Molecular point group: c1

    Geometry (in Angstrom), charge = 0, multiplicity = 1:

       Center              X                  Y                   Z               Mass
    ------------   -----------------  -----------------  -----------------  -----------------
         C           -2.596126932465    -0.398478293825    -2.855336903618    12.000000000000
         H           -2.618736932465    -0.951738293825    -3.794416903618     1.007825032230
         H           -2.668086932465    -1.127258293825    -2.047086903618     1.007825032230
         H           -3.484376932465     0.230251706175    -2.815836903618     1.007825032230
         C           -1.317906932465     0.422021706175    -2.739736903618    12.000000000000
         H           -1.325596932465     1.007891706175    -1.818456903618     1.007825032230
         H           -1.270726932465     1.140201706175    -3.561576903618     1.007825032230
         C           -0.065176932465    -0.443628293825    -2.766356903618    12.000000000000
         H           -0.094526932465    -1.148728293825    -1.928926903618     1.007825032230
         H           -0.062156932465    -1.052208293825    -3.676266903618     1.007825032230
         C            1.223253067535     0.364701706175    -2.692766903618    12.000000000000
         H            1.204933067535     0.978191706175    -1.790206903618     1.007825032230
         H            1.257953067535     1.056011706175    -3.537906903618     1.007825032230
         C            2.464223067535    -0.518508293825    -2.705576903618    12.000000000000
         H            2.512373067535    -1.110628293825    -3.619696903618     1.007825032230
         H            3.379383067535     0.068721706175    -2.640886903618     1.007825032230
         H            2.450953067535    -1.214728293825    -1.866176903618     1.007825032230
         C            0.088113067535     0.242001706175     3.345473096382    12.000000000000
         O            0.115023067535     1.427081706175     3.053633096382    15.994914619570
         N            1.220693067535    -0.509878293825     3.448293096382    14.003074004430
         H            2.091633067535    -0.087298293825     3.179633096382     1.007825032230
         H            1.181753067535    -1.501758293825     3.579723096382     1.007825032230
         C           -1.202106932465    -0.496938293825     3.609933096382    12.000000000000
         H           -1.054856932465    -1.457658293825     4.097053096382     1.007825032230
         H           -1.708336932465    -0.655248293825     2.659113096382     1.007825032230
         H           -1.840046932465     0.130301706175     4.225203096382     1.007825032230

  Charge       = 0
  Multiplicity = 1
  Basis Set: AUG-CC-PVQZ
    Blend: AUG-CC-PVQZ
  Basis Set: (AUG-CC-PVQZ AUX)
    Blend: AUG-CC-PVQZ-JKFIT

    Orbital Energies [Eh]
    ---------------------

    Doubly Occupied:

       1A    -20.514772     2A    -15.586209     3A    -11.353479
       4A    -11.237576     5A    -11.209302     6A    -11.209157
       7A    -11.207801     8A    -11.205660     9A    -11.205111
      10A     -1.377946    11A     -1.214631    12A     -1.079312
      13A     -1.013529    14A     -1.007566    15A     -0.917535
      16A     -0.818408    17A     -0.801413    18A     -0.783301
      19A     -0.729254    20A     -0.665958    21A     -0.645682
      22A     -0.617314    23A     -0.596867    24A     -0.591274
      25A     -0.587288    26A     -0.564164    27A     -0.552807
      28A     -0.546452    29A     -0.526035    30A     -0.524375
      31A     -0.493665    32A     -0.474498    33A     -0.460502
      34A     -0.457605    35A     -0.444958    36A     -0.426326
      37A     -0.416766

  @DF-RHF Final Energy:  -404.49251721164887

   => Energetics <=

    Nuclear Repulsion Energy =            416.5639600256339463
    One-Electron Energy =               -1373.9839482659670011
    Two-Electron Energy =                 552.9274710286841810
    Total Energy =                       -404.4925172116488739

  Dipole Moment: [D]
     X:     0.4435      Y:    -3.9561      Z:     0.6579     Total:     4.0349

  Basis Set: (AUG-CC-PVQZ AUX)
    Blend: AUG-CC-PVQZ-RI
	 Reference Energy          =    -404.4925172116488739 [Eh]
	 Singles Energy            =      -0.0000000000000000 [Eh]
	 Same-Spin Energy          =      -0.4368973651486267 [Eh]
	 Opposite-Spin Energy      =      -1.6184002180542578 [Eh]
	 Correlation Energy        =      -2.0552975832028846 [Eh]
	 Total Energy              =    -406.5478147948517744 [Eh]

	 ================> DF-SCS-MP2 Energies <==================
	-----------------------------------------------------------
	 SCS Same-Spin Scale       =       0.3333333333333333 [-]
	 SCS Opposite-Spin Scale   =       1.2000000000000000 [-]
	 SCS Same-Spin Energy      =      -0.1456324550495422 [Eh]
	 SCS Opposite-Spin Energy  =      -1.9420802616651094 [Eh]
	 SCS Correlation Energy    =      -2.0877127167146514 [Eh]
	 SCS Total Energy          =    -406.5802299283635080 [Eh]
	-----------------------------------------------------------

*** Psi4 exiting successfully. Buy a developer a beer!
