                               Psi4 1.4a2.dev224

  ==> Input File <==

--------------------------------------------------------------------------
#Generated by lconvert.py for cbs job

memory 40 GB

molecule  {
0 1
  C       -2.5877760    -0.3231060     0.4694580
  H       -2.6103890    -0.8763660    -0.4696190
  H       -2.6597440    -1.0518870     1.2777140
  H       -3.4760350     0.3056250     0.5089610
  C       -1.3095600     0.4973940     0.5850630
  H       -1.3172510     1.0832620     1.5063410
  H       -1.2623770     1.2155740    -0.2367760
  C       -0.0568300    -0.3682600     0.5584400
  H       -0.0861750    -1.0733590     1.3958750
  H       -0.0538090    -0.9768430    -0.3514740
  C        1.2315960     0.4400660     0.6320320
  H        1.2132830     1.0535620     1.5345930
  H        1.2662970     1.1313770    -0.2131060
  C        2.4725750    -0.4431440     0.6192210
  H        2.5207190    -1.0352630    -0.2948970
  H        3.3877340     0.1440900     0.6839090
  H        2.4592970    -1.1393640     1.4586180
--
0 1
  C        0.0463380     0.2101720     4.3128930
  O        0.0732500     1.3952460     4.0210520
  N        1.1789180    -0.5417050     4.4157130
  H        2.0498580    -0.1191250     4.1470510
  H        1.1399800    -1.5335920     4.5471360
  C       -1.2438830    -0.5287650     4.5773470
  H       -1.0966330    -1.4894860     5.0644710
  H       -1.7501110    -0.6870740     3.6265340
  H       -1.8818270     0.0984710     5.1926190
units angstrom
no_reorient
symmetry c1
}

set {
scf_type DF
mp2_type DF
e_convergence 7
reference rhf
}

energy('mp2/aug-cc-pv[tq]z', bsse_type='cp')
--------------------------------------------------------------------------

    Molecular point group: c1
  Charge       = 0
  Multiplicity = 1
  Basis Set: AUG-CC-PVTZ
    Blend: AUG-CC-PVTZ
  Basis Set: (AUG-CC-PVTZ AUX)
    Blend: AUG-CC-PVTZ-JKFIT
  @DF-RHF Final Energy:  -208.06311309449768
    Total Energy =                       -208.0631130944976803
  Basis Set: (AUG-CC-PVTZ AUX)
    Blend: AUG-CC-PVTZ-RI
	 Reference Energy          =    -208.0631130944976803 [Eh]
	 Singles Energy            =      -0.0000000000000000 [Eh]
	 Same-Spin Energy          =      -0.2044960783507748 [Eh]
	 Opposite-Spin Energy      =      -0.6557355180883252 [Eh]
	 Correlation Energy        =      -0.8602315964391001 [Eh]
	 Total Energy              =    -208.9233446909367728 [Eh]
	 SCS Total Energy          =    -208.9181610756539271 [Eh]
    Molecular point group: c1
  Basis Set: AUG-CC-PVQZ
    Blend: AUG-CC-PVQZ
  Basis Set: (AUG-CC-PVQZ AUX)
    Blend: AUG-CC-PVQZ-JKFIT
  @DF-RHF Final Energy:  -208.07629509784107
    Total Energy =                       -208.0762950978410686
  Basis Set: (AUG-CC-PVQZ AUX)
  @DF-RHF Final Energy:  -208.06330140107377
    Total Energy =                       -208.0633014010737725
  @DF-RHF Final Energy:  -208.07634876082719
    Total Energy =                       -208.0763487608271873
  @DF-RHF Final Energy:  -196.40432658897851
    Total Energy =                       -196.4043265889785062
  @DF-RHF Final Energy:  -196.41612744571268
    Total Energy =                       -196.4161274457126751
  @DF-RHF Final Energy:  -196.40429366317633
    Total Energy =                       -196.4042936631763325
  @DF-RHF Final Energy:  -196.41611436282824
    Total Energy =                       -196.4161143628282389
  Multiplicity = 1
  @DF-RHF Final Energy:  -404.46612340689404
    Total Energy =                       -404.4661234068939848
	 Singles Energy            =      -0.0000000000000000 [Eh]
	 Same-Spin Energy          =      -0.4161167439194146 [Eh]
	 Opposite-Spin Energy      =      -1.4555046343090687 [Eh]
	 Correlation Energy        =      -1.8716213782284834 [Eh]
	 Total Energy              =    -406.3377447851225384 [Eh]
	 SCS Total Energy          =    -406.3514345493713904 [Eh]
    Molecular point group: c1

    Geometry (in Angstrom), charge = 0, multiplicity = 1:

       Center              X                  Y                   Z               Mass
    ------------   -----------------  -----------------  -----------------  -----------------
         C           -2.573557856846    -0.350212130752    -1.794012793863    12.000000000000
         H           -2.596170856846    -0.903472130752    -2.733089793863     1.007825032230
         H           -2.645525856846    -1.078993130752    -0.985756793863     1.007825032230
         H           -3.461816856846     0.278518869248    -1.754509793863     1.007825032230
         C           -1.295341856846     0.470287869248    -1.678407793863    12.000000000000
         H           -1.303032856846     1.056155869248    -0.757129793863     1.007825032230
         H           -1.248158856846     1.188467869248    -2.500246793863     1.007825032230
         C           -0.042611856846    -0.395366130752    -1.705030793863    12.000000000000
         H           -0.071956856846    -1.100465130752    -0.867595793863     1.007825032230
         H           -0.039590856846    -1.003949130752    -2.614944793863     1.007825032230
         C            1.245814143154     0.412959869248    -1.631438793863    12.000000000000
         H            1.227501143154     1.026455869248    -0.728877793863     1.007825032230
         H            1.280515143154     1.104270869248    -2.476576793863     1.007825032230
         C            2.486793143154    -0.470250130752    -1.644249793863    12.000000000000
         H            2.534937143154    -1.062369130752    -2.558367793863     1.007825032230
         H            3.401952143154     0.116983869248    -1.579561793863     1.007825032230
         H            2.473515143154    -1.166470130752    -0.804852793863     1.007825032230
         C            0.060556143154     0.183065869248     2.049422206137    12.000000000000
         O            0.087468143154     1.368139869248     1.757581206137    15.994914619570
         N            1.193136143154    -0.568811130752     2.152242206137    14.003074004430
         H            2.064076143154    -0.146231130752     1.883580206137     1.007825032230
         H            1.154198143154    -1.560698130752     2.283665206137     1.007825032230
         C           -1.229664856846    -0.555871130752     2.313876206137    12.000000000000
         H           -1.082414856846    -1.516592130752     2.801000206137     1.007825032230
         H           -1.735892856846    -0.714180130752     1.363063206137     1.007825032230
         H           -1.867608856846     0.071364869248     2.929148206137     1.007825032230

  Charge       = 0
  Multiplicity = 1
  Basis Set: AUG-CC-PVQZ
    Blend: AUG-CC-PVQZ
  Basis Set: (AUG-CC-PVQZ AUX)
    Blend: AUG-CC-PVQZ-JKFIT

    Orbital Energies [Eh]
    ---------------------

    Doubly Occupied:

       1A    -20.516444     2A    -15.587052     3A    -11.355028
       4A    -11.237940     5A    -11.206735     6A    -11.205887
       7A    -11.205163     8A    -11.204444     9A    -11.204130
      10A     -1.380233    11A     -1.215910    12A     -1.077038
      13A     -1.012347    14A     -1.008184    15A     -0.917039
      16A     -0.816498    17A     -0.802626    18A     -0.780761
      19A     -0.730397    20A     -0.667718    21A     -0.647535
      22A     -0.615092    23A     -0.595592    24A     -0.590817
      25A     -0.589045    26A     -0.564606    27A     -0.551131
      28A     -0.546377    29A     -0.528864    30A     -0.523150
      31A     -0.491665    32A     -0.472438    33A     -0.457883
      34A     -0.455657    35A     -0.443239    36A     -0.427986
      37A     -0.417286

  @DF-RHF Final Energy:  -404.49097473418749

   => Energetics <=

    Nuclear Repulsion Energy =            471.5518728873280452
    One-Electron Energy =               -1483.9858189822157328
    Two-Electron Energy =                 607.9429713607001986
    Total Energy =                       -404.4909747341874890

  Dipole Moment: [D]
     X:     0.4233      Y:    -3.6793      Z:     0.7304     Total:     3.7749

  Basis Set: (AUG-CC-PVQZ AUX)
    Blend: AUG-CC-PVQZ-RI
	 Reference Energy          =    -404.4909747341874890 [Eh]
	 Singles Energy            =      -0.0000000000000000 [Eh]
	 Same-Spin Energy          =      -0.4402504326915514 [Eh]
	 Opposite-Spin Energy      =      -1.6226515459997106 [Eh]
	 Correlation Energy        =      -2.0629019786912619 [Eh]
	 Total Energy              =    -406.5538767128787754 [Eh]

	 ================> DF-SCS-MP2 Energies <==================
	-----------------------------------------------------------
	 SCS Same-Spin Scale       =       0.3333333333333333 [-]
	 SCS Opposite-Spin Scale   =       1.2000000000000000 [-]
	 SCS Same-Spin Energy      =      -0.1467501442305171 [Eh]
	 SCS Opposite-Spin Energy  =      -1.9471818551996527 [Eh]
	 SCS Correlation Energy    =      -2.0939319994301697 [Eh]
	 SCS Total Energy          =    -406.5849067336176859 [Eh]
	-----------------------------------------------------------

*** Psi4 exiting successfully. Buy a developer a beer!
