                               Psi4 1.4a2.dev224

  ==> Input File <==

--------------------------------------------------------------------------
#Generated by lconvert.py for cbs job

memory 40 GB

molecule  {
0 1
  C       -2.5877760    -0.3231060     0.4694580
  H       -2.6103890    -0.8763660    -0.4696190
  H       -2.6597440    -1.0518870     1.2777140
  H       -3.4760350     0.3056250     0.5089610
  C       -1.3095600     0.4973940     0.5850630
  H       -1.3172510     1.0832620     1.5063410
  H       -1.2623770     1.2155740    -0.2367760
  C       -0.0568300    -0.3682600     0.5584400
  H       -0.0861750    -1.0733590     1.3958750
  H       -0.0538090    -0.9768430    -0.3514740
  C        1.2315960     0.4400660     0.6320320
  H        1.2132830     1.0535620     1.5345930
  H        1.2662970     1.1313770    -0.2131060
  C        2.4725750    -0.4431440     0.6192210
  H        2.5207190    -1.0352630    -0.2948970
  H        3.3877340     0.1440900     0.6839090
  H        2.4592970    -1.1393640     1.4586180
--
0 1
  C        0.0490790     0.2160350     4.4418180
  O        0.0759910     1.4011090     4.1499770
  N        1.1816590    -0.5358430     4.5446380
  H        2.0525990    -0.1132620     4.2759760
  H        1.1427210    -1.5277290     4.6760610
  C       -1.2411420    -0.5229020     4.7062720
  H       -1.0938920    -1.4836240     5.1933960
  H       -1.7473700    -0.6812110     3.7554580
  H       -1.8790860     0.1043340     5.3215440
units angstrom
no_reorient
symmetry c1
}

set {
scf_type DF
mp2_type DF
e_convergence 7
reference rhf
}

energy('mp2/aug-cc-pv[tq]z', bsse_type='cp')
--------------------------------------------------------------------------

    Molecular point group: c1
  Charge       = 0
  Multiplicity = 1
  Basis Set: AUG-CC-PVTZ
    Blend: AUG-CC-PVTZ
  Basis Set: (AUG-CC-PVTZ AUX)
    Blend: AUG-CC-PVTZ-JKFIT
  @DF-RHF Final Energy:  -208.06311307438301
    Total Energy =                       -208.0631130743830113
  Basis Set: (AUG-CC-PVTZ AUX)
    Blend: AUG-CC-PVTZ-RI
	 Reference Energy          =    -208.0631130743830113 [Eh]
	 Singles Energy            =      -0.0000000000000000 [Eh]
	 Same-Spin Energy          =      -0.2044960777454407 [Eh]
	 Opposite-Spin Energy      =      -0.6557355323265062 [Eh]
	 Correlation Energy        =      -0.8602316100719469 [Eh]
	 Total Energy              =    -208.9233446844549462 [Eh]
	 SCS Total Energy          =    -208.9181610724232883 [Eh]
    Molecular point group: c1
  Basis Set: AUG-CC-PVQZ
    Blend: AUG-CC-PVQZ
  Basis Set: (AUG-CC-PVQZ AUX)
    Blend: AUG-CC-PVQZ-JKFIT
  @DF-RHF Final Energy:  -208.07629507637336
    Total Energy =                       -208.0762950763733556
  Basis Set: (AUG-CC-PVQZ AUX)
  @DF-RHF Final Energy:  -208.06328289283672
    Total Energy =                       -208.0632828928367246
  @DF-RHF Final Energy:  -208.07634447832299
    Total Energy =                       -208.0763444783229943
  @DF-RHF Final Energy:  -196.40432245657362
    Total Energy =                       -196.4043224565736239
  @DF-RHF Final Energy:  -196.41612600350425
    Total Energy =                       -196.4161260035042460
  @DF-RHF Final Energy:  -196.40429366325043
    Total Energy =                       -196.4042936632504279
  @DF-RHF Final Energy:  -196.41611436205355
    Total Energy =                       -196.4161143620535483
  Multiplicity = 1
  @DF-RHF Final Energy:  -404.46682107262927
    Total Energy =                       -404.4668210726292727
	 Singles Energy            =      -0.0000000000000000 [Eh]
	 Same-Spin Energy          =      -0.4155016449887429 [Eh]
	 Opposite-Spin Energy      =      -1.4545426752449218 [Eh]
	 Correlation Energy        =      -1.8700443202336645 [Eh]
	 Total Energy              =    -406.3368653928629328 [Eh]
	 SCS Total Energy          =    -406.3507728312527547 [Eh]
    Molecular point group: c1

    Geometry (in Angstrom), charge = 0, multiplicity = 1:

       Center              X                  Y                   Z               Mass
    ------------   -----------------  -----------------  -----------------  -----------------
         C           -2.574791895413    -0.352851625226    -1.852056719894    12.000000000000
         H           -2.597404895413    -0.906111625226    -2.791133719894     1.007825032230
         H           -2.646759895413    -1.081632625226    -1.043800719894     1.007825032230
         H           -3.463050895413     0.275879374774    -1.812553719894     1.007825032230
         C           -1.296575895413     0.467648374774    -1.736451719894    12.000000000000
         H           -1.304266895413     1.053516374774    -0.815173719894     1.007825032230
         H           -1.249392895413     1.185828374774    -2.558290719894     1.007825032230
         C           -0.043845895413    -0.398005625226    -1.763074719894    12.000000000000
         H           -0.073190895413    -1.103104625226    -0.925639719894     1.007825032230
         H           -0.040824895413    -1.006588625226    -2.672988719894     1.007825032230
         C            1.244580104587     0.410320374774    -1.689482719894    12.000000000000
         H            1.226267104587     1.023816374774    -0.786921719894     1.007825032230
         H            1.279281104587     1.101631374774    -2.534620719894     1.007825032230
         C            2.485559104587    -0.472889625226    -1.702293719894    12.000000000000
         H            2.533703104587    -1.065008625226    -2.616411719894     1.007825032230
         H            3.400718104587     0.114344374774    -1.637605719894     1.007825032230
         H            2.472281104587    -1.169109625226    -0.862896719894     1.007825032230
         C            0.062063104587     0.186289374774     2.120303280106    12.000000000000
         O            0.088975104587     1.371363374774     1.828462280106    15.994914619570
         N            1.194643104587    -0.565588625226     2.223123280106    14.003074004430
         H            2.065583104587    -0.143007625226     1.954461280106     1.007825032230
         H            1.155705104587    -1.557474625226     2.354546280106     1.007825032230
         C           -1.228157895413    -0.552647625226     2.384757280106    12.000000000000
         H           -1.080907895413    -1.513369625226     2.871881280106     1.007825032230
         H           -1.734385895413    -0.710956625226     1.433943280106     1.007825032230
         H           -1.866101895413     0.074588374774     3.000029280106     1.007825032230

  Charge       = 0
  Multiplicity = 1
  Basis Set: AUG-CC-PVQZ
    Blend: AUG-CC-PVQZ
  Basis Set: (AUG-CC-PVQZ AUX)
    Blend: AUG-CC-PVQZ-JKFIT

    Orbital Energies [Eh]
    ---------------------

    Doubly Occupied:

       1A    -20.516330     2A    -15.587052     3A    -11.354908
       4A    -11.238034     5A    -11.206903     6A    -11.205926
       7A    -11.205377     8A    -11.204769     9A    -11.204697
      10A     -1.379936    11A     -1.215793    12A     -1.077244
      13A     -1.012338    14A     -1.008268    15A     -0.917056
      16A     -0.816673    17A     -0.802519    18A     -0.780992
      19A     -0.730288    20A     -0.667509    21A     -0.646426
      22A     -0.616109    23A     -0.595694    24A     -0.590631
      25A     -0.588863    26A     -0.564687    27A     -0.551289
      28A     -0.546341    29A     -0.528334    30A     -0.523544
      31A     -0.491874    32A     -0.472567    33A     -0.458122
      34A     -0.455688    35A     -0.443419    36A     -0.427894
      37A     -0.417531

  @DF-RHF Final Energy:  -404.49168765514503

   => Energetics <=

    Nuclear Repulsion Energy =            467.2741323152156383
    One-Electron Energy =               -1475.4283868172535676
    Two-Electron Energy =                 603.6625668468929007
    Total Energy =                       -404.4916876551450287

  Dipole Moment: [D]
     X:     0.4266      Y:    -3.7061      Z:     0.7233     Total:     3.8001

  Basis Set: (AUG-CC-PVQZ AUX)
    Blend: AUG-CC-PVQZ-RI
	 Reference Energy          =    -404.4916876551450287 [Eh]
	 Singles Energy            =      -0.0000000000000000 [Eh]
	 Same-Spin Energy          =      -0.4396506017339722 [Eh]
	 Opposite-Spin Energy      =      -1.6219190474008416 [Eh]
	 Correlation Energy        =      -2.0615696491348139 [Eh]
	 Total Energy              =    -406.5532573042798390 [Eh]

	 ================> DF-SCS-MP2 Energies <==================
	-----------------------------------------------------------
	 SCS Same-Spin Scale       =       0.3333333333333333 [-]
	 SCS Opposite-Spin Scale   =       1.2000000000000000 [-]
	 SCS Same-Spin Energy      =      -0.1465502005779907 [Eh]
	 SCS Opposite-Spin Energy  =      -1.9463028568810099 [Eh]
	 SCS Correlation Energy    =      -2.0928530574590005 [Eh]
	 SCS Total Energy          =    -406.5845407126040527 [Eh]
	-----------------------------------------------------------

*** Psi4 exiting successfully. Buy a developer a beer!
