                               Psi4 1.4a2.dev224

  ==> Input File <==

--------------------------------------------------------------------------
#Generated by lconvert.py for cbs job

memory 40 GB

molecule  {
0 1
  C        0.6067850     1.3304220     0.3164350
  H        1.2464980     2.2022640     0.3303520
  C        1.1180850     0.0872490     0.6851170
  H        2.1500580    -0.0038870     0.9937580
  C        0.2929020    -1.0360870     0.6691070
  H        0.6884970    -2.0009610     0.9553780
  C       -1.0428320    -0.9167110     0.2881900
  H       -1.6827100    -1.7884880     0.2793490
  C       -1.5535880     0.3273490    -0.0799430
  H       -2.5892350     0.4202890    -0.3773460
  C       -0.7280420     1.4508430    -0.0668480
  H       -1.1236240     2.4156590    -0.3538610
--
0 1
  C        0.4011640    -0.2455250     4.1824460
  O        1.5966560    -0.0815740     4.2589620
  O       -0.1783380    -1.4569300     4.3818840
  H        0.5561130    -2.0580380     4.5749230
  C       -0.6207210     0.7984070     3.8617650
  H       -0.1424260     1.7693530     3.8149420
  H       -1.0735210     0.5652110     2.8990570
  H       -1.4055720     0.7928700     4.6142640
units angstrom
no_reorient
symmetry c1
}

set {
scf_type DF
mp2_type DF
e_convergence 7
reference rhf
}

energy('mp2/aug-cc-pv[tq]z', bsse_type='cp')
--------------------------------------------------------------------------

    Molecular point group: c1
  Charge       = 0
  Multiplicity = 1
  Basis Set: AUG-CC-PVTZ
    Blend: AUG-CC-PVTZ
  Basis Set: (AUG-CC-PVTZ AUX)
    Blend: AUG-CC-PVTZ-JKFIT
  @DF-RHF Final Energy:  -227.90509173939586
    Total Energy =                       -227.9050917393958571
  Basis Set: (AUG-CC-PVTZ AUX)
    Blend: AUG-CC-PVTZ-RI
	 Reference Energy          =    -227.9050917393958571 [Eh]
	 Singles Energy            =      -0.0000000000000000 [Eh]
	 Same-Spin Energy          =      -0.2149631221034526 [Eh]
	 Opposite-Spin Energy      =      -0.6693023572657375 [Eh]
	 Correlation Energy        =      -0.8842654793691901 [Eh]
	 Total Energy              =    -228.7893572187650477 [Eh]
	 SCS Total Energy          =    -228.7799089421492340 [Eh]
    Molecular point group: c1
  Basis Set: AUG-CC-PVQZ
    Blend: AUG-CC-PVQZ
  Basis Set: (AUG-CC-PVQZ AUX)
    Blend: AUG-CC-PVQZ-JKFIT
  @DF-RHF Final Energy:  -227.91981748112329
    Total Energy =                       -227.9198174811232889
  Basis Set: (AUG-CC-PVQZ AUX)
  @DF-RHF Final Energy:  -227.90525391541792
    Total Energy =                       -227.9052539154179158
  @DF-RHF Final Energy:  -227.91987212650909
    Total Energy =                       -227.9198721265090910
  @DF-RHF Final Energy:  -230.78140598931046
    Total Energy =                       -230.7814059893104286
  @DF-RHF Final Energy:  -230.79443593315679
    Total Energy =                       -230.7944359331568194
  @DF-RHF Final Energy:  -230.78121997459968
    Total Energy =                       -230.7812199745997077
  @DF-RHF Final Energy:  -230.79439338090154
    Total Energy =                       -230.7943933809015107
  Multiplicity = 1
  @DF-RHF Final Energy:  -458.68617799706459
    Total Energy =                       -458.6861779970645330
	 Singles Energy            =      -0.0000000000000000 [Eh]
	 Same-Spin Energy          =      -0.4742639446521436 [Eh]
	 Opposite-Spin Energy      =      -1.4945775551811129 [Eh]
	 Correlation Energy        =      -1.9688414998332564 [Eh]
	 Total Energy              =    -460.6550194968978644 [Eh]
	 SCS Total Energy          =    -460.6377590448326487 [Eh]
    Molecular point group: c1

    Geometry (in Angstrom), charge = 0, multiplicity = 1:

       Center              X                  Y                   Z               Mass
    ------------   -----------------  -----------------  -----------------  -----------------
         C            0.599769818663     1.335669374130    -1.670659939605    12.000000000000
         H            1.239482818663     2.207511374130    -1.656742939605     1.007825032230
         C            1.111069818663     0.092496374130    -1.301977939605    12.000000000000
         H            2.143042818663     0.001360374130    -0.993336939605     1.007825032230
         C            0.285886818663    -1.030839625870    -1.317987939605    12.000000000000
         H            0.681481818663    -1.995713625870    -1.031716939605     1.007825032230
         C           -1.049847181337    -0.911463625870    -1.698904939605    12.000000000000
         H           -1.689725181337    -1.783240625870    -1.707745939605     1.007825032230
         C           -1.560603181337     0.332596374130    -2.067037939605    12.000000000000
         H           -2.596250181337     0.425536374130    -2.364440939605     1.007825032230
         C           -0.735057181337     1.456090374130    -2.053942939605    12.000000000000
         H           -1.130639181337     2.420906374130    -2.340955939605     1.007825032230
         C            0.394148818663    -0.240277625870     2.195351060395    12.000000000000
         O            1.589640818663    -0.076326625870     2.271867060395    15.994914619570
         O           -0.185353181337    -1.451682625870     2.394789060395    15.994914619570
         H            0.549097818663    -2.052790625870     2.587828060395     1.007825032230
         C           -0.627736181337     0.803654374130     1.874670060395    12.000000000000
         H           -0.149441181337     1.774600374130     1.827847060395     1.007825032230
         H           -1.080536181337     0.570458374130     0.911962060395     1.007825032230
         H           -1.412587181337     0.798117374130     2.627169060395     1.007825032230

  Charge       = 0
  Multiplicity = 1
  Basis Set: AUG-CC-PVQZ
    Blend: AUG-CC-PVQZ
  Basis Set: (AUG-CC-PVQZ AUX)
    Blend: AUG-CC-PVQZ-JKFIT

    Orbital Energies [Eh]
    ---------------------

    Doubly Occupied:

       1A    -20.606418     2A    -20.542849     3A    -11.382610
       4A    -11.239204     5A    -11.238537     6A    -11.237690
       7A    -11.236993     8A    -11.236608     9A    -11.235366
      10A    -11.233025    11A     -1.459379    12A     -1.355039
      13A     -1.154191    14A     -1.021182    15A     -1.018390
      16A     -1.018049    17A     -0.827555    18A     -0.827311
      19A     -0.814505    20A     -0.713148    21A     -0.701838
      22A     -0.673941    23A     -0.647215    24A     -0.645454
      25A     -0.622596    26A     -0.591674    27A     -0.591219
      28A     -0.579602    29A     -0.565864    30A     -0.555909
      31A     -0.503892    32A     -0.498327    33A     -0.498119
      34A     -0.479681    35A     -0.450349    36A     -0.341793
      37A     -0.340986

  @DF-RHF Final Energy:  -458.71383158086917

   => Energetics <=

    Nuclear Repulsion Energy =            491.0503847662770340
    One-Electron Energy =               -1598.1554198068215555
    Two-Electron Energy =                 648.3912034596752392
    Total Energy =                       -458.7138315808691686

  Dipole Moment: [D]
     X:    -1.8050      Y:    -0.1665      Z:    -0.4310     Total:     1.8632

  Basis Set: (AUG-CC-PVQZ AUX)
    Blend: AUG-CC-PVQZ-RI
	 Reference Energy          =    -458.7138315808691686 [Eh]
	 Singles Energy            =      -0.0000000000000000 [Eh]
	 Same-Spin Energy          =      -0.5020954844801091 [Eh]
	 Opposite-Spin Energy      =      -1.6808737794079285 [Eh]
	 Correlation Energy        =      -2.1829692638880376 [Eh]
	 Total Energy              =    -460.8968008447571947 [Eh]

	 ================> DF-SCS-MP2 Energies <==================
	-----------------------------------------------------------
	 SCS Same-Spin Scale       =       0.3333333333333333 [-]
	 SCS Opposite-Spin Scale   =       1.2000000000000000 [-]
	 SCS Same-Spin Energy      =      -0.1673651614933697 [Eh]
	 SCS Opposite-Spin Energy  =      -2.0170485352895140 [Eh]
	 SCS Correlation Energy    =      -2.1844136967828836 [Eh]
	 SCS Total Energy          =    -460.8982452776520518 [Eh]
	-----------------------------------------------------------

*** Psi4 exiting successfully. Buy a developer a beer!
