                               Psi4 1.4a2.dev224

  ==> Input File <==

--------------------------------------------------------------------------
#Generated by lconvert.py for cbs job

memory 20 GB

molecule  {
0 1
  C       0.606790    1.330420    0.316440
  H       1.246500    2.202260    0.330350
  C       1.118080    0.087250    0.685120
  H       2.150060   -0.003890    0.993760
  C       0.292900   -1.036090    0.669110
  H       0.688500   -2.000960    0.955380
  C      -1.042830   -0.916710    0.288190
  H      -1.682710   -1.788490    0.279350
  C      -1.553590    0.327350   -0.079940
  H      -2.589230    0.420290   -0.377350
  C      -0.728040    1.450840   -0.066850
  H      -1.123620    2.415660   -0.353860
--
0 1
  C       0.211490    0.032810    5.858230
  O       1.406980    0.196760    5.934750
  O      -0.368010   -1.178600    6.057670
  H       0.366440   -1.779700    6.250710
  C      -0.810390    1.076740    5.537550
  H      -0.332100    2.047690    5.490730
  H      -1.263190    0.843540    4.574850
  H      -1.595240    1.071200    6.290050
units angstrom
no_reorient
symmetry c1
}

set {
scf_type DF
mp2_type DF
e_convergence 7
reference rhf
}

energy('mp2/aug-cc-pv[tq]z', bsse_type='cp')
--------------------------------------------------------------------------

    Molecular point group: c1
  Charge       = 0
  Multiplicity = 1
  Basis Set: AUG-CC-PVTZ
    Blend: AUG-CC-PVTZ
  Basis Set: (AUG-CC-PVTZ AUX)
    Blend: AUG-CC-PVTZ-JKFIT
  @DF-RHF Final Energy:  -227.90509206648960
    Total Energy =                       -227.9050920664896012
  Basis Set: (AUG-CC-PVTZ AUX)
    Blend: AUG-CC-PVTZ-RI
	 Reference Energy          =    -227.9050920664896012 [Eh]
	 Singles Energy            =      -0.0000000000000000 [Eh]
	 Same-Spin Energy          =      -0.2149630566066686 [Eh]
	 Opposite-Spin Energy      =      -0.6693021412291065 [Eh]
	 Correlation Energy        =      -0.8842651978357752 [Eh]
	 Total Energy              =    -228.7893572643253890 [Eh]
	 SCS Total Energy          =    -228.7799089881667385 [Eh]
    Molecular point group: c1
  Basis Set: AUG-CC-PVQZ
    Blend: AUG-CC-PVQZ
  Basis Set: (AUG-CC-PVQZ AUX)
    Blend: AUG-CC-PVQZ-JKFIT
  @DF-RHF Final Energy:  -227.91981782824035
    Total Energy =                       -227.9198178282403546
  Basis Set: (AUG-CC-PVQZ AUX)
  @DF-RHF Final Energy:  -227.90511973668481
    Total Energy =                       -227.9051197366848101
  @DF-RHF Final Energy:  -227.91983261935050
    Total Energy =                       -227.9198326193505011
  @DF-RHF Final Energy:  -230.78126316424729
    Total Energy =                       -230.7812631642472638
  @DF-RHF Final Energy:  -230.79440563656544
    Total Energy =                       -230.7944056365654433
  @DF-RHF Final Energy:  -230.78122004994478
    Total Energy =                       -230.7812200499447499
  @DF-RHF Final Energy:  -230.79439346177270
    Total Energy =                       -230.7943934617726995
  Multiplicity = 1
  @DF-RHF Final Energy:  -458.68698911242694
    Total Energy =                       -458.6869891124268861
	 Singles Energy            =      -0.0000000000000000 [Eh]
	 Same-Spin Energy          =      -0.4707815125771153 [Eh]
	 Opposite-Spin Energy      =      -1.4885130577318719 [Eh]
	 Correlation Energy        =      -1.9592945703089872 [Eh]
	 Total Energy              =    -460.6462836827359411 [Eh]
	 SCS Total Energy          =    -460.6301319525642270 [Eh]
    Molecular point group: c1

    Geometry (in Angstrom), charge = 0, multiplicity = 1:

       Center              X                  Y                   Z               Mass
    ------------   -----------------  -----------------  -----------------  -----------------
         C            0.682229499780     1.214670623597    -2.399155826173    12.000000000000
         H            1.321939499780     2.086510623597    -2.385245826173     1.007825032230
         C            1.193519499780    -0.028499376403    -2.030475826173    12.000000000000
         H            2.225499499780    -0.119639376403    -1.721835826173     1.007825032230
         C            0.368339499780    -1.151839376403    -2.046485826173    12.000000000000
         H            0.763939499780    -2.116709376403    -1.760215826173     1.007825032230
         C           -0.967390500220    -1.032459376403    -2.427405826173    12.000000000000
         H           -1.607270500220    -1.904239376403    -2.436245826173     1.007825032230
         C           -1.478150500220     0.211600623597    -2.795535826173    12.000000000000
         H           -2.513790500220     0.304540623597    -3.092945826173     1.007825032230
         C           -0.652600500220     1.335090623597    -2.782445826173    12.000000000000
         H           -1.048180500220     2.299910623597    -3.069455826173     1.007825032230
         C            0.286929499780    -0.082939376403     3.142634173827    12.000000000000
         O            1.482419499780     0.081010623597     3.219154173827    15.994914619570
         O           -0.292570500220    -1.294349376403     3.342074173827    15.994914619570
         H            0.441879499780    -1.895449376403     3.535114173827     1.007825032230
         C           -0.734950500220     0.960990623597     2.821954173827    12.000000000000
         H           -0.256660500220     1.931940623597     2.775134173827     1.007825032230
         H           -1.187750500220     0.727790623597     1.859254173827     1.007825032230
         H           -1.519800500220     0.955450623597     3.574454173827     1.007825032230

  Charge       = 0
  Multiplicity = 1
  Basis Set: AUG-CC-PVQZ
    Blend: AUG-CC-PVQZ
  Basis Set: (AUG-CC-PVQZ AUX)
    Blend: AUG-CC-PVQZ-JKFIT

    Orbital Energies [Eh]
    ---------------------

    Doubly Occupied:

       1A    -20.609609     2A    -20.546970     3A    -11.386687
       4A    -11.241120     5A    -11.236926     6A    -11.236283
       7A    -11.236050     8A    -11.235032     9A    -11.234944
      10A    -11.234161    11A     -1.462773    12A     -1.358460
      13A     -1.151529    14A     -1.027579    15A     -1.016000
      16A     -1.015988    17A     -0.825480    18A     -0.825460
      19A     -0.818775    20A     -0.711150    21A     -0.705197
      22A     -0.678523    23A     -0.649155    24A     -0.645622
      25A     -0.620607    26A     -0.589612    27A     -0.589536
      28A     -0.583832    29A     -0.572264    30A     -0.560042
      31A     -0.504189    32A     -0.496522    33A     -0.496329
      34A     -0.482565    35A     -0.454398    36A     -0.338638
      37A     -0.338464

  @DF-RHF Final Energy:  -458.71483929801525

   => Energetics <=

    Nuclear Repulsion Energy =            446.6067711015890609
    One-Electron Energy =               -1509.2102723355130820
    Two-Electron Energy =                 603.8886619359086581
    Total Energy =                       -458.7148392980152494

  Dipole Moment: [D]
     X:    -1.9026      Y:    -0.1554      Z:    -0.2596     Total:     1.9265

  Basis Set: (AUG-CC-PVQZ AUX)
    Blend: AUG-CC-PVQZ-RI
	 Reference Energy          =    -458.7148392980152494 [Eh]
	 Singles Energy            =      -0.0000000000000000 [Eh]
	 Same-Spin Energy          =      -0.4987539581920298 [Eh]
	 Opposite-Spin Energy      =      -1.6768390036762968 [Eh]
	 Correlation Energy        =      -2.1755929618683267 [Eh]
	 Total Energy              =    -460.8904322598835961 [Eh]

	 ================> DF-SCS-MP2 Energies <==================
	-----------------------------------------------------------
	 SCS Same-Spin Scale       =       0.3333333333333333 [-]
	 SCS Opposite-Spin Scale   =       1.2000000000000000 [-]
	 SCS Same-Spin Energy      =      -0.1662513193973433 [Eh]
	 SCS Opposite-Spin Energy  =      -2.0122068044115560 [Eh]
	 SCS Correlation Energy    =      -2.1784581238088991 [Eh]
	 SCS Total Energy          =    -460.8932974218241725 [Eh]
	-----------------------------------------------------------

*** Psi4 exiting successfully. Buy a developer a beer!
