                               Psi4 1.4a2.dev224

  ==> Input File <==

--------------------------------------------------------------------------
#Generated by lconvert.py for cbs job

memory 40 GB

molecule  {
0 1
  C        0.6067850     1.3304220     0.3164350
  H        1.2464980     2.2022640     0.3303520
  C        1.1180850     0.0872490     0.6851170
  H        2.1500580    -0.0038870     0.9937580
  C        0.2929020    -1.0360870     0.6691070
  H        0.6884970    -2.0009610     0.9553780
  C       -1.0428320    -0.9167110     0.2881900
  H       -1.6827100    -1.7884880     0.2793490
  C       -1.5535880     0.3273490    -0.0799430
  H       -2.5892350     0.4202890    -0.3773460
  C       -0.7280420     1.4508430    -0.0668480
  H       -1.1236240     2.4156590    -0.3538610
--
0 1
  C        0.4527500    -0.3212240     3.7266750
  O        1.6482430    -0.1572730     3.8031910
  O       -0.1267510    -1.5326290     3.9261130
  H        0.6077000    -2.1337370     4.1191510
  C       -0.5691340     0.7227080     3.4059940
  H       -0.0908390     1.6936540     3.3591710
  H       -1.0219340     0.4895120     2.4432860
  H       -1.3539850     0.7171710     4.1584930
units angstrom
no_reorient
symmetry c1
}

set {
scf_type DF
mp2_type DF
e_convergence 7
reference rhf
}

energy('mp2/aug-cc-pv[tq]z', bsse_type='cp')
--------------------------------------------------------------------------

    Molecular point group: c1
  Charge       = 0
  Multiplicity = 1
  Basis Set: AUG-CC-PVTZ
    Blend: AUG-CC-PVTZ
  Basis Set: (AUG-CC-PVTZ AUX)
    Blend: AUG-CC-PVTZ-JKFIT
  @DF-RHF Final Energy:  -227.90509168866811
    Total Energy =                       -227.9050916886681080
  Basis Set: (AUG-CC-PVTZ AUX)
    Blend: AUG-CC-PVTZ-RI
	 Reference Energy          =    -227.9050916886681080 [Eh]
	 Singles Energy            =      -0.0000000000000000 [Eh]
	 Same-Spin Energy          =      -0.2149631402430443 [Eh]
	 Opposite-Spin Energy      =      -0.6693023867025183 [Eh]
	 Correlation Energy        =      -0.8842655269455626 [Eh]
	 Total Energy              =    -228.7893572156136770 [Eh]
	 SCS Total Energy          =    -228.7799089327921536 [Eh]
    Molecular point group: c1
  Basis Set: AUG-CC-PVQZ
    Blend: AUG-CC-PVQZ
  Basis Set: (AUG-CC-PVQZ AUX)
    Blend: AUG-CC-PVQZ-JKFIT
  @DF-RHF Final Energy:  -227.91981742667230
    Total Energy =                       -227.9198174266722958
  Basis Set: (AUG-CC-PVQZ AUX)
  @DF-RHF Final Energy:  -227.90533325785705
    Total Energy =                       -227.9053332578570519
  @DF-RHF Final Energy:  -227.91988943645737
    Total Energy =                       -227.9198894364573675
  @DF-RHF Final Energy:  -230.78150236233361
    Total Energy =                       -230.7815023623336401
  @DF-RHF Final Energy:  -230.79445348213719
    Total Energy =                       -230.7944534821371576
  @DF-RHF Final Energy:  -230.78121996929633
    Total Energy =                       -230.7812199692963304
  @DF-RHF Final Energy:  -230.79439337762381
    Total Energy =                       -230.7943933776238055
  Multiplicity = 1
  @DF-RHF Final Energy:  -458.67824407913662
    Total Energy =                       -458.6782440791365616
	 Singles Energy            =      -0.0000000000000000 [Eh]
	 Same-Spin Energy          =      -0.4780386412598230 [Eh]
	 Opposite-Spin Energy      =      -1.5003993381413125 [Eh]
	 Correlation Energy        =      -1.9784379794011355 [Eh]
	 Total Energy              =    -460.6566820585377400 [Eh]
	 SCS Total Energy          =    -460.6380694986594904 [Eh]
    Molecular point group: c1

    Geometry (in Angstrom), charge = 0, multiplicity = 1:

       Center              X                  Y                   Z               Mass
    ------------   -----------------  -----------------  -----------------  -----------------
         C            0.577343939991     1.368577338711    -1.472526589392    12.000000000000
         H            1.217056939991     2.240419338711    -1.458609589392     1.007825032230
         C            1.088643939991     0.125404338711    -1.103844589392    12.000000000000
         H            2.120616939991     0.034268338711    -0.795203589392     1.007825032230
         C            0.263460939991    -0.997931661289    -1.119854589392    12.000000000000
         H            0.659055939991    -1.962805661289    -0.833583589392     1.007825032230
         C           -1.072273060009    -0.878555661289    -1.500771589392    12.000000000000
         H           -1.712151060009    -1.750332661289    -1.509612589392     1.007825032230
         C           -1.583029060009     0.365504338711    -1.868904589392    12.000000000000
         H           -2.618676060009     0.458444338711    -2.166307589392     1.007825032230
         C           -0.757483060009     1.488998338711    -1.855809589392    12.000000000000
         H           -1.153065060009     2.453814338711    -2.142822589392     1.007825032230
         C            0.423308939991    -0.283068661289     1.937713410608    12.000000000000
         O            1.618801939991    -0.119117661289     2.014229410608    15.994914619570
         O           -0.156192060009    -1.494473661289     2.137151410608    15.994914619570
         H            0.578258939991    -2.095581661289     2.330189410608     1.007825032230
         C           -0.598575060009     0.760863338711     1.617032410608    12.000000000000
         H           -0.120280060009     1.731809338711     1.570209410608     1.007825032230
         H           -1.051375060009     0.527667338711     0.654324410608     1.007825032230
         H           -1.383426060009     0.755326338711     2.369531410608     1.007825032230

  Charge       = 0
  Multiplicity = 1
  Basis Set: AUG-CC-PVQZ
    Blend: AUG-CC-PVQZ
  Basis Set: (AUG-CC-PVQZ AUX)
    Blend: AUG-CC-PVQZ-JKFIT

    Orbital Energies [Eh]
    ---------------------

    Doubly Occupied:

       1A    -20.605160     2A    -20.540479     3A    -11.380679
       4A    -11.239897     5A    -11.239258     6A    -11.238184
       7A    -11.237157     8A    -11.236676     9A    -11.235226
      10A    -11.227165    11A     -1.458252    12A     -1.353835
      13A     -1.156036    14A     -1.020444    15A     -1.019441
      16A     -1.016824    17A     -0.828632    18A     -0.828068
      19A     -0.812688    20A     -0.714363    21A     -0.700626
      22A     -0.671973    23A     -0.647969    24A     -0.646589
      25A     -0.623264    26A     -0.592695    27A     -0.591882
      28A     -0.577851    29A     -0.562575    30A     -0.558205
      31A     -0.499536    32A     -0.498743    33A     -0.496115
      34A     -0.478775    35A     -0.448292    36A     -0.343285
      37A     -0.341865

  @DF-RHF Final Energy:  -458.70575998878792

   => Energetics <=

    Nuclear Repulsion Energy =            508.6704183551768210
    One-Electron Energy =               -1633.4149532992141758
    Two-Electron Energy =                 666.0387749552493233
    Total Energy =                       -458.7057599887879178

  Dipole Moment: [D]
     X:    -1.7629      Y:    -0.1743      Z:    -0.4888     Total:     1.8378

  Basis Set: (AUG-CC-PVQZ AUX)
    Blend: AUG-CC-PVQZ-RI
	 Reference Energy          =    -458.7057599887879178 [Eh]
	 Singles Energy            =      -0.0000000000000000 [Eh]
	 Same-Spin Energy          =      -0.5058086672114260 [Eh]
	 Opposite-Spin Energy      =      -1.6854806515875751 [Eh]
	 Correlation Energy        =      -2.1912893187990012 [Eh]
	 Total Energy              =    -460.8970493075869399 [Eh]

	 ================> DF-SCS-MP2 Energies <==================
	-----------------------------------------------------------
	 SCS Same-Spin Scale       =       0.3333333333333333 [-]
	 SCS Opposite-Spin Scale   =       1.2000000000000000 [-]
	 SCS Same-Spin Energy      =      -0.1686028890704753 [Eh]
	 SCS Opposite-Spin Energy  =      -2.0225767819050899 [Eh]
	 SCS Correlation Energy    =      -2.1911796709755653 [Eh]
	 SCS Total Energy          =    -460.8969396597634613 [Eh]
	-----------------------------------------------------------

*** Psi4 exiting successfully. Buy a developer a beer!
