                               Psi4 1.4a2.dev224

  ==> Input File <==

--------------------------------------------------------------------------
#Generated by lconvert.py for cbs job

memory 20 GB

molecule  {
0 1
  C       0.606790    1.330420    0.316440
  H       1.246500    2.202260    0.330350
  C       1.118080    0.087250    0.685120
  H       2.150060   -0.003890    0.993760
  C       0.292900   -1.036090    0.669110
  H       0.688500   -2.000960    0.955380
  C      -1.042830   -0.916710    0.288190
  H      -1.682710   -1.788490    0.279350
  C      -1.553590    0.327350   -0.079940
  H      -2.589230    0.420290   -0.377350
  C      -0.728040    1.450840   -0.066850
  H      -1.123620    2.415660   -0.353860
--
0 1
  C       0.315140   -0.119290    4.942490
  O       1.510630    0.044660    5.019010
  O      -0.264360   -1.330690    5.141930
  H       0.470090   -1.931800    5.334970
  C      -0.706750    0.924640    4.621810
  H      -0.228450    1.895590    4.574990
  H      -1.159550    0.691450    3.659100
  H      -1.491600    0.919110    5.374310
units angstrom
no_reorient
symmetry c1
}

set {
scf_type DF
mp2_type DF
e_convergence 7
reference rhf
}

energy('mp2/aug-cc-pv[tq]z', bsse_type='cp')
--------------------------------------------------------------------------

    Molecular point group: c1
  Charge       = 0
  Multiplicity = 1
  Basis Set: AUG-CC-PVTZ
    Blend: AUG-CC-PVTZ
  Basis Set: (AUG-CC-PVTZ AUX)
    Blend: AUG-CC-PVTZ-JKFIT
  @DF-RHF Final Energy:  -227.90509206871357
    Total Energy =                       -227.9050920687135715
  Basis Set: (AUG-CC-PVTZ AUX)
    Blend: AUG-CC-PVTZ-RI
	 Reference Energy          =    -227.9050920687135715 [Eh]
	 Singles Energy            =      -0.0000000000000000 [Eh]
	 Same-Spin Energy          =      -0.2149630352569674 [Eh]
	 Opposite-Spin Energy      =      -0.6693021424248087 [Eh]
	 Correlation Energy        =      -0.8842651776817760 [Eh]
	 Total Energy              =    -228.7893572463953547 [Eh]
	 SCS Total Energy          =    -228.7799089847090102 [Eh]
    Molecular point group: c1
  Basis Set: AUG-CC-PVQZ
    Blend: AUG-CC-PVQZ
  Basis Set: (AUG-CC-PVQZ AUX)
    Blend: AUG-CC-PVQZ-JKFIT
  @DF-RHF Final Energy:  -227.91981782706753
    Total Energy =                       -227.9198178270675328
  Basis Set: (AUG-CC-PVQZ AUX)
  @DF-RHF Final Energy:  -227.90516595295554
    Total Energy =                       -227.9051659529555423
  @DF-RHF Final Energy:  -227.91984974656600
    Total Energy =                       -227.9198497465660012
  @DF-RHF Final Energy:  -230.78131580409811
    Total Energy =                       -230.7813158040980852
  @DF-RHF Final Energy:  -230.79441569649123
    Total Energy =                       -230.7944156964912281
  @DF-RHF Final Energy:  -230.78122004593970
    Total Energy =                       -230.7812200459396763
  @DF-RHF Final Energy:  -230.79439346048608
    Total Energy =                       -230.7943934604860488
  Multiplicity = 1
  @DF-RHF Final Energy:  -458.68750829364933
    Total Energy =                       -458.6875082936493300
	 Singles Energy            =      -0.0000000000000000 [Eh]
	 Same-Spin Energy          =      -0.4717085665888273 [Eh]
	 Opposite-Spin Energy      =      -1.4901817749935284 [Eh]
	 Correlation Energy        =      -1.9618903415823556 [Eh]
	 Total Energy              =    -460.6493986352317052 [Eh]
	 SCS Total Energy          =    -460.6329626125045138 [Eh]
    Molecular point group: c1

    Geometry (in Angstrom), charge = 0, multiplicity = 1:

       Center              X                  Y                   Z               Mass
    ------------   -----------------  -----------------  -----------------  -----------------
         C            0.637171656416     1.280790422614    -2.001064107505    12.000000000000
         H            1.276881656416     2.152630422614    -1.987154107505     1.007825032230
         C            1.148461656416     0.037620422614    -1.632384107505    12.000000000000
         H            2.180441656416    -0.053519577386    -1.323744107505     1.007825032230
         C            0.323281656416    -1.085719577386    -1.648394107505    12.000000000000
         H            0.718881656416    -2.050589577386    -1.362124107505     1.007825032230
         C           -1.012448343584    -0.966339577386    -2.029314107505    12.000000000000
         H           -1.652328343584    -1.838119577386    -2.038154107505     1.007825032230
         C           -1.523208343584     0.277720422614    -2.397444107505    12.000000000000
         H           -2.558848343584     0.370660422614    -2.694854107505     1.007825032230
         C           -0.697658343584     1.401210422614    -2.384354107505    12.000000000000
         H           -1.093238343584     2.366030422614    -2.671364107505     1.007825032230
         C            0.345521656416    -0.168919577386     2.624985892495    12.000000000000
         O            1.541011656416    -0.004969577386     2.701505892495    15.994914619570
         O           -0.233978343584    -1.380319577386     2.824425892495    15.994914619570
         H            0.500471656416    -1.981429577386     3.017465892495     1.007825032230
         C           -0.676368343584     0.875010422614     2.304305892495    12.000000000000
         H           -0.198068343584     1.845960422614     2.257485892495     1.007825032230
         H           -1.129168343584     0.641820422614     1.341595892495     1.007825032230
         H           -1.461218343584     0.869480422614     3.056805892495     1.007825032230

  Charge       = 0
  Multiplicity = 1
  Basis Set: AUG-CC-PVQZ
    Blend: AUG-CC-PVQZ
  Basis Set: (AUG-CC-PVQZ AUX)
    Blend: AUG-CC-PVQZ-JKFIT

    Orbital Energies [Eh]
    ---------------------

    Doubly Occupied:

       1A    -20.608161     2A    -20.545249     3A    -11.384943
       4A    -11.238086     5A    -11.237968     6A    -11.237303
       7A    -11.236841     8A    -11.236009     9A    -11.235815
      10A    -11.234865    11A     -1.461228    12A     -1.356908
      13A     -1.152617    14A     -1.024925    15A     -1.017035
      16A     -1.016924    17A     -0.826385    18A     -0.826321
      19A     -0.816926    20A     -0.712020    21A     -0.703677
      22A     -0.676556    23A     -0.647132    24A     -0.646363
      25A     -0.621532    26A     -0.590487    27A     -0.590360
      28A     -0.581994    29A     -0.569668    30A     -0.557544
      31A     -0.505220    32A     -0.497266    33A     -0.497214
      34A     -0.481153    35A     -0.452672    36A     -0.339920
      37A     -0.339532

  @DF-RHF Final Energy:  -458.71528769973975

   => Energetics <=

    Nuclear Repulsion Energy =            467.6946816403768139
    One-Electron Energy =               -1551.4103011394038276
    Two-Electron Energy =                 625.0003317992873235
    Total Energy =                       -458.7152876997397470

  Dipole Moment: [D]
     X:    -1.8593      Y:    -0.1600      Z:    -0.3369     Total:     1.8963

  Basis Set: (AUG-CC-PVQZ AUX)
    Blend: AUG-CC-PVQZ-RI
	 Reference Energy          =    -458.7152876997397470 [Eh]
	 Singles Energy            =      -0.0000000000000000 [Eh]
	 Same-Spin Energy          =      -0.4996169041850073 [Eh]
	 Opposite-Spin Energy      =      -1.6778549428484189 [Eh]
	 Correlation Energy        =      -2.1774718470334262 [Eh]
	 Total Energy              =    -460.8927595467731635 [Eh]

	 ================> DF-SCS-MP2 Energies <==================
	-----------------------------------------------------------
	 SCS Same-Spin Scale       =       0.3333333333333333 [-]
	 SCS Opposite-Spin Scale   =       1.2000000000000000 [-]
	 SCS Same-Spin Energy      =      -0.1665389680616691 [Eh]
	 SCS Opposite-Spin Energy  =      -2.0134259314181024 [Eh]
	 SCS Correlation Energy    =      -2.1799648994797716 [Eh]
	 SCS Total Energy          =    -460.8952525992195319 [Eh]
	-----------------------------------------------------------

*** Psi4 exiting successfully. Buy a developer a beer!
