                               Psi4 1.4a2.dev224

  ==> Input File <==

--------------------------------------------------------------------------
#Generated by lconvert.py for cbs job

memory 40 GB

molecule  {
0 1
  C        0.6067850     1.3304220     0.3164350
  H        1.2464980     2.2022640     0.3303520
  C        1.1180850     0.0872490     0.6851170
  H        2.1500580    -0.0038870     0.9937580
  C        0.2929020    -1.0360870     0.6691070
  H        0.6884970    -2.0009610     0.9553780
  C       -1.0428320    -0.9167110     0.2881900
  H       -1.6827100    -1.7884880     0.2793490
  C       -1.5535880     0.3273490    -0.0799430
  H       -2.5892350     0.4202890    -0.3773460
  C       -0.7280420     1.4508430    -0.0668480
  H       -1.1236240     2.4156590    -0.3538610
--
0 1
  C        0.4182210    -0.2705540     4.0317470
  O        1.6137130    -0.1066040     4.1082630
  O       -0.1612810    -1.4819590     4.2311850
  H        0.5731700    -2.0830680     4.4242240
  C       -0.6036640     0.7733770     3.7110660
  H       -0.1253690     1.7443230     3.6642430
  H       -1.0564640     0.5401810     2.7483580
  H       -1.3885150     0.7678410     4.4635650
units angstrom
no_reorient
symmetry c1
}

set {
scf_type DF
mp2_type DF
e_convergence 7
reference rhf
}

energy('mp2/aug-cc-pv[tq]z', bsse_type='cp')
--------------------------------------------------------------------------

    Molecular point group: c1
  Charge       = 0
  Multiplicity = 1
  Basis Set: AUG-CC-PVTZ
    Blend: AUG-CC-PVTZ
  Basis Set: (AUG-CC-PVTZ AUX)
    Blend: AUG-CC-PVTZ-JKFIT
  @DF-RHF Final Energy:  -227.90509173128083
    Total Energy =                       -227.9050917312808338
  Basis Set: (AUG-CC-PVTZ AUX)
    Blend: AUG-CC-PVTZ-RI
	 Reference Energy          =    -227.9050917312808338 [Eh]
	 Singles Energy            =      -0.0000000000000000 [Eh]
	 Same-Spin Energy          =      -0.2149631296396152 [Eh]
	 Opposite-Spin Energy      =      -0.6693023625310455 [Eh]
	 Correlation Energy        =      -0.8842654921706606 [Eh]
	 Total Energy              =    -228.7893572234515034 [Eh]
	 SCS Total Energy          =    -228.7799089428646369 [Eh]
    Molecular point group: c1
  Basis Set: AUG-CC-PVQZ
    Blend: AUG-CC-PVQZ
  Basis Set: (AUG-CC-PVQZ AUX)
    Blend: AUG-CC-PVQZ-JKFIT
  @DF-RHF Final Energy:  -227.91981747320924
    Total Energy =                       -227.9198174732092355
  Basis Set: (AUG-CC-PVQZ AUX)
  @DF-RHF Final Energy:  -227.90527787483427
    Total Energy =                       -227.9052778748342689
  @DF-RHF Final Energy:  -227.91987745342254
    Total Energy =                       -227.9198774534225436
  @DF-RHF Final Energy:  -230.78143592142038
    Total Energy =                       -230.7814359214203819
  @DF-RHF Final Energy:  -230.79444088660028
    Total Energy =                       -230.7944408866002846
  @DF-RHF Final Energy:  -230.78121996674625
    Total Energy =                       -230.7812199667462210
  @DF-RHF Final Energy:  -230.79439338117783
    Total Energy =                       -230.7943933811778265
  Multiplicity = 1
  @DF-RHF Final Energy:  -458.68478276165251
    Total Energy =                       -458.6847827616525137
	 Singles Energy            =      -0.0000000000000000 [Eh]
	 Same-Spin Energy          =      -0.4752310206097619 [Eh]
	 Opposite-Spin Energy      =      -1.4961198162320470 [Eh]
	 Correlation Energy        =      -1.9713508368418089 [Eh]
	 Total Energy              =    -460.6561335984943071 [Eh]
	 SCS Total Energy          =    -460.6385368813342325 [Eh]
    Molecular point group: c1

    Geometry (in Angstrom), charge = 0, multiplicity = 1:

       Center              X                  Y                   Z               Mass
    ------------   -----------------  -----------------  -----------------  -----------------
         C            0.592354778149     1.346550237180    -1.605147880602    12.000000000000
         H            1.232067778149     2.218392237180    -1.591230880602     1.007825032230
         C            1.103654778149     0.103377237180    -1.236465880602    12.000000000000
         H            2.135627778149     0.012241237180    -0.927824880602     1.007825032230
         C            0.278471778149    -1.019958762820    -1.252475880602    12.000000000000
         H            0.674066778149    -1.984832762820    -0.966204880602     1.007825032230
         C           -1.057262221851    -0.900582762820    -1.633392880602    12.000000000000
         H           -1.697140221851    -1.772359762820    -1.642233880602     1.007825032230
         C           -1.568018221851     0.343477237180    -2.001525880602    12.000000000000
         H           -2.603665221851     0.436417237180    -2.298928880602     1.007825032230
         C           -0.742472221851     1.466971237180    -1.988430880602    12.000000000000
         H           -1.138054221851     2.431787237180    -2.275443880602     1.007825032230
         C            0.403790778149    -0.254425762820     2.110164119398    12.000000000000
         O            1.599282778149    -0.090475762820     2.186680119398    15.994914619570
         O           -0.175711221851    -1.465830762820     2.309602119398    15.994914619570
         H            0.558739778149    -2.066939762820     2.502641119398     1.007825032230
         C           -0.618094221851     0.789505237180     1.789483119398    12.000000000000
         H           -0.139799221851     1.760451237180     1.742660119398     1.007825032230
         H           -1.070894221851     0.556309237180     0.826775119398     1.007825032230
         H           -1.402945221851     0.783969237180     2.541982119398     1.007825032230

  Charge       = 0
  Multiplicity = 1
  Basis Set: AUG-CC-PVQZ
    Blend: AUG-CC-PVQZ
  Basis Set: (AUG-CC-PVQZ AUX)
    Blend: AUG-CC-PVQZ-JKFIT

    Orbital Energies [Eh]
    ---------------------

    Doubly Occupied:

       1A    -20.606017     2A    -20.542182     3A    -11.382018
       4A    -11.239453     5A    -11.238793     6A    -11.237864
       7A    -11.237109     8A    -11.236694     9A    -11.235374
      10A    -11.231445    11A     -1.458982    12A     -1.354627
      13A     -1.154658    14A     -1.020411    15A     -1.018702
      16A     -1.018170    17A     -0.827852    18A     -0.827535
      19A     -0.813924    20A     -0.713458    21A     -0.701428
      22A     -0.673307    23A     -0.647413    24A     -0.645475
      25A     -0.622817    26A     -0.591963    27A     -0.591412
      28A     -0.579032    29A     -0.564857    30A     -0.556220
      31A     -0.502356    32A     -0.498622    33A     -0.498315
      34A     -0.479396    35A     -0.449744    36A     -0.342270
      37A     -0.341314

  @DF-RHF Final Energy:  -458.71239416673103

   => Energetics <=

    Nuclear Repulsion Energy =            496.5272288532351581
    One-Electron Energy =               -1609.1168288316434882
    Two-Electron Energy =                 653.8772058116772996
    Total Energy =                       -458.7123941667310874

  Dipole Moment: [D]
     X:    -1.7920      Y:    -0.1685      Z:    -0.4507     Total:     1.8554

  Basis Set: (AUG-CC-PVQZ AUX)
    Blend: AUG-CC-PVQZ-RI
	 Reference Energy          =    -458.7123941667310305 [Eh]
	 Singles Energy            =      -0.0000000000000000 [Eh]
	 Same-Spin Energy          =      -0.5030433909813584 [Eh]
	 Opposite-Spin Energy      =      -1.6820427526505992 [Eh]
	 Correlation Energy        =      -2.1850861436319575 [Eh]
	 Total Energy              =    -460.8974803103629938 [Eh]

	 ================> DF-SCS-MP2 Energies <==================
	-----------------------------------------------------------
	 SCS Same-Spin Scale       =       0.3333333333333333 [-]
	 SCS Opposite-Spin Scale   =       1.2000000000000000 [-]
	 SCS Same-Spin Energy      =      -0.1676811303271195 [Eh]
	 SCS Opposite-Spin Energy  =      -2.0184513031807190 [Eh]
	 SCS Correlation Energy    =      -2.1861324335078383 [Eh]
	 SCS Total Energy          =    -460.8985266002388812 [Eh]
	-----------------------------------------------------------

*** Psi4 exiting successfully. Buy a developer a beer!
