                               Psi4 1.4a2.dev224

  ==> Input File <==

--------------------------------------------------------------------------
#Generated by lconvert.py for cbs job

memory 40 GB

molecule  {
0 1
  C        0.6067850     1.3304220     0.3164350
  H        1.2464980     2.2022640     0.3303520
  C        1.1180850     0.0872490     0.6851170
  H        2.1500580    -0.0038870     0.9937580
  C        0.2929020    -1.0360870     0.6691070
  H        0.6884970    -2.0009610     0.9553780
  C       -1.0428320    -0.9167110     0.2881900
  H       -1.6827100    -1.7884880     0.2793490
  C       -1.5535880     0.3273490    -0.0799430
  H       -2.5892350     0.4202890    -0.3773460
  C       -0.7280420     1.4508430    -0.0668480
  H       -1.1236240     2.4156590    -0.3538610
--
0 1
  C        0.4353960    -0.2957570     3.8800030
  O        1.6308880    -0.1318070     3.9565190
  O       -0.1441060    -1.5071620     4.0794420
  H        0.5903450    -2.1082710     4.2724800
  C       -0.5864880     0.7481740     3.5593220
  H       -0.1081940     1.7191200     3.5125000
  H       -1.0392890     0.5149780     2.5966140
  H       -1.3713390     0.7426380     4.3118220
units angstrom
no_reorient
symmetry c1
}

set {
scf_type DF
mp2_type DF
e_convergence 7
reference rhf
}

energy('mp2/aug-cc-pv[tq]z', bsse_type='cp')
--------------------------------------------------------------------------

    Molecular point group: c1
  Charge       = 0
  Multiplicity = 1
  Basis Set: AUG-CC-PVTZ
    Blend: AUG-CC-PVTZ
  Basis Set: (AUG-CC-PVTZ AUX)
    Blend: AUG-CC-PVTZ-JKFIT
  @DF-RHF Final Energy:  -227.90509173602226
    Total Energy =                       -227.9050917360222570
  Basis Set: (AUG-CC-PVTZ AUX)
    Blend: AUG-CC-PVTZ-RI
	 Reference Energy          =    -227.9050917360222570 [Eh]
	 Singles Energy            =      -0.0000000000000000 [Eh]
	 Same-Spin Energy          =      -0.2149631300624318 [Eh]
	 Opposite-Spin Energy      =      -0.6693023599352899 [Eh]
	 Correlation Energy        =      -0.8842654899977217 [Eh]
	 Total Energy              =    -228.7893572260199733 [Eh]
	 SCS Total Energy          =    -228.7799089446320693 [Eh]
    Molecular point group: c1
  Basis Set: AUG-CC-PVQZ
    Blend: AUG-CC-PVQZ
  Basis Set: (AUG-CC-PVQZ AUX)
    Blend: AUG-CC-PVQZ-JKFIT
  @DF-RHF Final Energy:  -227.91981747773372
    Total Energy =                       -227.9198174777337158
  Basis Set: (AUG-CC-PVQZ AUX)
  @DF-RHF Final Energy:  -227.90530425601770
    Total Energy =                       -227.9053042560177005
  @DF-RHF Final Energy:  -227.91988328370388
    Total Energy =                       -227.9198832837038822
  @DF-RHF Final Energy:  -230.78146845618747
    Total Energy =                       -230.7814684561874401
  @DF-RHF Final Energy:  -230.79444661110239
    Total Energy =                       -230.7944466111023871
  @DF-RHF Final Energy:  -230.78121996961752
    Total Energy =                       -230.7812199696175526
  @DF-RHF Final Energy:  -230.79439337701302
    Total Energy =                       -230.7943933770130229
  Multiplicity = 1
  @DF-RHF Final Energy:  -458.68235673566392
    Total Energy =                       -458.6823567356639160
	 Singles Energy            =      -0.0000000000000000 [Eh]
	 Same-Spin Energy          =      -0.4764622518970514 [Eh]
	 Opposite-Spin Energy      =      -1.4980216351449291 [Eh]
	 Correlation Energy        =      -1.9744838870419805 [Eh]
	 Total Energy              =    -460.6568406227058858 [Eh]
	 SCS Total Energy          =    -460.6388034484701848 [Eh]
    Molecular point group: c1

    Geometry (in Angstrom), charge = 0, multiplicity = 1:

       Center              X                  Y                   Z               Mass
    ------------   -----------------  -----------------  -----------------  -----------------
         C            0.584888346314     1.357506517070    -1.539181668331    12.000000000000
         H            1.224601346314     2.229348517070    -1.525264668331     1.007825032230
         C            1.096188346314     0.114333517070    -1.170499668331    12.000000000000
         H            2.128161346314     0.023197517070    -0.861858668331     1.007825032230
         C            0.271005346314    -1.009002482930    -1.186509668331    12.000000000000
         H            0.666600346314    -1.973876482930    -0.900238668331     1.007825032230
         C           -1.064728653686    -0.889626482930    -1.567426668331    12.000000000000
         H           -1.704606653686    -1.761403482930    -1.576267668331     1.007825032230
         C           -1.575484653686     0.354433517070    -1.935559668331    12.000000000000
         H           -2.611131653686     0.447373517070    -2.232962668331     1.007825032230
         C           -0.749938653686     1.477927517070    -1.922464668331    12.000000000000
         H           -1.145520653686     2.442743517070    -2.209477668331     1.007825032230
         C            0.413499346314    -0.268672482930     2.024386331669    12.000000000000
         O            1.608991346314    -0.104722482930     2.100902331669    15.994914619570
         O           -0.166002653686    -1.480077482930     2.223825331669    15.994914619570
         H            0.568448346314    -2.081186482930     2.416863331669     1.007825032230
         C           -0.608384653686     0.775258517070     1.703705331669    12.000000000000
         H           -0.130090653686     1.746204517070     1.656883331669     1.007825032230
         H           -1.061185653686     0.542062517070     0.740997331669     1.007825032230
         H           -1.393235653686     0.769722517070     2.456205331669     1.007825032230

  Charge       = 0
  Multiplicity = 1
  Basis Set: AUG-CC-PVQZ
    Blend: AUG-CC-PVQZ
  Basis Set: (AUG-CC-PVQZ AUX)
    Blend: AUG-CC-PVQZ-JKFIT

    Orbital Energies [Eh]
    ---------------------

    Doubly Occupied:

       1A    -20.605599     2A    -20.541406     3A    -11.381375
       4A    -11.239687     5A    -11.239037     6A    -11.238033
       7A    -11.237165     8A    -11.236722     9A    -11.235330
      10A    -11.229530    11A     -1.458598    12A     -1.354220
      13A     -1.155245    14A     -1.020098    15A     -1.019032
      16A     -1.017827    17A     -0.828198    18A     -0.827781
      19A     -0.813316    20A     -0.713844    21A     -0.701018
      22A     -0.672646    23A     -0.647644    24A     -0.645812
      25A     -0.623037    26A     -0.592291    27A     -0.591625
      28A     -0.578442    29A     -0.563758    30A     -0.556969
      31A     -0.499883    32A     -0.498991    33A     -0.498520
      34A     -0.479106    35A     -0.449067    36A     -0.342774
      37A     -0.341622

  @DF-RHF Final Energy:  -458.70992182594443

   => Energetics <=

    Nuclear Repulsion Energy =            502.3808854394287664
    One-Electron Energy =               -1620.8311241288686233
    Two-Electron Energy =                 659.7403168634954227
    Total Energy =                       -458.7099218259444342

  Dipole Moment: [D]
     X:    -1.7780      Y:    -0.1711      Z:    -0.4700     Total:     1.8470

  Basis Set: (AUG-CC-PVQZ AUX)
    Blend: AUG-CC-PVQZ-RI
	 Reference Energy          =    -458.7099218259444342 [Eh]
	 Singles Energy            =      -0.0000000000000000 [Eh]
	 Same-Spin Energy          =      -0.5042539741088822 [Eh]
	 Opposite-Spin Energy      =      -1.6835412952440132 [Eh]
	 Correlation Energy        =      -2.1877952693528955 [Eh]
	 Total Energy              =    -460.8977170952973097 [Eh]

	 ================> DF-SCS-MP2 Energies <==================
	-----------------------------------------------------------
	 SCS Same-Spin Scale       =       0.3333333333333333 [-]
	 SCS Opposite-Spin Scale   =       1.2000000000000000 [-]
	 SCS Same-Spin Energy      =      -0.1680846580362940 [Eh]
	 SCS Opposite-Spin Energy  =      -2.0202495542928158 [Eh]
	 SCS Correlation Energy    =      -2.1883342123291101 [Eh]
	 SCS Total Energy          =    -460.8982560382735301 [Eh]
	-----------------------------------------------------------

*** Psi4 exiting successfully. Buy a developer a beer!
