                               Psi4 1.4a2.dev224

  ==> Input File <==

--------------------------------------------------------------------------
#Generated by lconvert.py for cbs job

memory 40 GB

molecule  {
0 1
  C        0.6067850     1.3304220     0.3164350
  H        1.2464980     2.2022640     0.3303520
  C        1.1180850     0.0872490     0.6851170
  H        2.1500580    -0.0038870     0.9937580
  C        0.2929020    -1.0360870     0.6691070
  H        0.6884970    -2.0009610     0.9553780
  C       -1.0428320    -0.9167110     0.2881900
  H       -1.6827100    -1.7884880     0.2793490
  C       -1.5535880     0.3273490    -0.0799430
  H       -2.5892350     0.4202890    -0.3773460
  C       -0.7280420     1.4508430    -0.0668480
  H       -1.1236240     2.4156590    -0.3538610
--
0 1
  C        0.5223780    -0.4233970     3.1115090
  O        1.7178710    -0.2594460     3.1880250
  O       -0.0571240    -1.6348020     3.3109480
  H        0.6773270    -2.2359100     3.5039860
  C       -0.4995060     0.6205350     2.7908280
  H       -0.0212120     1.5914810     2.7440050
  H       -0.9523060     0.3873390     1.8281200
  H       -1.2843570     0.6149980     3.5433280
units angstrom
no_reorient
symmetry c1
}

set {
scf_type DF
mp2_type DF
e_convergence 7
reference rhf
}

energy('mp2/aug-cc-pv[tq]z', bsse_type='cp')
--------------------------------------------------------------------------

    Molecular point group: c1
  Charge       = 0
  Multiplicity = 1
  Basis Set: AUG-CC-PVTZ
    Blend: AUG-CC-PVTZ
  Basis Set: (AUG-CC-PVTZ AUX)
    Blend: AUG-CC-PVTZ-JKFIT
  @DF-RHF Final Energy:  -227.90509164791115
    Total Energy =                       -227.9050916479111493
  Basis Set: (AUG-CC-PVTZ AUX)
    Blend: AUG-CC-PVTZ-RI
	 Reference Energy          =    -227.9050916479111493 [Eh]
	 Singles Energy            =      -0.0000000000000000 [Eh]
	 Same-Spin Energy          =      -0.2149631472811079 [Eh]
	 Opposite-Spin Energy      =      -0.6693024139333472 [Eh]
	 Correlation Energy        =      -0.8842655612144552 [Eh]
	 Total Energy              =    -228.7893572091255976 [Eh]
	 SCS Total Energy          =    -228.7799089270582158 [Eh]
    Molecular point group: c1
  Basis Set: AUG-CC-PVQZ
    Blend: AUG-CC-PVQZ
  Basis Set: (AUG-CC-PVQZ AUX)
    Blend: AUG-CC-PVQZ-JKFIT
  @DF-RHF Final Energy:  -227.91981738403615
    Total Energy =                       -227.9198173840361505
  Basis Set: (AUG-CC-PVQZ AUX)
  @DF-RHF Final Energy:  -227.90548270245512
    Total Energy =                       -227.9054827024551173
  @DF-RHF Final Energy:  -227.91992191357409
    Total Energy =                       -227.9199219135740861
  @DF-RHF Final Energy:  -230.78165325374107
    Total Energy =                       -230.7816532537410694
  @DF-RHF Final Energy:  -230.79448024508847
    Total Energy =                       -230.7944802450884936
  @DF-RHF Final Energy:  -230.78121997227476
    Total Energy =                       -230.7812199722747550
  @DF-RHF Final Energy:  -230.79439338257549
    Total Energy =                       -230.7943933825754925
  @DF-RHF Final Energy:  -458.61630855378257
    Total Energy =                       -458.6163085537825737
  @DF-RHF Final Energy:  -458.64361021798436
    Total Energy =                       -458.6436102179843601
*** Psi4 exiting successfully. Buy a developer a beer!
                               Psi4 1.4a2.dev224
  @DF-RHF Final Energy:  -227.90509171662586
    Total Energy =                       -227.9050917166258614
  @DF-RHF Final Energy:  -227.91981745704635
    Total Energy =                       -227.9198174570463493
  @DF-RHF Final Energy:  -227.90539985591204
    Total Energy =                       -227.9053998559120373
  @DF-RHF Final Energy:  -227.91990374815225
    Total Energy =                       -227.9199037481522510
  @DF-RHF Final Energy:  -230.78157241662100
    Total Energy =                       -230.7815724166209748
  @DF-RHF Final Energy:  -230.79446789100405
    Total Energy =                       -230.7944678910040466
  @DF-RHF Final Energy:  -230.78121997037789
    Total Energy =                       -230.7812199703778901
  @DF-RHF Final Energy:  -230.79439338045722
    Total Energy =                       -230.7943933804572225
  @DF-RHF Final Energy:  -458.66035536144489
    Total Energy =                       -458.6603553614448856
  @DF-RHF Final Energy:  -458.68776607068730
    Total Energy =                       -458.6877660706873030
*** Psi4 exiting successfully. Buy a developer a beer!
                               Psi4 1.4a2.dev224
                               Psi4 1.4a2.dev224
                               Psi4 1.4a2.dev224
                               Psi4 1.4a2.dev224
                               Psi4 1.4a2.dev224
                               Psi4 1.4a2.dev224
                               Psi4 1.4a2.dev224
  @DF-RHF Final Energy:  -227.90509206648960
    Total Energy =                       -227.9050920664896012
  @DF-RHF Final Energy:  -227.91981782824035
    Total Energy =                       -227.9198178282403546
  @DF-RHF Final Energy:  -227.90511973668481
    Total Energy =                       -227.9051197366848101
  @DF-RHF Final Energy:  -227.91983261935050
    Total Energy =                       -227.9198326193505011
  @DF-RHF Final Energy:  -230.78126316424729
    Total Energy =                       -230.7812631642472638
  @DF-RHF Final Energy:  -230.79440563656544
    Total Energy =                       -230.7944056365654433
  @DF-RHF Final Energy:  -230.78122004994478
    Total Energy =                       -230.7812200499447499
  @DF-RHF Final Energy:  -230.79439346177270
    Total Energy =                       -230.7943934617726995
  @DF-RHF Final Energy:  -458.68698911242694
    Total Energy =                       -458.6869891124268861
  @DF-RHF Final Energy:  -458.71483929801525
    Total Energy =                       -458.7148392980152494
*** Psi4 exiting successfully. Buy a developer a beer!
                               Psi4 1.4a2.dev224
  @DF-RHF Final Energy:  -227.90509102587910
    Total Energy =                       -227.9050910258791021
  @DF-RHF Final Energy:  -227.91981672287275
    Total Energy =                       -227.9198167228727527
  @DF-RHF Final Energy:  -227.90510298466918
    Total Energy =                       -227.9051029846691847
  @DF-RHF Final Energy:  -227.91982243696887
    Total Energy =                       -227.9198224369688717
  @DF-RHF Final Energy:  -230.78124492956348
    Total Energy =                       -230.7812449295635133
  @DF-RHF Final Energy:  -230.79440043020517
    Total Energy =                       -230.7944004302052008
  @DF-RHF Final Energy:  -230.78122004949185
    Total Energy =                       -230.7812200494918216
  @DF-RHF Final Energy:  -230.79439346085778
    Total Energy =                       -230.7943934608577479
  Multiplicity = 1
  @DF-RHF Final Energy:  -458.68667007023623
    Total Energy =                       -458.6866700702362323
	 Singles Energy            =      -0.0000000000000000 [Eh]
	 Same-Spin Energy          =      -0.4705079295850668 [Eh]
	 Opposite-Spin Energy      =      -1.4880280082157959 [Eh]
	 Correlation Energy        =      -1.9585359378008627 [Eh]
	 Total Energy              =    -460.6452060080371211 [Eh]
	 SCS Total Energy          =    -460.6291396566235221 [Eh]
    Molecular point group: c1

    Geometry (in Angstrom), charge = 0, multiplicity = 1:

       Center              X                  Y                   Z               Mass
    ------------   -----------------  -----------------  -----------------  -----------------
         C            0.727287126795     1.148549666100    -2.797248340982    12.000000000000
         H            1.366997126795     2.020389666100    -2.783338340982     1.007825032230
         C            1.238577126795    -0.094620333900    -2.428568340982    12.000000000000
         H            2.270557126795    -0.185760333900    -2.119928340982     1.007825032230
         C            0.413397126795    -1.217960333900    -2.444578340982    12.000000000000
         H            0.808997126795    -2.182830333900    -2.158308340982     1.007825032230
         C           -0.922332873205    -1.098580333900    -2.825498340982    12.000000000000
         H           -1.562212873205    -1.970360333900    -2.834338340982     1.007825032230
         C           -1.433092873205     0.145479666100    -3.193628340982    12.000000000000
         H           -2.468732873205     0.238419666100    -3.491038340982     1.007825032230
         C           -0.607542873205     1.268969666100    -3.180538340982    12.000000000000
         H           -1.003122873205     2.233789666100    -3.467548340982     1.007825032230
         C            0.228337126795     0.003039666100     3.660291659018    12.000000000000
         O            1.423837126795     0.166989666100     3.736801659018    15.994914619570
         O           -0.351162873205    -1.208370333900     3.859721659018    15.994914619570
         H            0.383287126795    -1.809480333900     4.052761659018     1.007825032230
         C           -0.793542873205     1.046969666100     3.339601659018    12.000000000000
         H           -0.315242873205     2.017909666100     3.292781659018     1.007825032230
         H           -1.246342873205     0.813769666100     2.376901659018     1.007825032230
         H           -1.578392873205     1.041429666100     4.092101659018     1.007825032230

  Charge       = 0
  Multiplicity = 1
  Basis Set: AUG-CC-PVQZ
    Blend: AUG-CC-PVQZ
  Basis Set: (AUG-CC-PVQZ AUX)
    Blend: AUG-CC-PVQZ-JKFIT

    Orbital Energies [Eh]
    ---------------------

    Doubly Occupied:

       1A    -20.610531     2A    -20.548010     3A    -11.387744
       4A    -11.242756     5A    -11.236329     6A    -11.235705
       7A    -11.235576     8A    -11.234464     9A    -11.234415
      10A    -11.233708    11A     -1.463741    12A     -1.359428
      13A     -1.150929    14A     -1.029060    15A     -1.015468
      16A     -1.015400    17A     -0.824974    18A     -0.824930
      19A     -0.819883    20A     -0.710642    21A     -0.706152
      22A     -0.679685    23A     -0.650402    24A     -0.645169
      25A     -0.620067    26A     -0.589158    27A     -0.588989
      28A     -0.584935    29A     -0.573710    30A     -0.561544
      31A     -0.503515    32A     -0.496072    33A     -0.495807
      34A     -0.483488    35A     -0.455444    36A     -0.337954
      37A     -0.337884

  @DF-RHF Final Energy:  -458.71454269967313

   => Energetics <=

    Nuclear Repulsion Energy =            430.7044824410896240
    One-Electron Energy =               -1477.3906998073416617
    Two-Electron Energy =                 587.9716746665790197
    Total Energy =                       -458.7145426996730748

  Dipole Moment: [D]
     X:    -1.9295      Y:    -0.1527      Z:    -0.2177     Total:     1.9477

  Basis Set: (AUG-CC-PVQZ AUX)
    Blend: AUG-CC-PVQZ-RI
	 Reference Energy          =    -458.7145426996731317 [Eh]
	 Singles Energy            =      -0.0000000000000000 [Eh]
	 Same-Spin Energy          =      -0.4985026234547260 [Eh]
	 Opposite-Spin Energy      =      -1.6765270947581821 [Eh]
	 Correlation Energy        =      -2.1750297182129081 [Eh]
	 Total Energy              =    -460.8895724178860291 [Eh]

	 ================> DF-SCS-MP2 Energies <==================
	-----------------------------------------------------------
	 SCS Same-Spin Scale       =       0.3333333333333333 [-]
	 SCS Opposite-Spin Scale   =       1.2000000000000000 [-]
	 SCS Same-Spin Energy      =      -0.1661675411515753 [Eh]
	 SCS Opposite-Spin Energy  =      -2.0118325137098183 [Eh]
	 SCS Correlation Energy    =      -2.1780000548613936 [Eh]
	 SCS Total Energy          =    -460.8925427545345315 [Eh]
	-----------------------------------------------------------

*** Psi4 exiting successfully. Buy a developer a beer!
