                               Psi4 1.4a2.dev224

  ==> Input File <==

--------------------------------------------------------------------------
#Generated by lconvert.py for cbs job

memory 40 GB

molecule  {
0 1
  C        0.6067850     1.3304220     0.3164350
  H        1.2464980     2.2022640     0.3303520
  C        1.1180850     0.0872490     0.6851170
  H        2.1500580    -0.0038870     0.9937580
  C        0.2929020    -1.0360870     0.6691070
  H        0.6884970    -2.0009610     0.9553780
  C       -1.0428320    -0.9167110     0.2881900
  H       -1.6827100    -1.7884880     0.2793490
  C       -1.5535880     0.3273490    -0.0799430
  H       -2.5892350     0.4202890    -0.3773460
  C       -0.7280420     1.4508430    -0.0668480
  H       -1.1236240     2.4156590    -0.3538610
--
0 1
  C        0.3842360    -0.2206850     4.3320000
  O        1.5797290    -0.0567350     4.4085160
  O       -0.1952650    -1.4320900     4.5314380
  H        0.5391860    -2.0331990     4.7244760
  C       -0.6376480     0.8232460     4.0113190
  H       -0.1593530     1.7941920     3.9644960
  H       -1.0904480     0.5900500     3.0486110
  H       -1.4224990     0.8177100     4.7638180
units angstrom
no_reorient
symmetry c1
}

set {
scf_type DF
mp2_type DF
e_convergence 7
reference rhf
}

energy('mp2/aug-cc-pv[tq]z', bsse_type='cp')
--------------------------------------------------------------------------

    Molecular point group: c1
  Charge       = 0
  Multiplicity = 1
  Basis Set: AUG-CC-PVTZ
    Blend: AUG-CC-PVTZ
  Basis Set: (AUG-CC-PVTZ AUX)
    Blend: AUG-CC-PVTZ-JKFIT
  @DF-RHF Final Energy:  -227.90509168081263
    Total Energy =                       -227.9050916808126317
  Basis Set: (AUG-CC-PVTZ AUX)
    Blend: AUG-CC-PVTZ-RI
	 Reference Energy          =    -227.9050916808126317 [Eh]
	 Singles Energy            =      -0.0000000000000000 [Eh]
	 Same-Spin Energy          =      -0.2149631477798171 [Eh]
	 Opposite-Spin Energy      =      -0.6693023919734067 [Eh]
	 Correlation Energy        =      -0.8842655397532238 [Eh]
	 Total Energy              =    -228.7893572205658472 [Eh]
	 SCS Total Energy          =    -228.7799089337739815 [Eh]
    Molecular point group: c1
  Basis Set: AUG-CC-PVQZ
    Blend: AUG-CC-PVQZ
  Basis Set: (AUG-CC-PVQZ AUX)
    Blend: AUG-CC-PVQZ-JKFIT
  @DF-RHF Final Energy:  -227.91981741744578
    Total Energy =                       -227.9198174174457847
  Basis Set: (AUG-CC-PVQZ AUX)
  @DF-RHF Final Energy:  -227.90523204613365
    Total Energy =                       -227.9052320461336478
  @DF-RHF Final Energy:  -227.91986723880049
    Total Energy =                       -227.9198672388004923
  @DF-RHF Final Energy:  -230.78138066772064
    Total Energy =                       -230.7813806677206685
  @DF-RHF Final Energy:  -230.79443105057126
    Total Energy =                       -230.7944310505712338
  @DF-RHF Final Energy:  -230.78121997244429
    Total Energy =                       -230.7812199724443190
  @DF-RHF Final Energy:  -230.79439337576559
    Total Energy =                       -230.7943933757655941
  Multiplicity = 1
  @DF-RHF Final Energy:  -458.68694497925185
    Total Energy =                       -458.6869449792518481
	 Singles Energy            =      -0.0000000000000000 [Eh]
	 Same-Spin Energy          =      -0.4735034880537647 [Eh]
	 Opposite-Spin Energy      =      -1.4933196478628681 [Eh]
	 Correlation Energy        =      -1.9668231359166328 [Eh]
	 Total Energy              =    -460.6537681151684751 [Eh]
	 SCS Total Energy          =    -460.6367630527051915 [Eh]
    Molecular point group: c1

    Geometry (in Angstrom), charge = 0, multiplicity = 1:

       Center              X                  Y                   Z               Mass
    ------------   -----------------  -----------------  -----------------  -----------------
         C            0.607128432327     1.324871122718    -1.735674235467    12.000000000000
         H            1.246841432327     2.196713122718    -1.721757235467     1.007825032230
         C            1.118428432327     0.081698122718    -1.366992235467    12.000000000000
         H            2.150401432327    -0.009437877282    -1.058351235467     1.007825032230
         C            0.293245432327    -1.041637877282    -1.383002235467    12.000000000000
         H            0.688840432327    -2.006511877282    -1.096731235467     1.007825032230
         C           -1.042488567673    -0.922261877282    -1.763919235467    12.000000000000
         H           -1.682366567673    -1.794038877282    -1.772760235467     1.007825032230
         C           -1.553244567673     0.321798122718    -2.132052235467    12.000000000000
         H           -2.588891567673     0.414738122718    -2.429455235467     1.007825032230
         C           -0.727698567673     1.445292122718    -2.118957235467    12.000000000000
         H           -1.123280567673     2.410108122718    -2.405970235467     1.007825032230
         C            0.384579432327    -0.226235877282     2.279890764533    12.000000000000
         O            1.580072432327    -0.062285877282     2.356406764533    15.994914619570
         O           -0.194921567673    -1.437640877282     2.479328764533    15.994914619570
         H            0.539529432327    -2.038749877282     2.672366764533     1.007825032230
         C           -0.637304567673     0.817695122718     1.959209764533    12.000000000000
         H           -0.159009567673     1.788641122718     1.912386764533     1.007825032230
         H           -1.090104567673     0.584499122718     0.996501764533     1.007825032230
         H           -1.422155567673     0.812159122718     2.711708764533     1.007825032230

  Charge       = 0
  Multiplicity = 1
  Basis Set: AUG-CC-PVQZ
    Blend: AUG-CC-PVQZ
  Basis Set: (AUG-CC-PVQZ AUX)
    Blend: AUG-CC-PVQZ-JKFIT

    Orbital Energies [Eh]
    ---------------------

    Doubly Occupied:

       1A    -20.606799     2A    -20.543431     3A    -11.383152
       4A    -11.238948     5A    -11.238278     6A    -11.237517
       7A    -11.236831     8A    -11.236484     9A    -11.235314
      10A    -11.234346    11A     -1.459772    12A     -1.355441
      13A     -1.153801    14A     -1.022028    15A     -1.018087
      16A     -1.017823    17A     -0.827289    18A     -0.827099
      19A     -0.815051    20A     -0.712882    21A     -0.702237
      22A     -0.674536    23A     -0.647032    24A     -0.645636
      25A     -0.622377    26A     -0.591410    27A     -0.591037
      28A     -0.580141    29A     -0.566775    30A     -0.555933
      31A     -0.504764    32A     -0.498075    33A     -0.497933
      34A     -0.479970    35A     -0.450894    36A     -0.341352
      37A     -0.340663

  @DF-RHF Final Energy:  -458.71463420503142

   => Energetics <=

    Nuclear Repulsion Energy =            485.9212310022935526
    One-Electron Energy =               -1587.8894528390146661
    Two-Electron Energy =                 643.2535876316896974
    Total Energy =                       -458.7146342050314161

  Dipole Moment: [D]
     X:    -1.8172      Y:    -0.1648      Z:    -0.4113     Total:     1.8704

  Basis Set: (AUG-CC-PVQZ AUX)
    Blend: AUG-CC-PVQZ-RI
	 Reference Energy          =    -458.7146342050314161 [Eh]
	 Singles Energy            =      -0.0000000000000000 [Eh]
	 Same-Spin Energy          =      -0.5013524482789427 [Eh]
	 Opposite-Spin Energy      =      -1.6799600455086250 [Eh]
	 Correlation Energy        =      -2.1813124937875674 [Eh]
	 Total Energy              =    -460.8959466988189888 [Eh]

	 ================> DF-SCS-MP2 Energies <==================
	-----------------------------------------------------------
	 SCS Same-Spin Scale       =       0.3333333333333333 [-]
	 SCS Opposite-Spin Scale   =       1.2000000000000000 [-]
	 SCS Same-Spin Energy      =      -0.1671174827596476 [Eh]
	 SCS Opposite-Spin Energy  =      -2.0159520546103500 [Eh]
	 SCS Correlation Energy    =      -2.1830695373699975 [Eh]
	 SCS Total Energy          =    -460.8977037424014043 [Eh]
	-----------------------------------------------------------

*** Psi4 exiting successfully. Buy a developer a beer!
