                               Psi4 1.4a2.dev224

  ==> Input File <==

--------------------------------------------------------------------------
#Generated by lconvert.py for cbs job

memory 40 GB

molecule  {
0 1
  C        0.6067850     1.3304220     0.3164350
  H        1.2464980     2.2022640     0.3303520
  C        1.1180850     0.0872490     0.6851170
  H        2.1500580    -0.0038870     0.9937580
  C        0.2929020    -1.0360870     0.6691070
  H        0.6884970    -2.0009610     0.9553780
  C       -1.0428320    -0.9167110     0.2881900
  H       -1.6827100    -1.7884880     0.2793490
  C       -1.5535880     0.3273490    -0.0799430
  H       -2.5892350     0.4202890    -0.3773460
  C       -0.7280420     1.4508430    -0.0668480
  H       -1.1236240     2.4156590    -0.3538610
--
0 1
  C        0.4878290    -0.3726980     3.4167560
  O        1.6833210    -0.2087470     3.4932720
  O       -0.0916730    -1.5841030     3.6161940
  H        0.6427780    -2.1852120     3.8092320
  C       -0.5340560     0.6712330     3.0960750
  H       -0.0557610     1.6421800     3.0492520
  H       -0.9868560     0.4380370     2.1333670
  H       -1.3189070     0.6656970     3.8485740
units angstrom
no_reorient
symmetry c1
}

set {
scf_type DF
mp2_type DF
e_convergence 7
reference rhf
}

energy('mp2/aug-cc-pv[tq]z', bsse_type='cp')
--------------------------------------------------------------------------

    Molecular point group: c1
  Charge       = 0
  Multiplicity = 1
  Basis Set: AUG-CC-PVTZ
    Blend: AUG-CC-PVTZ
  Basis Set: (AUG-CC-PVTZ AUX)
    Blend: AUG-CC-PVTZ-JKFIT
  @DF-RHF Final Energy:  -227.90509171662586
    Total Energy =                       -227.9050917166258614
  Basis Set: (AUG-CC-PVTZ AUX)
    Blend: AUG-CC-PVTZ-RI
	 Reference Energy          =    -227.9050917166258614 [Eh]
	 Singles Energy            =      -0.0000000000000000 [Eh]
	 Same-Spin Energy          =      -0.2149631312965026 [Eh]
	 Opposite-Spin Energy      =      -0.6693023740536389 [Eh]
	 Correlation Energy        =      -0.8842655053501416 [Eh]
	 Total Energy              =    -228.7893572219759903 [Eh]
	 SCS Total Energy          =    -228.7799089425890600 [Eh]
    Molecular point group: c1
  Basis Set: AUG-CC-PVQZ
    Blend: AUG-CC-PVQZ
  Basis Set: (AUG-CC-PVQZ AUX)
    Blend: AUG-CC-PVQZ-JKFIT
  @DF-RHF Final Energy:  -227.91981745704635
    Total Energy =                       -227.9198174570463493
  Basis Set: (AUG-CC-PVQZ AUX)
  @DF-RHF Final Energy:  -227.90539985591204
    Total Energy =                       -227.9053998559120373
  @DF-RHF Final Energy:  -227.91990374815225
    Total Energy =                       -227.9199037481522510
  @DF-RHF Final Energy:  -230.78157241662100
    Total Energy =                       -230.7815724166209748
  @DF-RHF Final Energy:  -230.79446789100405
    Total Energy =                       -230.7944678910040466
  @DF-RHF Final Energy:  -230.78121997037789
    Total Energy =                       -230.7812199703778901
  @DF-RHF Final Energy:  -230.79439338045722
    Total Energy =                       -230.7943933804572225
  Multiplicity = 1
  @DF-RHF Final Energy:  -458.66035536144489
    Total Energy =                       -458.6603553614448856
	 Singles Energy            =      -0.0000000000000000 [Eh]
	 Same-Spin Energy          =      -0.4826323577595768 [Eh]
	 Opposite-Spin Energy      =      -1.5071874168624930 [Eh]
	 Correlation Energy        =      -1.9898197746220698 [Eh]
	 Total Energy              =    -460.6501751360669346 [Eh]
	 SCS Total Energy          =    -460.6298577142663930 [Eh]
    Molecular point group: c1

    Geometry (in Angstrom), charge = 0, multiplicity = 1:

       Center              X                  Y                   Z               Mass
    ------------   -----------------  -----------------  -----------------  -----------------
         C            0.562094700756     1.390954282307    -1.337798211538    12.000000000000
         H            1.201807700756     2.262796282307    -1.323881211538     1.007825032230
         C            1.073394700756     0.147781282307    -0.969116211538    12.000000000000
         H            2.105367700756     0.056645282307    -0.660475211538     1.007825032230
         C            0.248211700756    -0.975554717693    -0.985126211538    12.000000000000
         H            0.643806700756    -1.940428717693    -0.698855211538     1.007825032230
         C           -1.087522299244    -0.856178717693    -1.366043211538    12.000000000000
         H           -1.727400299244    -1.727955717693    -1.374884211538     1.007825032230
         C           -1.598278299244     0.387881282307    -1.734176211538    12.000000000000
         H           -2.633925299244     0.480821282307    -2.031579211538     1.007825032230
         C           -0.772732299244     1.511375282307    -1.721081211538    12.000000000000
         H           -1.168314299244     2.476191282307    -2.008094211538     1.007825032230
         C            0.443138700756    -0.312165717693     1.762522788462    12.000000000000
         O            1.638630700756    -0.148214717693     1.839038788462    15.994914619570
         O           -0.136363299244    -1.523570717693     1.961960788462    15.994914619570
         H            0.598087700756    -2.124679717693     2.154998788462     1.007825032230
         C           -0.578746299244     0.731765282307     1.441841788462    12.000000000000
         H           -0.100451299244     1.702712282307     1.395018788462     1.007825032230
         H           -1.031546299244     0.498569282307     0.479133788462     1.007825032230
         H           -1.363597299244     0.726229282307     2.194340788462     1.007825032230

  Charge       = 0
  Multiplicity = 1
  Basis Set: AUG-CC-PVQZ
    Blend: AUG-CC-PVQZ
  Basis Set: (AUG-CC-PVQZ AUX)
    Blend: AUG-CC-PVQZ-JKFIT

    Orbital Energies [Eh]
    ---------------------

    Doubly Occupied:

       1A    -20.604196     2A    -20.537942     3A    -11.379176
       4A    -11.240222     5A    -11.239586     6A    -11.238383
       7A    -11.236992     8A    -11.236322     9A    -11.234898
      10A    -11.220501    11A     -1.457873    12A     -1.353306
      13A     -1.158880    14A     -1.022480    15A     -1.020737
      16A     -1.013793    17A     -0.830097    18A     -0.828952
      19A     -0.811428    20A     -0.716298    21A     -0.700057
      22A     -0.670795    23A     -0.651017    24A     -0.648301
      25A     -0.623828    26A     -0.594086    27A     -0.592730
      28A     -0.576856    29A     -0.561693    30A     -0.559981
      31A     -0.501614    32A     -0.499315    33A     -0.483820
      34A     -0.477364    35A     -0.446240    36A     -0.344101
      37A     -0.341763

  @DF-RHF Final Energy:  -458.68776607068730

   => Energetics <=

    Nuclear Repulsion Energy =            522.6708386763070848
    One-Electron Energy =               -1661.4059711353572766
    Two-Electron Energy =                 680.0473663883628888
    Total Energy =                       -458.6877660706873030

  Dipole Moment: [D]
     X:    -1.7282      Y:    -0.1838      Z:    -0.5249     Total:     1.8155

  Basis Set: (AUG-CC-PVQZ AUX)
    Blend: AUG-CC-PVQZ-RI
	 Reference Energy          =    -458.6877660706873030 [Eh]
	 Singles Energy            =      -0.0000000000000000 [Eh]
	 Same-Spin Energy          =      -0.5103604683269020 [Eh]
	 Opposite-Spin Energy      =      -1.6912559910152816 [Eh]
	 Correlation Energy        =      -2.2016164593421834 [Eh]
	 Total Energy              =    -460.8893825300294793 [Eh]

	 ================> DF-SCS-MP2 Energies <==================
	-----------------------------------------------------------
	 SCS Same-Spin Scale       =       0.3333333333333333 [-]
	 SCS Opposite-Spin Scale   =       1.2000000000000000 [-]
	 SCS Same-Spin Energy      =      -0.1701201561089673 [Eh]
	 SCS Opposite-Spin Energy  =      -2.0295071892183376 [Eh]
	 SCS Correlation Energy    =      -2.1996273453273050 [Eh]
	 SCS Total Energy          =    -460.8873934160146177 [Eh]
	-----------------------------------------------------------

*** Psi4 exiting successfully. Buy a developer a beer!
