                               Psi4 1.4a2.dev224

  ==> Input File <==

--------------------------------------------------------------------------
#Generated by lconvert.py for cbs job

memory 40 GB

molecule  {
0 1
  C        0.6067850     1.3304220     0.3164350
  H        1.2464980     2.2022640     0.3303520
  C        1.1180850     0.0872490     0.6851170
  H        2.1500580    -0.0038870     0.9937580
  C        0.2929020    -1.0360870     0.6691070
  H        0.6884970    -2.0009610     0.9553780
  C       -1.0428320    -0.9167110     0.2881900
  H       -1.6827100    -1.7884880     0.2793490
  C       -1.5535880     0.3273490    -0.0799430
  H       -2.5892350     0.4202890    -0.3773460
  C       -0.7280420     1.4508430    -0.0668480
  H       -1.1236240     2.4156590    -0.3538610
--
0 1
  C        0.5223780    -0.4233970     3.1115090
  O        1.7178710    -0.2594460     3.1880250
  O       -0.0571240    -1.6348020     3.3109480
  H        0.6773270    -2.2359100     3.5039860
  C       -0.4995060     0.6205350     2.7908280
  H       -0.0212120     1.5914810     2.7440050
  H       -0.9523060     0.3873390     1.8281200
  H       -1.2843570     0.6149980     3.5433280
units angstrom
no_reorient
symmetry c1
}

set {
scf_type DF
mp2_type DF
e_convergence 7
reference rhf
}

energy('mp2/aug-cc-pv[tq]z', bsse_type='cp')
--------------------------------------------------------------------------

    Molecular point group: c1
  Charge       = 0
  Multiplicity = 1
  Basis Set: AUG-CC-PVTZ
    Blend: AUG-CC-PVTZ
  Basis Set: (AUG-CC-PVTZ AUX)
    Blend: AUG-CC-PVTZ-JKFIT
  @DF-RHF Final Energy:  -227.90509164791115
    Total Energy =                       -227.9050916479111493
  Basis Set: (AUG-CC-PVTZ AUX)
    Blend: AUG-CC-PVTZ-RI
	 Reference Energy          =    -227.9050916479111493 [Eh]
	 Singles Energy            =      -0.0000000000000000 [Eh]
	 Same-Spin Energy          =      -0.2149631472811079 [Eh]
	 Opposite-Spin Energy      =      -0.6693024139333472 [Eh]
	 Correlation Energy        =      -0.8842655612144552 [Eh]
	 Total Energy              =    -228.7893572091255976 [Eh]
	 SCS Total Energy          =    -228.7799089270582158 [Eh]
    Molecular point group: c1
  Basis Set: AUG-CC-PVQZ
    Blend: AUG-CC-PVQZ
  Basis Set: (AUG-CC-PVQZ AUX)
    Blend: AUG-CC-PVQZ-JKFIT
  @DF-RHF Final Energy:  -227.91981738403615
    Total Energy =                       -227.9198173840361505
  Basis Set: (AUG-CC-PVQZ AUX)
  @DF-RHF Final Energy:  -227.90548270245512
    Total Energy =                       -227.9054827024551173
  @DF-RHF Final Energy:  -227.91992191357409
    Total Energy =                       -227.9199219135740861
  @DF-RHF Final Energy:  -230.78165325374107
    Total Energy =                       -230.7816532537410694
  @DF-RHF Final Energy:  -230.79448024508847
    Total Energy =                       -230.7944802450884936
  @DF-RHF Final Energy:  -230.78121997227476
    Total Energy =                       -230.7812199722747550
  @DF-RHF Final Energy:  -230.79439338257549
    Total Energy =                       -230.7943933825754925
  Multiplicity = 1
  @DF-RHF Final Energy:  -458.61630855378257
    Total Energy =                       -458.6163085537825737
	 Singles Energy            =      -0.0000000000000000 [Eh]
	 Same-Spin Energy          =      -0.4898656187425627 [Eh]
	 Opposite-Spin Energy      =      -1.5176995517537315 [Eh]
	 Correlation Energy        =      -2.0075651704962940 [Eh]
	 Total Energy              =    -460.6238737242788943 [Eh]
	 SCS Total Energy          =    -460.6008365554678790 [Eh]
    Molecular point group: c1

    Geometry (in Angstrom), charge = 0, multiplicity = 1:

       Center              X                  Y                   Z               Mass
    ------------   -----------------  -----------------  -----------------  -----------------
         C            0.547075298620     1.412994113902    -1.205100981854    12.000000000000
         H            1.186788298620     2.284836113902    -1.191183981854     1.007825032230
         C            1.058375298620     0.169821113902    -0.836418981854    12.000000000000
         H            2.090348298620     0.078685113902    -0.527777981854     1.007825032230
         C            0.233192298620    -0.953514886098    -0.852428981854    12.000000000000
         H            0.628787298620    -1.918388886098    -0.566157981854     1.007825032230
         C           -1.102541701380    -0.834138886098    -1.233345981854    12.000000000000
         H           -1.742419701380    -1.705915886098    -1.242186981854     1.007825032230
         C           -1.613297701380     0.409921113902    -1.601478981854    12.000000000000
         H           -2.648944701380     0.502861113902    -1.898881981854     1.007825032230
         C           -0.787751701380     1.533415113902    -1.588383981854    12.000000000000
         H           -1.183333701380     2.498231113902    -1.875396981854     1.007825032230
         C            0.462668298620    -0.340824886098     1.589973018146    12.000000000000
         O            1.658161298620    -0.176873886098     1.666489018146    15.994914619570
         O           -0.116833701380    -1.552229886098     1.789412018146    15.994914619570
         H            0.617617298620    -2.153337886098     1.982450018146     1.007825032230
         C           -0.559215701380     0.703107113902     1.269292018146    12.000000000000
         H           -0.080921701380     1.674053113902     1.222469018146     1.007825032230
         H           -1.012015701380     0.469911113902     0.306584018146     1.007825032230
         H           -1.344066701380     0.697570113902     2.021792018146     1.007825032230

  Charge       = 0
  Multiplicity = 1
  Basis Set: AUG-CC-PVQZ
    Blend: AUG-CC-PVQZ
  Basis Set: (AUG-CC-PVQZ AUX)
    Blend: AUG-CC-PVQZ-JKFIT

    Orbital Energies [Eh]
    ---------------------

    Doubly Occupied:

       1A    -20.603020     2A    -20.534003     3A    -11.377861
       4A    -11.240485     5A    -11.239735     6A    -11.238464
       7A    -11.236866     8A    -11.235919     9A    -11.234789
      10A    -11.210224    11A     -1.458612    12A     -1.353720
      13A     -1.165633    14A     -1.027076    15A     -1.023383
      16A     -1.009797    17A     -0.833579    18A     -0.830916
      19A     -0.810298    20A     -0.721048    21A     -0.700455
      22A     -0.670956    23A     -0.658556    24A     -0.649756
      25A     -0.624954    26A     -0.597558    27A     -0.594664
      28A     -0.576628    29A     -0.563342    30A     -0.557937
      31A     -0.506331    32A     -0.500476    33A     -0.476125
      34A     -0.462596    35A     -0.441931    36A     -0.343689
      37A     -0.339575

  @DF-RHF Final Energy:  -458.64361021798436

   => Energetics <=

    Nuclear Repulsion Energy =            538.4008680477829785
    One-Electron Energy =               -1692.7870578304609808
    Two-Electron Energy =                 695.7425795646936422
    Total Energy =                       -458.6436102179843601

  Dipole Moment: [D]
     X:    -1.6832      Y:    -0.1980      Z:    -0.5630     Total:     1.7859

  Basis Set: (AUG-CC-PVQZ AUX)
    Blend: AUG-CC-PVQZ-RI
	 Reference Energy          =    -458.6436102179843601 [Eh]
	 Singles Energy            =      -0.0000000000000000 [Eh]
	 Same-Spin Energy          =      -0.5175764236701413 [Eh]
	 Opposite-Spin Energy      =      -1.7004980034285404 [Eh]
	 Correlation Energy        =      -2.2180744270986819 [Eh]
	 Total Energy              =    -460.8616846450830167 [Eh]

	 ================> DF-SCS-MP2 Energies <==================
	-----------------------------------------------------------
	 SCS Same-Spin Scale       =       0.3333333333333333 [-]
	 SCS Opposite-Spin Scale   =       1.2000000000000000 [-]
	 SCS Same-Spin Energy      =      -0.1725254745567138 [Eh]
	 SCS Opposite-Spin Energy  =      -2.0405976041142484 [Eh]
	 SCS Correlation Energy    =      -2.2131230786709621 [Eh]
	 SCS Total Energy          =    -460.8567332966553067 [Eh]
	-----------------------------------------------------------

*** Psi4 exiting successfully. Buy a developer a beer!
