                               Psi4 1.4a2.dev224

  ==> Input File <==

--------------------------------------------------------------------------
#Generated by lconvert.py for cbs job

memory 40 GB

molecule  {
0 1
  C        1.6297150     0.5030130     0.2701120
  H        1.6415730     1.4592380    -0.2480830
  H        2.3153190    -0.1835550    -0.2175860
  H        1.9697460     0.6493600     1.2939810
  C        0.2618280    -0.1328610     0.3145620
  O        0.0992530    -1.3096160     0.6118400
  N       -0.7735020     0.7025120     0.0220760
  H       -0.5690110     1.6665570    -0.1658140
  C       -2.1500120     0.2659690     0.0950530
  H       -2.1447380    -0.8194070     0.1009120
  H       -2.6405430     0.6158200     1.0036040
  H       -2.7077440     0.6207510    -0.7682610
--
0 1
  C       -0.0390530     0.5175830     3.8205440
  H       -0.0439340     1.2597570     4.6064270
  H       -0.6875850     0.6853520     2.9718610
  C        0.7294580    -0.5693790     3.8903540
  H        1.3747630    -0.7412050     4.7404820
  H        0.7243460    -1.3045790     3.0980450
units angstrom
no_reorient
symmetry c1
}

set {
scf_type DF
mp2_type DF
e_convergence 7
reference rhf
}

energy('mp2/aug-cc-pv[tq]z', bsse_type='cp')
--------------------------------------------------------------------------

    Molecular point group: c1
  Charge       = 0
  Multiplicity = 1
  Basis Set: AUG-CC-PVTZ
    Blend: AUG-CC-PVTZ
  Basis Set: (AUG-CC-PVTZ AUX)
    Blend: AUG-CC-PVTZ-JKFIT
  @DF-RHF Final Energy:   -78.06463892716663
    Total Energy =                        -78.0646389271666266
  Basis Set: (AUG-CC-PVTZ AUX)
    Blend: AUG-CC-PVTZ-RI
	 Reference Energy          =     -78.0646389271666266 [Eh]
	 Singles Energy            =      -0.0000000000000000 [Eh]
	 Same-Spin Energy          =      -0.0765734581803846 [Eh]
	 Opposite-Spin Energy      =      -0.2986023336696966 [Eh]
	 Correlation Energy        =      -0.3751757918500813 [Eh]
	 Total Energy              =     -78.4398147190167094 [Eh]
	 SCS Total Energy          =     -78.4484862136303889 [Eh]
    Molecular point group: c1
  Basis Set: AUG-CC-PVQZ
    Blend: AUG-CC-PVQZ
  Basis Set: (AUG-CC-PVQZ AUX)
    Blend: AUG-CC-PVQZ-JKFIT
  @DF-RHF Final Energy:   -78.06935011707604
    Total Energy =                        -78.0693501170760555
  Basis Set: (AUG-CC-PVQZ AUX)
  @DF-RHF Final Energy:   -78.06470092756854
    Total Energy =                        -78.0647009275685377
  @DF-RHF Final Energy:   -78.06937092318363
    Total Energy =                        -78.0693709231836124
  @DF-RHF Final Energy:  -247.10294322273617
    Total Energy =                       -247.1029432227361440
  @DF-RHF Final Energy:  -247.11831409194647
    Total Energy =                       -247.1183140919464449
  @DF-RHF Final Energy:  -247.10282508479369
    Total Energy =                       -247.1028250847937215
  @DF-RHF Final Energy:  -247.11827849288534
    Total Energy =                       -247.1182784928853380
  Multiplicity = 1
  @DF-RHF Final Energy:  -325.16712192997949
    Total Energy =                       -325.1671219299794870
	 Singles Energy            =      -0.0000000000000000 [Eh]
	 Same-Spin Energy          =      -0.3259631243592925 [Eh]
	 Opposite-Spin Energy      =      -1.1131022574833578 [Eh]
	 Correlation Energy        =      -1.4390653818426502 [Eh]
	 Total Energy              =    -326.6061873118221115 [Eh]
	 SCS Total Energy          =    -326.6114990137459699 [Eh]
    Molecular point group: c1

    Geometry (in Angstrom), charge = 0, multiplicity = 1:

       Center              X                  Y                   Z               Mass
    ------------   -----------------  -----------------  -----------------  -----------------
         C            1.677541001646     0.504588902776    -0.989502777640    12.000000000000
         H            1.689399001646     1.460813902776    -1.507697777640     1.007825032230
         H            2.363145001646    -0.181979097224    -1.477200777640     1.007825032230
         H            2.017572001646     0.650935902776     0.034366222360     1.007825032230
         C            0.309654001646    -0.131285097224    -0.945052777640    12.000000000000
         O            0.147079001646    -1.308040097224    -0.647774777640    15.994914619570
         N           -0.725675998354     0.704087902776    -1.237538777640    14.003074004430
         H           -0.521184998354     1.668132902776    -1.425428777640     1.007825032230
         C           -2.102185998354     0.267544902776    -1.164561777640    12.000000000000
         H           -2.096911998354    -0.817831097224    -1.158702777640     1.007825032230
         H           -2.592716998354     0.617395902776    -0.256010777640     1.007825032230
         H           -2.659917998354     0.622326902776    -2.027875777640     1.007825032230
         C            0.008773001646     0.519158902776     2.560929222360    12.000000000000
         H            0.003892001646     1.261332902776     3.346812222360     1.007825032230
         H           -0.639758998354     0.686927902776     1.712246222360     1.007825032230
         C            0.777284001646    -0.567803097224     2.630739222360    12.000000000000
         H            1.422589001646    -0.739629097224     3.480867222360     1.007825032230
         H            0.772172001646    -1.303003097224     1.838430222360     1.007825032230

  Charge       = 0
  Multiplicity = 1
  Basis Set: AUG-CC-PVQZ
    Blend: AUG-CC-PVQZ
  Basis Set: (AUG-CC-PVQZ AUX)
    Blend: AUG-CC-PVQZ-JKFIT

    Orbital Energies [Eh]
    ---------------------

    Doubly Occupied:

       1A    -20.510369     2A    -15.585588     3A    -11.347623
       4A    -11.256846     5A    -11.231501     6A    -11.221146
       7A    -11.218664     8A     -1.375681     9A     -1.231309
      10A     -1.026396    11A     -1.018412    12A     -0.932726
      13A     -0.791278    14A     -0.784078    15A     -0.691083
      16A     -0.653998    17A     -0.646611    18A     -0.626355
      19A     -0.587570    20A     -0.582631    21A     -0.576915
      22A     -0.555253    23A     -0.545903    24A     -0.506204
      25A     -0.499340    26A     -0.422997    27A     -0.393928
      28A     -0.369464

  @DF-RHF Final Energy:  -325.18716985863404

   => Energetics <=

    Nuclear Repulsion Energy =            299.4859195343507849
    One-Electron Energy =               -1034.9664310766290782
    Two-Electron Energy =                 410.2933416836442007
    Total Energy =                       -325.1871698586340358

  Dipole Moment: [D]
     X:    -0.1973      Y:     3.7593      Z:    -1.0691     Total:     3.9134

  Basis Set: (AUG-CC-PVQZ AUX)
    Blend: AUG-CC-PVQZ-RI
	 Reference Energy          =    -325.1871698586340358 [Eh]
	 Singles Energy            =      -0.0000000000000000 [Eh]
	 Same-Spin Energy          =      -0.3456023893135041 [Eh]
	 Opposite-Spin Energy      =      -1.2474234053644890 [Eh]
	 Correlation Energy        =      -1.5930257946779931 [Eh]
	 Total Energy              =    -326.7801956533120347 [Eh]

	 ================> DF-SCS-MP2 Energies <==================
	-----------------------------------------------------------
	 SCS Same-Spin Scale       =       0.3333333333333333 [-]
	 SCS Opposite-Spin Scale   =       1.2000000000000000 [-]
	 SCS Same-Spin Energy      =      -0.1152007964378347 [Eh]
	 SCS Opposite-Spin Energy  =      -1.4969080864373867 [Eh]
	 SCS Correlation Energy    =      -1.6121088828752215 [Eh]
	 SCS Total Energy          =    -326.7992787415092835 [Eh]
	-----------------------------------------------------------

*** Psi4 exiting successfully. Buy a developer a beer!
