                               Psi4 1.4a2.dev224

  ==> Input File <==

--------------------------------------------------------------------------
#Generated by lconvert.py for cbs job

memory 40 GB

molecule  {
0 1
  C        1.6297150     0.5030130     0.2701120
  H        1.6415730     1.4592380    -0.2480830
  H        2.3153190    -0.1835550    -0.2175860
  H        1.9697460     0.6493600     1.2939810
  C        0.2618280    -0.1328610     0.3145620
  O        0.0992530    -1.3096160     0.6118400
  N       -0.7735020     0.7025120     0.0220760
  H       -0.5690110     1.6665570    -0.1658140
  C       -2.1500120     0.2659690     0.0950530
  H       -2.1447380    -0.8194070     0.1009120
  H       -2.6405430     0.6158200     1.0036040
  H       -2.7077440     0.6207510    -0.7682610
--
0 1
  C       -0.0775690     0.5199630     3.5658490
  H       -0.0824500     1.2621370     4.3517320
  H       -0.7261010     0.6877310     2.7171660
  C        0.6909420    -0.5669990     3.6356590
  H        1.3362470    -0.7388250     4.4857870
  H        0.6858300    -1.3021990     2.8433500
units angstrom
no_reorient
symmetry c1
}

set {
scf_type DF
mp2_type DF
e_convergence 7
reference rhf
}

energy('mp2/aug-cc-pv[tq]z', bsse_type='cp')
--------------------------------------------------------------------------

    Molecular point group: c1
  Charge       = 0
  Multiplicity = 1
  Basis Set: AUG-CC-PVTZ
    Blend: AUG-CC-PVTZ
  Basis Set: (AUG-CC-PVTZ AUX)
    Blend: AUG-CC-PVTZ-JKFIT
  @DF-RHF Final Energy:   -78.06463892641410
    Total Energy =                        -78.0646389264141050
  Basis Set: (AUG-CC-PVTZ AUX)
    Blend: AUG-CC-PVTZ-RI
	 Reference Energy          =     -78.0646389264141050 [Eh]
	 Singles Energy            =      -0.0000000000000000 [Eh]
	 Same-Spin Energy          =      -0.0765734587919196 [Eh]
	 Opposite-Spin Energy      =      -0.2986023336950913 [Eh]
	 Correlation Energy        =      -0.3751757924870109 [Eh]
	 Total Energy              =     -78.4398147189011183 [Eh]
	 SCS Total Energy          =     -78.4484862131121901 [Eh]
    Molecular point group: c1
  Basis Set: AUG-CC-PVQZ
    Blend: AUG-CC-PVQZ
  Basis Set: (AUG-CC-PVQZ AUX)
    Blend: AUG-CC-PVQZ-JKFIT
  @DF-RHF Final Energy:   -78.06935011599475
    Total Energy =                        -78.0693501159947516
  Basis Set: (AUG-CC-PVQZ AUX)
  @DF-RHF Final Energy:   -78.06471561776443
    Total Energy =                        -78.0647156177644348
  @DF-RHF Final Energy:   -78.06937507426237
    Total Energy =                        -78.0693750742623678
  @DF-RHF Final Energy:  -247.10296562432461
    Total Energy =                       -247.1029656243246109
  @DF-RHF Final Energy:  -247.11832197568063
    Total Energy =                       -247.1183219756806011
  @DF-RHF Final Energy:  -247.10282508428278
    Total Energy =                       -247.1028250842828129
  @DF-RHF Final Energy:  -247.11827849161082
    Total Energy =                       -247.1182784916107948
  Multiplicity = 1
  @DF-RHF Final Energy:  -325.16391966852416
    Total Energy =                       -325.1639196685241586
	 Singles Energy            =      -0.0000000000000000 [Eh]
	 Same-Spin Energy          =      -0.3273745406805836 [Eh]
	 Opposite-Spin Energy      =      -1.1150565231927665 [Eh]
	 Correlation Energy        =      -1.4424310638733502 [Eh]
	 Total Energy              =    -326.6063507323975159 [Eh]
	 SCS Total Energy          =    -326.6111123432490331 [Eh]
    Molecular point group: c1

    Geometry (in Angstrom), charge = 0, multiplicity = 1:

       Center              X                  Y                   Z               Mass
    ------------   -----------------  -----------------  -----------------  -----------------
         C            1.688221751046     0.503928922519    -0.918874117638    12.000000000000
         H            1.700079751046     1.460153922519    -1.437069117638     1.007825032230
         H            2.373825751046    -0.182639077481    -1.406572117638     1.007825032230
         H            2.028252751046     0.650275922519     0.104994882362     1.007825032230
         C            0.320334751046    -0.131945077481    -0.874424117638    12.000000000000
         O            0.157759751046    -1.308700077481    -0.577146117638    15.994914619570
         N           -0.714995248954     0.703427922519    -1.166910117638    14.003074004430
         H           -0.510504248954     1.667472922519    -1.354800117638     1.007825032230
         C           -2.091505248954     0.266884922519    -1.093933117638    12.000000000000
         H           -2.086231248954    -0.818491077481    -1.088074117638     1.007825032230
         H           -2.582036248954     0.616735922519    -0.185382117638     1.007825032230
         H           -2.649237248954     0.621666922519    -1.957247117638     1.007825032230
         C           -0.019062248954     0.520878922519     2.376862882362    12.000000000000
         H           -0.023943248954     1.263052922519     3.162745882362     1.007825032230
         H           -0.667594248954     0.688646922519     1.528179882362     1.007825032230
         C            0.749448751046    -0.566083077481     2.446672882362    12.000000000000
         H            1.394753751046    -0.737909077481     3.296800882362     1.007825032230
         H            0.744336751046    -1.301283077481     1.654363882362     1.007825032230

  Charge       = 0
  Multiplicity = 1
  Basis Set: AUG-CC-PVQZ
    Blend: AUG-CC-PVQZ
  Basis Set: (AUG-CC-PVQZ AUX)
    Blend: AUG-CC-PVQZ-JKFIT

    Orbital Energies [Eh]
    ---------------------

    Doubly Occupied:

       1A    -20.510745     2A    -15.585841     3A    -11.348167
       4A    -11.257277     5A    -11.230849     6A    -11.218614
       7A    -11.215469     8A     -1.376904     9A     -1.232041
      10A     -1.024979    11A     -1.018219    12A     -0.933030
      13A     -0.792369    14A     -0.781995    15A     -0.691413
      16A     -0.655325    17A     -0.651098    18A     -0.621599
      19A     -0.587700    20A     -0.583665    21A     -0.574093
      22A     -0.555349    23A     -0.546240    24A     -0.507356
      25A     -0.496688    26A     -0.423635    27A     -0.394151
      28A     -0.367415

  @DF-RHF Final Energy:  -325.18395599409922

   => Energetics <=

    Nuclear Repulsion Energy =            304.9188609786625648
    One-Electron Energy =               -1045.8411710945401865
    Two-Electron Energy =                 415.7383541217784000
    Total Energy =                       -325.1839559940992217

  Dipole Moment: [D]
     X:    -0.1926      Y:     3.7167      Z:    -1.1304     Total:     3.8896

  Basis Set: (AUG-CC-PVQZ AUX)
    Blend: AUG-CC-PVQZ-RI
	 Reference Energy          =    -325.1839559940992217 [Eh]
	 Singles Energy            =      -0.0000000000000000 [Eh]
	 Same-Spin Energy          =      -0.3470038881483979 [Eh]
	 Opposite-Spin Energy      =      -1.2490702035458781 [Eh]
	 Correlation Energy        =      -1.5960740916942759 [Eh]
	 Total Energy              =    -326.7800300857934985 [Eh]

	 ================> DF-SCS-MP2 Energies <==================
	-----------------------------------------------------------
	 SCS Same-Spin Scale       =       0.3333333333333333 [-]
	 SCS Opposite-Spin Scale   =       1.2000000000000000 [-]
	 SCS Same-Spin Energy      =      -0.1156679627161326 [Eh]
	 SCS Opposite-Spin Energy  =      -1.4988842442550536 [Eh]
	 SCS Correlation Energy    =      -1.6145522069711862 [Eh]
	 SCS Total Energy          =    -326.7985082010704332 [Eh]
	-----------------------------------------------------------

*** Psi4 exiting successfully. Buy a developer a beer!
