                               Psi4 1.4a2.dev224

  ==> Input File <==

--------------------------------------------------------------------------
#Generated by lconvert.py for cbs job

memory 40 GB

molecule  {
0 1
  C        1.6297150     0.5030130     0.2701120
  H        1.6415730     1.4592380    -0.2480830
  H        2.3153190    -0.1835550    -0.2175860
  H        1.9697460     0.6493600     1.2939810
  C        0.2618280    -0.1328610     0.3145620
  O        0.0992530    -1.3096160     0.6118400
  N       -0.7735020     0.7025120     0.0220760
  H       -0.5690110     1.6665570    -0.1658140
  C       -2.1500120     0.2659690     0.0950530
  H       -2.1447380    -0.8194070     0.1009120
  H       -2.6405430     0.6158200     1.0036040
  H       -2.7077440     0.6207510    -0.7682610
--
0 1
  C       -0.1548120     0.5247350     3.0550600
  H       -0.1596940     1.2669090     3.8409420
  H       -0.8033450     0.6925040     2.2063760
  C        0.6136980    -0.5622270     3.1248690
  H        1.2590030    -0.7340520     3.9749970
  H        0.6085860    -1.2974270     2.3325600
units angstrom
no_reorient
symmetry c1
}

set {
scf_type DF
mp2_type DF
e_convergence 7
reference rhf
}

energy('mp2/aug-cc-pv[tq]z', bsse_type='cp')
--------------------------------------------------------------------------

    Molecular point group: c1
  Charge       = 0
  Multiplicity = 1
  Basis Set: AUG-CC-PVTZ
    Blend: AUG-CC-PVTZ
  Basis Set: (AUG-CC-PVTZ AUX)
    Blend: AUG-CC-PVTZ-JKFIT
  @DF-RHF Final Energy:   -78.06463894499466
    Total Energy =                        -78.0646389449946554
  Basis Set: (AUG-CC-PVTZ AUX)
    Blend: AUG-CC-PVTZ-RI
	 Reference Energy          =     -78.0646389449946554 [Eh]
	 Singles Energy            =      -0.0000000000000000 [Eh]
	 Same-Spin Energy          =      -0.0765734554712941 [Eh]
	 Opposite-Spin Energy      =      -0.2986023183179520 [Eh]
	 Correlation Energy        =      -0.3751757737892462 [Eh]
	 Total Energy              =     -78.4398147187839072 [Eh]
	 SCS Total Energy          =     -78.4484862121332895 [Eh]
    Molecular point group: c1
  Basis Set: AUG-CC-PVQZ
    Blend: AUG-CC-PVQZ
  Basis Set: (AUG-CC-PVQZ AUX)
    Blend: AUG-CC-PVQZ-JKFIT
  @DF-RHF Final Energy:   -78.06935013539274
    Total Energy =                        -78.0693501353927388
  Basis Set: (AUG-CC-PVQZ AUX)
  @DF-RHF Final Energy:   -78.06476000917350
    Total Energy =                        -78.0647600091734972
  @DF-RHF Final Energy:   -78.06938679597224
    Total Energy =                        -78.0693867959722354
  @DF-RHF Final Energy:  -247.10306472125151
    Total Energy =                       -247.1030647212515419
  @DF-RHF Final Energy:  -247.11833937542536
    Total Energy =                       -247.1183393754253643
  @DF-RHF Final Energy:  -247.10282508472372
    Total Energy =                       -247.1028250847237473
  @DF-RHF Final Energy:  -247.11827849271452
    Total Energy =                       -247.1182784927145235
  Multiplicity = 1
  @DF-RHF Final Energy:  -325.13696188693967
    Total Energy =                       -325.1369618869396731
	 Singles Energy            =      -0.0000000000000000 [Eh]
	 Same-Spin Energy          =      -0.3327529808987518 [Eh]
	 Opposite-Spin Energy      =      -1.1223986412225195 [Eh]
	 Correlation Energy        =      -1.4551516221212712 [Eh]
	 Total Energy              =    -326.5921135090609368 [Eh]
	 SCS Total Energy          =    -326.5947579167062713 [Eh]
    Molecular point group: c1

    Geometry (in Angstrom), charge = 0, multiplicity = 1:

       Center              X                  Y                   Z               Mass
    ------------   -----------------  -----------------  -----------------  -----------------
         C            1.709641920180     0.502605594444    -0.777228686802    12.000000000000
         H            1.721499920180     1.458830594444    -1.295423686802     1.007825032230
         H            2.395245920180    -0.183962405556    -1.264926686802     1.007825032230
         H            2.049672920180     0.648952594444     0.246640313198     1.007825032230
         C            0.341754920180    -0.133268405556    -0.732778686802    12.000000000000
         O            0.179179920180    -1.310023405556    -0.435500686802    15.994914619570
         N           -0.693575079820     0.702104594444    -1.025264686802    14.003074004430
         H           -0.489084079820     1.666149594444    -1.213154686802     1.007825032230
         C           -2.070085079820     0.265561594444    -0.952287686802    12.000000000000
         H           -2.064811079820    -0.819814405556    -0.946428686802     1.007825032230
         H           -2.560616079820     0.615412594444    -0.043736686802     1.007825032230
         H           -2.627817079820     0.620343594444    -1.815601686802     1.007825032230
         C           -0.074885079820     0.524327594444     2.007719313198    12.000000000000
         H           -0.079767079820     1.266501594444     2.793601313198     1.007825032230
         H           -0.723418079820     0.692096594444     1.159035313198     1.007825032230
         C            0.693624920180    -0.562634405556     2.077528313198    12.000000000000
         H            1.338929920180    -0.734459405556     2.927656313198     1.007825032230
         H            0.688512920180    -1.297834405556     1.285219313198     1.007825032230

  Charge       = 0
  Multiplicity = 1
  Basis Set: AUG-CC-PVQZ
    Blend: AUG-CC-PVQZ
  Basis Set: (AUG-CC-PVQZ AUX)
    Blend: AUG-CC-PVQZ-JKFIT

    Orbital Energies [Eh]
    ---------------------

    Doubly Occupied:

       1A    -20.512401     2A    -15.586148     3A    -11.351078
       4A    -11.258842     5A    -11.229940     6A    -11.207920
       7A    -11.201596     8A     -1.384090     9A     -1.235898
      10A     -1.023580    11A     -1.015879    12A     -0.934725
      13A     -0.798376    14A     -0.774914    15A     -0.693748
      16A     -0.672812    17A     -0.657559    18A     -0.610380
      19A     -0.589151    20A     -0.587255    21A     -0.564255
      22A     -0.556089    23A     -0.547751    24A     -0.510984
      25A     -0.487509    26A     -0.426560    27A     -0.389957
      28A     -0.358572

  @DF-RHF Final Energy:  -325.15692845576865

   => Energetics <=

    Nuclear Repulsion Energy =            317.9612321775409782
    One-Electron Energy =               -1071.9003805011377608
    Two-Electron Energy =                 428.7822198678281325
    Total Energy =                       -325.1569284557686501

  Dipole Moment: [D]
     X:    -0.1887      Y:     3.5978      Z:    -1.4120     Total:     3.8696

  Basis Set: (AUG-CC-PVQZ AUX)
    Blend: AUG-CC-PVQZ-RI
	 Reference Energy          =    -325.1569284557686501 [Eh]
	 Singles Energy            =      -0.0000000000000000 [Eh]
	 Same-Spin Energy          =      -0.3523963125503817 [Eh]
	 Opposite-Spin Energy      =      -1.2553108396729125 [Eh]
	 Correlation Energy        =      -1.6077071522232942 [Eh]
	 Total Energy              =    -326.7646356079919201 [Eh]

	 ================> DF-SCS-MP2 Energies <==================
	-----------------------------------------------------------
	 SCS Same-Spin Scale       =       0.3333333333333333 [-]
	 SCS Opposite-Spin Scale   =       1.2000000000000000 [-]
	 SCS Same-Spin Energy      =      -0.1174654375167939 [Eh]
	 SCS Opposite-Spin Energy  =      -1.5063730076074948 [Eh]
	 SCS Correlation Energy    =      -1.6238384451242887 [Eh]
	 SCS Total Energy          =    -326.7807669008929565 [Eh]
	-----------------------------------------------------------

*** Psi4 exiting successfully. Buy a developer a beer!
