                               Psi4 1.4a2.dev224

  ==> Input File <==

--------------------------------------------------------------------------
#Generated by lconvert.py for cbs job

memory 20 GB

molecule  {
0 1
  C       1.629720    0.503010    0.270110
  H       1.641570    1.459240   -0.248080
  H       2.315320   -0.183550   -0.217590
  H       1.969750    0.649360    1.293980
  C       0.261830   -0.132860    0.314560
  O       0.099250   -1.309620    0.611840
  N      -0.773500    0.702510    0.022080
  H      -0.569010    1.666560   -0.165810
  C      -2.150010    0.265970    0.095050
  H      -2.144740   -0.819410    0.100910
  H      -2.640540    0.615820    1.003600
  H      -2.707740    0.620750   -0.768260
--
0 1
  C       0.192710    0.503260    5.353110
  H       0.187820    1.245440    6.138990
  H      -0.455830    0.671030    4.504430
  C       0.961220   -0.583700    5.422920
  H       1.606520   -0.755520    6.273050
  H       0.956100   -1.318900    4.630610
units angstrom
no_reorient
symmetry c1
}

set {
scf_type DF
mp2_type DF
e_convergence 7
reference rhf
}

energy('mp2/aug-cc-pv[tq]z', bsse_type='cp')
--------------------------------------------------------------------------

    Molecular point group: c1
  Charge       = 0
  Multiplicity = 1
  Basis Set: AUG-CC-PVTZ
    Blend: AUG-CC-PVTZ
  Basis Set: (AUG-CC-PVTZ AUX)
    Blend: AUG-CC-PVTZ-JKFIT
  @DF-RHF Final Energy:   -78.06463896241233
    Total Energy =                        -78.0646389624123174
  Basis Set: (AUG-CC-PVTZ AUX)
    Blend: AUG-CC-PVTZ-RI
	 Reference Energy          =     -78.0646389624123316 [Eh]
	 Singles Energy            =      -0.0000000000000000 [Eh]
	 Same-Spin Energy          =      -0.0765734490765857 [Eh]
	 Opposite-Spin Energy      =      -0.2986022861606756 [Eh]
	 Correlation Energy        =      -0.3751757352372613 [Eh]
	 Total Energy              =     -78.4398146976495951 [Eh]
	 SCS Total Energy          =     -78.4484861888306710 [Eh]
    Molecular point group: c1
  Basis Set: AUG-CC-PVQZ
    Blend: AUG-CC-PVQZ
  Basis Set: (AUG-CC-PVQZ AUX)
    Blend: AUG-CC-PVQZ-JKFIT
  @DF-RHF Final Energy:   -78.06935015458274
    Total Energy =                        -78.0693501545827360
  Basis Set: (AUG-CC-PVQZ AUX)
  @DF-RHF Final Energy:   -78.06465620618819
    Total Energy =                        -78.0646562061881895
  @DF-RHF Final Energy:   -78.06935545290405
    Total Energy =                        -78.0693554529040341
  @DF-RHF Final Energy:  -247.10285064071135
    Total Energy =                       -247.1028506407113809
  @DF-RHF Final Energy:  -247.11828799616609
    Total Energy =                       -247.1182879961660888
  @DF-RHF Final Energy:  -247.10282463216316
    Total Energy =                       -247.1028246321631627
  @DF-RHF Final Energy:  -247.11827801290258
    Total Energy =                       -247.1182780129025787
  Multiplicity = 1
  @DF-RHF Final Energy:  -325.16807135651555
    Total Energy =                       -325.1680713565155543
	 Singles Energy            =      -0.0000000000000000 [Eh]
	 Same-Spin Energy          =      -0.3233374438712278 [Eh]
	 Opposite-Spin Energy      =      -1.1091222834171548 [Eh]
	 Correlation Energy        =      -1.4324597272883826 [Eh]
	 Total Energy              =    -326.6005310838039577 [Eh]
	 SCS Total Energy          =    -326.6067972445732153 [Eh]
    Molecular point group: c1

    Geometry (in Angstrom), charge = 0, multiplicity = 1:

       Center              X                  Y                   Z               Mass
    ------------   -----------------  -----------------  -----------------  -----------------
         C            1.613276028816     0.508558330296    -1.414495481606    12.000000000000
         H            1.625126028816     1.464788330296    -1.932685481606     1.007825032230
         H            2.298876028816    -0.178001669704    -1.902195481606     1.007825032230
         H            1.953306028816     0.654908330296    -0.390625481606     1.007825032230
         C            0.245386028816    -0.127311669704    -1.370045481606    12.000000000000
         O            0.082806028816    -1.304071669704    -1.072765481606    15.994914619570
         N           -0.789943971184     0.708058330296    -1.662525481606    14.003074004430
         H           -0.585453971184     1.672108330296    -1.850415481606     1.007825032230
         C           -2.166453971184     0.271518330296    -1.589555481606    12.000000000000
         H           -2.161183971184    -0.813861669704    -1.583695481606     1.007825032230
         H           -2.656983971184     0.621368330296    -0.681005481606     1.007825032230
         H           -2.724183971184     0.626298330296    -2.452865481606     1.007825032230
         C            0.176266028816     0.508808330296     3.668504518394    12.000000000000
         H            0.171376028816     1.250988330296     4.454384518394     1.007825032230
         H           -0.472273971184     0.676578330296     2.819824518394     1.007825032230
         C            0.944776028816    -0.578151669704     3.738314518394    12.000000000000
         H            1.590076028816    -0.749971669704     4.588444518394     1.007825032230
         H            0.939656028816    -1.313351669704     2.946004518394     1.007825032230

  Charge       = 0
  Multiplicity = 1
  Basis Set: AUG-CC-PVQZ
    Blend: AUG-CC-PVQZ
  Basis Set: (AUG-CC-PVQZ AUX)
    Blend: AUG-CC-PVQZ-JKFIT

    Orbital Energies [Eh]
    ---------------------

    Doubly Occupied:

       1A    -20.509112     2A    -15.584608     3A    -11.346547
       4A    -11.255686     5A    -11.233657     6A    -11.226301
       7A    -11.224565     8A     -1.373659     9A     -1.229915
      10A     -1.030608    11A     -1.019002    12A     -0.932230
      13A     -0.789674    14A     -0.788889    15A     -0.690742
      16A     -0.652656    17A     -0.641752    18A     -0.633990
      19A     -0.587845    20A     -0.582768    21A     -0.581002
      22A     -0.555534    23A     -0.545110    24A     -0.505249
      25A     -0.504444    26A     -0.421570    27A     -0.392364
      28A     -0.373522

  @DF-RHF Final Energy:  -325.18820552904492

   => Energetics <=

    Nuclear Repulsion Energy =            276.4418235343226229
    One-Electron Energy =                -988.8340435518534832
    Two-Electron Energy =                 387.2040144884859956
    Total Energy =                       -325.1882055290449216

  Dipole Moment: [D]
     X:    -0.2201      Y:     3.9072      Z:    -0.9701     Total:     4.0319

  Basis Set: (AUG-CC-PVQZ AUX)
    Blend: AUG-CC-PVQZ-RI
	 Reference Energy          =    -325.1882055290449216 [Eh]
	 Singles Energy            =      -0.0000000000000000 [Eh]
	 Same-Spin Energy          =      -0.3430373461852033 [Eh]
	 Opposite-Spin Energy      =      -1.2444153767425692 [Eh]
	 Correlation Energy        =      -1.5874527229277726 [Eh]
	 Total Energy              =    -326.7756582519726862 [Eh]

	 ================> DF-SCS-MP2 Energies <==================
	-----------------------------------------------------------
	 SCS Same-Spin Scale       =       0.3333333333333333 [-]
	 SCS Opposite-Spin Scale   =       1.2000000000000000 [-]
	 SCS Same-Spin Energy      =      -0.1143457820617344 [Eh]
	 SCS Opposite-Spin Energy  =      -1.4932984520910830 [Eh]
	 SCS Correlation Energy    =      -1.6076442341528174 [Eh]
	 SCS Total Energy          =    -326.7958497631977366 [Eh]
	-----------------------------------------------------------

*** Psi4 exiting successfully. Buy a developer a beer!
