                               Psi4 1.4a2.dev224

  ==> Input File <==

--------------------------------------------------------------------------
#Generated by lconvert.py for cbs job

memory 40 GB

molecule  {
0 1
  C        1.6297150     0.5030130     0.2701120
  H        1.6415730     1.4592380    -0.2480830
  H        2.3153190    -0.1835550    -0.2175860
  H        1.9697460     0.6493600     1.2939810
  C        0.2618280    -0.1328610     0.3145620
  O        0.0992530    -1.3096160     0.6118400
  N       -0.7735020     0.7025120     0.0220760
  H       -0.5690110     1.6665570    -0.1658140
  C       -2.1500120     0.2659690     0.0950530
  H       -2.1447380    -0.8194070     0.1009120
  H       -2.6405430     0.6158200     1.0036040
  H       -2.7077440     0.6207510    -0.7682610
--
0 1
  C       -0.1548120     0.5247350     3.0550600
  H       -0.1596940     1.2669090     3.8409420
  H       -0.8033450     0.6925040     2.2063760
  C        0.6136980    -0.5622270     3.1248690
  H        1.2590030    -0.7340520     3.9749970
  H        0.6085860    -1.2974270     2.3325600
units angstrom
no_reorient
symmetry c1
}

set {
scf_type DF
mp2_type DF
e_convergence 7
reference rhf
}

energy('mp2/aug-cc-pv[tq]z', bsse_type='cp')
--------------------------------------------------------------------------

    Molecular point group: c1
  Charge       = 0
  Multiplicity = 1
  Basis Set: AUG-CC-PVTZ
    Blend: AUG-CC-PVTZ
  Basis Set: (AUG-CC-PVTZ AUX)
    Blend: AUG-CC-PVTZ-JKFIT
  @DF-RHF Final Energy:   -78.06463894499466
    Total Energy =                        -78.0646389449946554
  Basis Set: (AUG-CC-PVTZ AUX)
    Blend: AUG-CC-PVTZ-RI
	 Reference Energy          =     -78.0646389449946554 [Eh]
	 Singles Energy            =      -0.0000000000000000 [Eh]
	 Same-Spin Energy          =      -0.0765734554712941 [Eh]
	 Opposite-Spin Energy      =      -0.2986023183179520 [Eh]
	 Correlation Energy        =      -0.3751757737892462 [Eh]
	 Total Energy              =     -78.4398147187839072 [Eh]
	 SCS Total Energy          =     -78.4484862121332895 [Eh]
    Molecular point group: c1
  Basis Set: AUG-CC-PVQZ
    Blend: AUG-CC-PVQZ
  Basis Set: (AUG-CC-PVQZ AUX)
    Blend: AUG-CC-PVQZ-JKFIT
  @DF-RHF Final Energy:   -78.06935013539274
    Total Energy =                        -78.0693501353927388
  Basis Set: (AUG-CC-PVQZ AUX)
  @DF-RHF Final Energy:   -78.06476000917350
    Total Energy =                        -78.0647600091734972
  @DF-RHF Final Energy:   -78.06938679597224
    Total Energy =                        -78.0693867959722354
  @DF-RHF Final Energy:  -247.10306472125151
    Total Energy =                       -247.1030647212515419
  @DF-RHF Final Energy:  -247.11833937542536
    Total Energy =                       -247.1183393754253643
  @DF-RHF Final Energy:  -247.10282508472372
    Total Energy =                       -247.1028250847237473
  @DF-RHF Final Energy:  -247.11827849271452
    Total Energy =                       -247.1182784927145235
  @DF-RHF Final Energy:  -325.13696188693967
    Total Energy =                       -325.1369618869396731
  @DF-RHF Final Energy:  -325.15692845576865
    Total Energy =                       -325.1569284557686501
*** Psi4 exiting successfully. Buy a developer a beer!
                               Psi4 1.4a2.dev224
  @DF-RHF Final Energy:   -78.06463894428012
    Total Energy =                        -78.0646389442801194
  @DF-RHF Final Energy:   -78.06935013490782
    Total Energy =                        -78.0693501349078218
  @DF-RHF Final Energy:   -78.06473545518971
    Total Energy =                        -78.0647354551897052
  @DF-RHF Final Energy:   -78.06938026359430
    Total Energy =                        -78.0693802635942973
  @DF-RHF Final Energy:  -247.10300241660917
    Total Energy =                       -247.1030024166091721
  @DF-RHF Final Energy:  -247.11832875982068
    Total Energy =                       -247.1183287598206562
  @DF-RHF Final Energy:  -247.10282508510076
    Total Energy =                       -247.1028250851007328
  @DF-RHF Final Energy:  -247.11827849220245
    Total Energy =                       -247.1182784922024780
  @DF-RHF Final Energy:  -325.15588663757160
    Total Energy =                       -325.1558866375715979
  @DF-RHF Final Energy:  -325.17590223421968
    Total Energy =                       -325.1759022342196772
*** Psi4 exiting successfully. Buy a developer a beer!
                               Psi4 1.4a2.dev224
                               Psi4 1.4a2.dev224
                               Psi4 1.4a2.dev224
                               Psi4 1.4a2.dev224
                               Psi4 1.4a2.dev224
                               Psi4 1.4a2.dev224
                               Psi4 1.4a2.dev224
  @DF-RHF Final Energy:   -78.06463896241233
    Total Energy =                        -78.0646389624123174
  @DF-RHF Final Energy:   -78.06935015458274
    Total Energy =                        -78.0693501545827360
  @DF-RHF Final Energy:   -78.06465620618819
    Total Energy =                        -78.0646562061881895
  @DF-RHF Final Energy:   -78.06935545290405
    Total Energy =                        -78.0693554529040341
  @DF-RHF Final Energy:  -247.10285064071135
    Total Energy =                       -247.1028506407113809
  @DF-RHF Final Energy:  -247.11828799616609
    Total Energy =                       -247.1182879961660888
  @DF-RHF Final Energy:  -247.10282463216316
    Total Energy =                       -247.1028246321631627
  @DF-RHF Final Energy:  -247.11827801290258
    Total Energy =                       -247.1182780129025787
  @DF-RHF Final Energy:  -325.16807135651555
    Total Energy =                       -325.1680713565155543
  @DF-RHF Final Energy:  -325.18820552904492
    Total Energy =                       -325.1882055290449216
*** Psi4 exiting successfully. Buy a developer a beer!
                               Psi4 1.4a2.dev224
  @DF-RHF Final Energy:   -78.06463903473168
    Total Energy =                        -78.0646390347316697
  @DF-RHF Final Energy:   -78.06935022980028
    Total Energy =                        -78.0693502298002784
  @DF-RHF Final Energy:   -78.06464940376925
    Total Energy =                        -78.0646494037692520
  @DF-RHF Final Energy:   -78.06935325441174
    Total Energy =                        -78.0693532544117375
  @DF-RHF Final Energy:  -247.10283563447229
    Total Energy =                       -247.1028356344722852
  @DF-RHF Final Energy:  -247.11828273141043
    Total Energy =                       -247.1182827314104316
  @DF-RHF Final Energy:  -247.10282463190458
    Total Energy =                       -247.1028246319045820
  @DF-RHF Final Energy:  -247.11827801360585
    Total Energy =                       -247.1182780136058454
  Multiplicity = 1
  @DF-RHF Final Energy:  -325.16779455423080
    Total Energy =                       -325.1677945542307953
	 Singles Energy            =      -0.0000000000000000 [Eh]
	 Same-Spin Energy          =      -0.3231169665847921 [Eh]
	 Opposite-Spin Energy      =      -1.1086957510091762 [Eh]
	 Correlation Energy        =      -1.4318127175939683 [Eh]
	 Total Energy              =    -326.5996072718247660 [Eh]
	 SCS Total Energy          =    -326.6059351109700515 [Eh]
    Molecular point group: c1

    Geometry (in Angstrom), charge = 0, multiplicity = 1:

       Center              X                  Y                   Z               Mass
    ------------   -----------------  -----------------  -----------------  -----------------
         C            1.581122203571     0.510544046516    -1.627120484281    12.000000000000
         H            1.592972203571     1.466774046516    -2.145310484281     1.007825032230
         H            2.266722203571    -0.176015953484    -2.114820484281     1.007825032230
         H            1.921152203571     0.656894046516    -0.603250484281     1.007825032230
         C            0.213232203571    -0.125325953484    -1.582670484281    12.000000000000
         O            0.050652203571    -1.302085953484    -1.285390484281    15.994914619570
         N           -0.822097796429     0.710044046516    -1.875150484281    14.003074004430
         H           -0.617607796429     1.674094046516    -2.063040484281     1.007825032230
         C           -2.198607796429     0.273504046516    -1.802180484281    12.000000000000
         H           -2.193337796429    -0.811875953484    -1.796320484281     1.007825032230
         H           -2.689137796429     0.623354046516    -0.893630484281     1.007825032230
         H           -2.756337796429     0.628284046516    -2.665490484281     1.007825032230
         C            0.260062203571     0.503634046516     4.222629515719    12.000000000000
         H            0.255182203571     1.245804046516     5.008509515719     1.007825032230
         H           -0.388477796429     0.671404046516     3.373949515719     1.007825032230
         C            1.028572203571    -0.583325953484     4.292439515719    12.000000000000
         H            1.673872203571    -0.755155953484     5.142569515719     1.007825032230
         H            1.023452203571    -1.318525953484     3.500129515719     1.007825032230

  Charge       = 0
  Multiplicity = 1
  Basis Set: AUG-CC-PVQZ
    Blend: AUG-CC-PVQZ
  Basis Set: (AUG-CC-PVQZ AUX)
    Blend: AUG-CC-PVQZ-JKFIT

    Orbital Energies [Eh]
    ---------------------

    Doubly Occupied:

       1A    -20.508862     2A    -15.584417     3A    -11.346375
       4A    -11.255446     5A    -11.233955     6A    -11.227213
       7A    -11.225490     8A     -1.373394     9A     -1.229701
      10A     -1.031496    11A     -1.019075    12A     -0.932127
      13A     -0.789792    14A     -0.789484    15A     -0.690687
      16A     -0.652487    17A     -0.642674    18A     -0.633924
      19A     -0.587896    20A     -0.583666    21A     -0.580884
      22A     -0.555587    23A     -0.544940    24A     -0.506240
      25A     -0.504337    26A     -0.421353    27A     -0.392083
      28A     -0.374305

  @DF-RHF Final Energy:  -325.18794439156318

   => Energetics <=

    Nuclear Repulsion Energy =            268.8794517303687144
    One-Electron Energy =                -973.6990088592665415
    Two-Electron Energy =                 379.6316127373346490
    Total Energy =                       -325.1879443915631782

  Dipole Moment: [D]
     X:    -0.2269      Y:     3.9424      Z:    -0.9577     Total:     4.0634

  Basis Set: (AUG-CC-PVQZ AUX)
    Blend: AUG-CC-PVQZ-RI
	 Reference Energy          =    -325.1879443915631782 [Eh]
	 Singles Energy            =      -0.0000000000000000 [Eh]
	 Same-Spin Energy          =      -0.3428290822779221 [Eh]
	 Opposite-Spin Energy      =      -1.2441724877301330 [Eh]
	 Correlation Energy        =      -1.5870015700080551 [Eh]
	 Total Energy              =    -326.7749459615712340 [Eh]

	 ================> DF-SCS-MP2 Energies <==================
	-----------------------------------------------------------
	 SCS Same-Spin Scale       =       0.3333333333333333 [-]
	 SCS Opposite-Spin Scale   =       1.2000000000000000 [-]
	 SCS Same-Spin Energy      =      -0.1142763607593074 [Eh]
	 SCS Opposite-Spin Energy  =      -1.4930069852761596 [Eh]
	 SCS Correlation Energy    =      -1.6072833460354670 [Eh]
	 SCS Total Energy          =    -326.7952277375986228 [Eh]
	-----------------------------------------------------------

*** Psi4 exiting successfully. Buy a developer a beer!
