                               Psi4 1.4a2.dev224

  ==> Input File <==

--------------------------------------------------------------------------
#Generated by lconvert.py for cbs job

memory 40 GB

molecule  {
0 1
  C        1.6297150     0.5030130     0.2701120
  H        1.6415730     1.4592380    -0.2480830
  H        2.3153190    -0.1835550    -0.2175860
  H        1.9697460     0.6493600     1.2939810
  C        0.2618280    -0.1328610     0.3145620
  O        0.0992530    -1.3096160     0.6118400
  N       -0.7735020     0.7025120     0.0220760
  H       -0.5690110     1.6665570    -0.1658140
  C       -2.1500120     0.2659690     0.0950530
  H       -2.1447380    -0.8194070     0.1009120
  H       -2.6405430     0.6158200     1.0036040
  H       -2.7077440     0.6207510    -0.7682610
--
0 1
  C       -0.0582980     0.5187720     3.6932820
  H       -0.0631790     1.2609460     4.4791640
  H       -0.7068310     0.6865410     2.8445980
  C        0.7102120    -0.5681900     3.7630910
  H        1.3555170    -0.7400160     4.6132190
  H        0.7051000    -1.3033900     2.9707820
units angstrom
no_reorient
symmetry c1
}

set {
scf_type DF
mp2_type DF
e_convergence 7
reference rhf
}

energy('mp2/aug-cc-pv[tq]z', bsse_type='cp')
--------------------------------------------------------------------------

    Molecular point group: c1
  Charge       = 0
  Multiplicity = 1
  Basis Set: AUG-CC-PVTZ
    Blend: AUG-CC-PVTZ
  Basis Set: (AUG-CC-PVTZ AUX)
    Blend: AUG-CC-PVTZ-JKFIT
  @DF-RHF Final Energy:   -78.06463894566355
    Total Energy =                        -78.0646389456635461
  Basis Set: (AUG-CC-PVTZ AUX)
    Blend: AUG-CC-PVTZ-RI
	 Reference Energy          =     -78.0646389456635461 [Eh]
	 Singles Energy            =      -0.0000000000000000 [Eh]
	 Same-Spin Energy          =      -0.0765734553136031 [Eh]
	 Opposite-Spin Energy      =      -0.2986023187724569 [Eh]
	 Correlation Energy        =      -0.3751757740860600 [Eh]
	 Total Energy              =     -78.4398147197496058 [Eh]
	 SCS Total Energy          =     -78.4484862132950269 [Eh]
    Molecular point group: c1
  Basis Set: AUG-CC-PVQZ
    Blend: AUG-CC-PVQZ
  Basis Set: (AUG-CC-PVQZ AUX)
    Blend: AUG-CC-PVQZ-JKFIT
  @DF-RHF Final Energy:   -78.06935013631686
    Total Energy =                        -78.0693501363168565
  Basis Set: (AUG-CC-PVQZ AUX)
  @DF-RHF Final Energy:   -78.06470763788960
    Total Energy =                        -78.0647076378895974
  @DF-RHF Final Energy:   -78.06937295816128
    Total Energy =                        -78.0693729581612814
  @DF-RHF Final Energy:  -247.10295329091574
    Total Energy =                       -247.1029532909157069
  @DF-RHF Final Energy:  -247.11831821906020
    Total Energy =                       -247.1183182190601997
  @DF-RHF Final Energy:  -247.10282508459977
    Total Energy =                       -247.1028250845997718
  @DF-RHF Final Energy:  -247.11827849383775
    Total Energy =                       -247.1182784938377495
  Multiplicity = 1
  @DF-RHF Final Energy:  -325.16590135267234
    Total Energy =                       -325.1659013526723356
	 Singles Energy            =      -0.0000000000000000 [Eh]
	 Same-Spin Energy          =      -0.3265962035953968 [Eh]
	 Opposite-Spin Energy      =      -1.1139764777651298 [Eh]
	 Correlation Energy        =      -1.4405726813605266 [Eh]
	 Total Energy              =    -326.6064740340328854 [Eh]
	 SCS Total Energy          =    -326.6115385271889409 [Eh]
    Molecular point group: c1

    Geometry (in Angstrom), charge = 0, multiplicity = 1:

       Center              X                  Y                   Z               Mass
    ------------   -----------------  -----------------  -----------------  -----------------
         C            1.682877919981     0.504259184970    -0.954211998778    12.000000000000
         H            1.694735919981     1.460484184970    -1.472406998778     1.007825032230
         H            2.368481919981    -0.182308815030    -1.441909998778     1.007825032230
         H            2.022908919981     0.650606184970     0.069657001222     1.007825032230
         C            0.314990919981    -0.131614815030    -0.909761998778    12.000000000000
         O            0.152415919981    -1.308369815030    -0.612483998778    15.994914619570
         N           -0.720339080019     0.703758184970    -1.202247998778    14.003074004430
         H           -0.515848080019     1.667803184970    -1.390137998778     1.007825032230
         C           -2.096849080019     0.267215184970    -1.129270998778    12.000000000000
         H           -2.091575080019    -0.818160815030    -1.123411998778     1.007825032230
         H           -2.587380080019     0.617066184970    -0.220719998778     1.007825032230
         H           -2.654581080019     0.621997184970    -1.992584998778     1.007825032230
         C           -0.005135080019     0.520018184970     2.468958001222    12.000000000000
         H           -0.010016080019     1.262192184970     3.254840001222     1.007825032230
         H           -0.653668080019     0.687787184970     1.620274001222     1.007825032230
         C            0.763374919981    -0.566943815030     2.538767001222    12.000000000000
         H            1.408679919981    -0.738769815030     3.388895001222     1.007825032230
         H            0.758262919981    -1.302143815030     1.746458001222     1.007825032230

  Charge       = 0
  Multiplicity = 1
  Basis Set: AUG-CC-PVQZ
    Blend: AUG-CC-PVQZ
  Basis Set: (AUG-CC-PVQZ AUX)
    Blend: AUG-CC-PVQZ-JKFIT

    Orbital Energies [Eh]
    ---------------------

    Doubly Occupied:

       1A    -20.510545     2A    -15.585715     3A    -11.347860
       4A    -11.257044     5A    -11.231179     6A    -11.220023
       7A    -11.217257     8A     -1.376202     9A     -1.231628
      10A     -1.025714    11A     -1.018328    12A     -0.932855
      13A     -0.791742    14A     -0.783130    15A     -0.691216
      16A     -0.654469    17A     -0.648700    18A     -0.624149
      19A     -0.587615    20A     -0.583073    21A     -0.575653
      22A     -0.555281    23A     -0.546053    24A     -0.506714
      25A     -0.498138    26A     -0.423284    27A     -0.394082
      28A     -0.368561

  @DF-RHF Final Energy:  -325.18594415792859

   => Energetics <=

    Nuclear Repulsion Energy =            302.1234640664209792
    One-Electron Energy =               -1040.2463906704713281
    Two-Electron Energy =                 412.9369824461217604
    Total Energy =                       -325.1859441579285885

  Dipole Moment: [D]
     X:    -0.1949      Y:     3.7390      Z:    -1.0958     Total:     3.9012

  Basis Set: (AUG-CC-PVQZ AUX)
    Blend: AUG-CC-PVQZ-RI
	 Reference Energy          =    -325.1859441579285885 [Eh]
	 Singles Energy            =      -0.0000000000000000 [Eh]
	 Same-Spin Energy          =      -0.3462302497853723 [Eh]
	 Opposite-Spin Energy      =      -1.2481631846705028 [Eh]
	 Correlation Energy        =      -1.5943934344558750 [Eh]
	 Total Energy              =    -326.7803375923844555 [Eh]

	 ================> DF-SCS-MP2 Energies <==================
	-----------------------------------------------------------
	 SCS Same-Spin Scale       =       0.3333333333333333 [-]
	 SCS Opposite-Spin Scale   =       1.2000000000000000 [-]
	 SCS Same-Spin Energy      =      -0.1154100832617908 [Eh]
	 SCS Opposite-Spin Energy  =      -1.4977958216046032 [Eh]
	 SCS Correlation Energy    =      -1.6132059048663940 [Eh]
	 SCS Total Energy          =    -326.7991500627949790 [Eh]
	-----------------------------------------------------------

*** Psi4 exiting successfully. Buy a developer a beer!
