                               Psi4 1.4a2.dev224

  ==> Input File <==

--------------------------------------------------------------------------
#Generated by lconvert.py for cbs job

memory 20 GB

molecule  {
0 1
  C       1.629720    0.503010    0.270110
  H       1.641570    1.459240   -0.248080
  H       2.315320   -0.183550   -0.217590
  H       1.969750    0.649360    1.293980
  C       0.261830   -0.132860    0.314560
  O       0.099250   -1.309620    0.611840
  N      -0.773500    0.702510    0.022080
  H      -0.569010    1.666560   -0.165810
  C      -2.150010    0.265970    0.095050
  H      -2.144740   -0.819410    0.100910
  H      -2.640540    0.615820    1.003600
  H      -2.707740    0.620750   -0.768260
--
0 1
  C       0.076760    0.510430    4.586360
  H       0.071870    1.252600    5.372240
  H      -0.571780    0.678200    3.737680
  C       0.845270   -0.576530    4.656170
  H       1.490570   -0.748360    5.506300
  H       0.840150   -1.311740    3.863860
units angstrom
no_reorient
symmetry c1
}

set {
scf_type DF
mp2_type DF
e_convergence 7
reference rhf
}

energy('mp2/aug-cc-pv[tq]z', bsse_type='cp')
--------------------------------------------------------------------------

    Molecular point group: c1
  Charge       = 0
  Multiplicity = 1
  Basis Set: AUG-CC-PVTZ
    Blend: AUG-CC-PVTZ
  Basis Set: (AUG-CC-PVTZ AUX)
    Blend: AUG-CC-PVTZ-JKFIT
  @DF-RHF Final Energy:   -78.06463898753243
    Total Energy =                        -78.0646389875324331
  Basis Set: (AUG-CC-PVTZ AUX)
    Blend: AUG-CC-PVTZ-RI
	 Reference Energy          =     -78.0646389875324331 [Eh]
	 Singles Energy            =      -0.0000000000000000 [Eh]
	 Same-Spin Energy          =      -0.0765734421366485 [Eh]
	 Opposite-Spin Energy      =      -0.2986022847535048 [Eh]
	 Correlation Energy        =      -0.3751757268901532 [Eh]
	 Total Energy              =     -78.4398147144225817 [Eh]
	 SCS Total Energy          =     -78.4484862099488538 [Eh]
    Molecular point group: c1
  Basis Set: AUG-CC-PVQZ
    Blend: AUG-CC-PVQZ
  Basis Set: (AUG-CC-PVQZ AUX)
    Blend: AUG-CC-PVQZ-JKFIT
  @DF-RHF Final Energy:   -78.06935017880681
    Total Energy =                        -78.0693501788068147
  Basis Set: (AUG-CC-PVQZ AUX)
  @DF-RHF Final Energy:   -78.06467317250295
    Total Energy =                        -78.0646731725029497
  @DF-RHF Final Energy:   -78.06936107507586
    Total Energy =                        -78.0693610750758609
  @DF-RHF Final Energy:  -247.10288082505957
    Total Energy =                       -247.1028808250595716
  @DF-RHF Final Energy:  -247.11829805621929
    Total Energy =                       -247.1182980562192597
  @DF-RHF Final Energy:  -247.10282463193974
    Total Energy =                       -247.1028246319397113
  @DF-RHF Final Energy:  -247.11827801562424
    Total Energy =                       -247.1182780156242416
  Multiplicity = 1
  @DF-RHF Final Energy:  -325.16849646617527
    Total Energy =                       -325.1684964661752701
	 Singles Energy            =      -0.0000000000000000 [Eh]
	 Same-Spin Energy          =      -0.3239690170614558 [Eh]
	 Opposite-Spin Energy      =      -1.1102054913944430 [Eh]
	 Correlation Energy        =      -1.4341745084558988 [Eh]
	 Total Energy              =    -326.6026709746311667 [Eh]
	 SCS Total Energy          =    -326.6087327282024262 [Eh]
    Molecular point group: c1

    Geometry (in Angstrom), charge = 0, multiplicity = 1:

       Center              X                  Y                   Z               Mass
    ------------   -----------------  -----------------  -----------------  -----------------
         C            1.645429754359     0.506570339516    -1.201870478931    12.000000000000
         H            1.657279754359     1.462800339516    -1.720060478931     1.007825032230
         H            2.331029754359    -0.179989660484    -1.689570478931     1.007825032230
         H            1.985459754359     0.652920339516    -0.178000478931     1.007825032230
         C            0.277539754359    -0.129299660484    -1.157420478931    12.000000000000
         O            0.114959754359    -1.306059660484    -0.860140478931    15.994914619570
         N           -0.757790245641     0.706070339516    -1.449900478931    14.003074004430
         H           -0.553300245641     1.670120339516    -1.637790478931     1.007825032230
         C           -2.134300245641     0.269530339516    -1.376930478931    12.000000000000
         H           -2.129030245641    -0.815849660484    -1.371070478931     1.007825032230
         H           -2.624830245641     0.619380339516    -0.468380478931     1.007825032230
         H           -2.692030245641     0.624310339516    -2.240240478931     1.007825032230
         C            0.092469754359     0.513990339516     3.114379521069    12.000000000000
         H            0.087579754359     1.256160339516     3.900259521069     1.007825032230
         H           -0.556070245641     0.681760339516     2.265699521069     1.007825032230
         C            0.860979754359    -0.572969660484     3.184189521069    12.000000000000
         H            1.506279754359    -0.744799660484     4.034319521069     1.007825032230
         H            0.855859754359    -1.308179660484     2.391879521069     1.007825032230

  Charge       = 0
  Multiplicity = 1
  Basis Set: AUG-CC-PVQZ
    Blend: AUG-CC-PVQZ
  Basis Set: (AUG-CC-PVQZ AUX)
    Blend: AUG-CC-PVQZ-JKFIT

    Orbital Energies [Eh]
    ---------------------

    Doubly Occupied:

       1A    -20.509572     2A    -15.584955     3A    -11.346871
       4A    -11.256086     5A    -11.232965     6A    -11.224759
       7A    -11.222931     8A     -1.374196     9A     -1.230318
      10A     -1.029173    11A     -1.018799    12A     -0.932377
      13A     -0.790053    14A     -0.787380    15A     -0.690813
      16A     -0.652977    17A     -0.641259    18A     -0.633183
      19A     -0.587693    20A     -0.581657    21A     -0.580796
      22A     -0.555393    23A     -0.545380    24A     -0.504841
      25A     -0.503404    26A     -0.421997    27A     -0.392909
      28A     -0.372291

  @DF-RHF Final Energy:  -325.18859814241171

   => Energetics <=

    Nuclear Repulsion Energy =            286.2797669744436462
    One-Electron Energy =               -1008.5266668809772455
    Two-Electron Energy =                 397.0583017641218930
    Total Energy =                       -325.1885981424117062

  Dipole Moment: [D]
     X:    -0.2105      Y:     3.8509      Z:    -0.9942     Total:     3.9827

  Basis Set: (AUG-CC-PVQZ AUX)
    Blend: AUG-CC-PVQZ-RI
	 Reference Energy          =    -325.1885981424117062 [Eh]
	 Singles Energy            =      -0.0000000000000000 [Eh]
	 Same-Spin Energy          =      -0.3436430531260873 [Eh]
	 Opposite-Spin Energy      =      -1.2451186015682068 [Eh]
	 Correlation Energy        =      -1.5887616546942942 [Eh]
	 Total Energy              =    -326.7773597971059871 [Eh]

	 ================> DF-SCS-MP2 Energies <==================
	-----------------------------------------------------------
	 SCS Same-Spin Scale       =       0.3333333333333333 [-]
	 SCS Opposite-Spin Scale   =       1.2000000000000000 [-]
	 SCS Same-Spin Energy      =      -0.1145476843753624 [Eh]
	 SCS Opposite-Spin Energy  =      -1.4941423218818481 [Eh]
	 SCS Correlation Energy    =      -1.6086900062572105 [Eh]
	 SCS Total Energy          =    -326.7972881486689403 [Eh]
	-----------------------------------------------------------

*** Psi4 exiting successfully. Buy a developer a beer!
