                               Psi4 1.4a2.dev224

  ==> Input File <==

--------------------------------------------------------------------------
#Generated by lconvert.py for cbs job

memory 40 GB

molecule  {
0 1
  C        1.6297150     0.5030130     0.2701120
  H        1.6415730     1.4592380    -0.2480830
  H        2.3153190    -0.1835550    -0.2175860
  H        1.9697460     0.6493600     1.2939810
  C        0.2618280    -0.1328610     0.3145620
  O        0.0992530    -1.3096160     0.6118400
  N       -0.7735020     0.7025120     0.0220760
  H       -0.5690110     1.6665570    -0.1658140
  C       -2.1500120     0.2659690     0.0950530
  H       -2.1447380    -0.8194070     0.1009120
  H       -2.6405430     0.6158200     1.0036040
  H       -2.7077440     0.6207510    -0.7682610
--
0 1
  C       -0.1161620     0.5223470     3.3106430
  H       -0.1210430     1.2645210     4.0965260
  H       -0.7646950     0.6901160     2.4619600
  C        0.6523480    -0.5646150     3.3804530
  H        1.2976530    -0.7364400     4.2305810
  H        0.6472360    -1.2998150     2.5881440
units angstrom
no_reorient
symmetry c1
}

set {
scf_type DF
mp2_type DF
e_convergence 7
reference rhf
}

energy('mp2/aug-cc-pv[tq]z', bsse_type='cp')
--------------------------------------------------------------------------

    Molecular point group: c1
  Charge       = 0
  Multiplicity = 1
  Basis Set: AUG-CC-PVTZ
    Blend: AUG-CC-PVTZ
  Basis Set: (AUG-CC-PVTZ AUX)
    Blend: AUG-CC-PVTZ-JKFIT
  @DF-RHF Final Energy:   -78.06463894428012
    Total Energy =                        -78.0646389442801194
  Basis Set: (AUG-CC-PVTZ AUX)
    Blend: AUG-CC-PVTZ-RI
	 Reference Energy          =     -78.0646389442801194 [Eh]
	 Singles Energy            =      -0.0000000000000000 [Eh]
	 Same-Spin Energy          =      -0.0765734561832989 [Eh]
	 Opposite-Spin Energy      =      -0.2986023199509032 [Eh]
	 Correlation Energy        =      -0.3751757761342022 [Eh]
	 Total Energy              =     -78.4398147204143186 [Eh]
	 SCS Total Energy          =     -78.4484862136156380 [Eh]
    Molecular point group: c1
  Basis Set: AUG-CC-PVQZ
    Blend: AUG-CC-PVQZ
  Basis Set: (AUG-CC-PVQZ AUX)
    Blend: AUG-CC-PVQZ-JKFIT
  @DF-RHF Final Energy:   -78.06935013490782
    Total Energy =                        -78.0693501349078218
  Basis Set: (AUG-CC-PVQZ AUX)
  @DF-RHF Final Energy:   -78.06473545518971
    Total Energy =                        -78.0647354551897052
  @DF-RHF Final Energy:   -78.06938026359430
    Total Energy =                        -78.0693802635942973
  @DF-RHF Final Energy:  -247.10300241660917
    Total Energy =                       -247.1030024166091721
  @DF-RHF Final Energy:  -247.11832875982068
    Total Energy =                       -247.1183287598206562
  @DF-RHF Final Energy:  -247.10282508510076
    Total Energy =                       -247.1028250851007328
  @DF-RHF Final Energy:  -247.11827849220245
    Total Energy =                       -247.1182784922024780
  Multiplicity = 1
  @DF-RHF Final Energy:  -325.15588663757160
    Total Energy =                       -325.1558866375715979
	 Singles Energy            =      -0.0000000000000000 [Eh]
	 Same-Spin Energy          =      -0.3295105692237295 [Eh]
	 Opposite-Spin Energy      =      -1.1180180960072634 [Eh]
	 Correlation Energy        =      -1.4475286652309929 [Eh]
	 Total Energy              =    -326.6034153028026026 [Eh]
	 SCS Total Energy          =    -326.6073452091882245 [Eh]
    Molecular point group: c1

    Geometry (in Angstrom), charge = 0, multiplicity = 1:

       Center              X                  Y                   Z               Mass
    ------------   -----------------  -----------------  -----------------  -----------------
         C            1.698924001696     0.503267803125    -0.848103753852    12.000000000000
         H            1.710782001696     1.459492803125    -1.366298753852     1.007825032230
         H            2.384528001696    -0.183300196875    -1.335801753852     1.007825032230
         H            2.038955001696     0.649614803125     0.175765246148     1.007825032230
         C            0.331037001696    -0.132606196875    -0.803653753852    12.000000000000
         O            0.168462001696    -1.309361196875    -0.506375753852    15.994914619570
         N           -0.704292998304     0.702766803125    -1.096139753852    14.003074004430
         H           -0.499801998304     1.666811803125    -1.284029753852     1.007825032230
         C           -2.080802998304     0.266223803125    -1.023162753852    12.000000000000
         H           -2.075528998304    -0.819152196875    -1.017303753852     1.007825032230
         H           -2.571333998304     0.616074803125    -0.114611753852     1.007825032230
         H           -2.638534998304     0.621005803125    -1.886476753852     1.007825032230
         C           -0.046952998304     0.522601803125     2.192427246148    12.000000000000
         H           -0.051833998304     1.264775803125     2.978310246148     1.007825032230
         H           -0.695485998304     0.690370803125     1.343744246148     1.007825032230
         C            0.721557001696    -0.564360196875     2.262237246148    12.000000000000
         H            1.366862001696    -0.736185196875     3.112365246148     1.007825032230
         H            0.716445001696    -1.299560196875     1.469928246148     1.007825032230

  Charge       = 0
  Multiplicity = 1
  Basis Set: AUG-CC-PVQZ
    Blend: AUG-CC-PVQZ
  Basis Set: (AUG-CC-PVQZ AUX)
    Blend: AUG-CC-PVQZ-JKFIT

    Orbital Energies [Eh]
    ---------------------

    Doubly Occupied:

       1A    -20.511297     2A    -15.586055     3A    -11.349142
       4A    -11.257896     5A    -11.230247     6A    -11.214558
       7A    -11.210246     8A     -1.379241     9A     -1.233343
      10A     -1.023633    11A     -1.017692    12A     -0.933606
      13A     -0.794406    14A     -0.779019    15A     -0.692140
      16A     -0.661001    17A     -0.654717    18A     -0.615717
      19A     -0.587948    20A     -0.585530    21A     -0.569854
      22A     -0.555655    23A     -0.546791    24A     -0.509056
      25A     -0.492859    26A     -0.424641    27A     -0.393550
      28A     -0.364073

  @DF-RHF Final Energy:  -325.17590223421968

   => Energetics <=

    Nuclear Repulsion Energy =            311.0354103145999716
    One-Electron Energy =               -1058.0747928141202010
    Two-Electron Energy =                 421.8634802653005522
    Total Energy =                       -325.1759022342196772

  Dipole Moment: [D]
     X:    -0.1889      Y:     3.6645      Z:    -1.2345     Total:     3.8715

  Basis Set: (AUG-CC-PVQZ AUX)
    Blend: AUG-CC-PVQZ-RI
	 Reference Energy          =    -325.1759022342196772 [Eh]
	 Singles Energy            =      -0.0000000000000000 [Eh]
	 Same-Spin Energy          =      -0.3491364580924290 [Eh]
	 Opposite-Spin Energy      =      -1.2515494783227508 [Eh]
	 Correlation Energy        =      -1.6006859364151798 [Eh]
	 Total Energy              =    -326.7765881706348523 [Eh]

	 ================> DF-SCS-MP2 Energies <==================
	-----------------------------------------------------------
	 SCS Same-Spin Scale       =       0.3333333333333333 [-]
	 SCS Opposite-Spin Scale   =       1.2000000000000000 [-]
	 SCS Same-Spin Energy      =      -0.1163788193641430 [Eh]
	 SCS Opposite-Spin Energy  =      -1.5018593739873010 [Eh]
	 SCS Correlation Energy    =      -1.6182381933514440 [Eh]
	 SCS Total Energy          =    -326.7941404275711079 [Eh]
	-----------------------------------------------------------

*** Psi4 exiting successfully. Buy a developer a beer!
