                               Psi4 1.4a2.dev224

  ==> Input File <==

--------------------------------------------------------------------------
#Generated by lconvert.py for cbs job

memory 40 GB

molecule  {
0 1
  C        1.6297150     0.5030130     0.2701120
  H        1.6415730     1.4592380    -0.2480830
  H        2.3153190    -0.1835550    -0.2175860
  H        1.9697460     0.6493600     1.2939810
  C        0.2618280    -0.1328610     0.3145620
  O        0.0992530    -1.3096160     0.6118400
  N       -0.7735020     0.7025120     0.0220760
  H       -0.5690110     1.6665570    -0.1658140
  C       -2.1500120     0.2659690     0.0950530
  H       -2.1447380    -0.8194070     0.1009120
  H       -2.6405430     0.6158200     1.0036040
  H       -2.7077440     0.6207510    -0.7682610
--
0 1
  C       -0.0005430     0.5152030     4.0751940
  H       -0.0054250     1.2573770     4.8610770
  H       -0.6490760     0.6829720     3.2265110
  C        0.7679670    -0.5717580     4.1450040
  H        1.4132720    -0.7435840     4.9951320
  H        0.7628550    -1.3069590     3.3526950
units angstrom
no_reorient
symmetry c1
}

set {
scf_type DF
mp2_type DF
e_convergence 7
reference rhf
}

energy('mp2/aug-cc-pv[tq]z', bsse_type='cp')
--------------------------------------------------------------------------

    Molecular point group: c1
  Charge       = 0
  Multiplicity = 1
  Basis Set: AUG-CC-PVTZ
    Blend: AUG-CC-PVTZ
  Basis Set: (AUG-CC-PVTZ AUX)
    Blend: AUG-CC-PVTZ-JKFIT
  @DF-RHF Final Energy:   -78.06463897599997
    Total Energy =                        -78.0646389759999693
  Basis Set: (AUG-CC-PVTZ AUX)
    Blend: AUG-CC-PVTZ-RI
	 Reference Energy          =     -78.0646389759999693 [Eh]
	 Singles Energy            =      -0.0000000000000000 [Eh]
	 Same-Spin Energy          =      -0.0765734511194837 [Eh]
	 Opposite-Spin Energy      =      -0.2986022989518926 [Eh]
	 Correlation Energy        =      -0.3751757500713763 [Eh]
	 Total Energy              =     -78.4398147260713472 [Eh]
	 SCS Total Energy          =     -78.4484862184487355 [Eh]
    Molecular point group: c1
  Basis Set: AUG-CC-PVQZ
    Blend: AUG-CC-PVQZ
  Basis Set: (AUG-CC-PVQZ AUX)
    Blend: AUG-CC-PVQZ-JKFIT
  @DF-RHF Final Energy:   -78.06935016747316
    Total Energy =                        -78.0693501674731607
  Basis Set: (AUG-CC-PVQZ AUX)
  @DF-RHF Final Energy:   -78.06469049765192
    Total Energy =                        -78.0646904976519238
  @DF-RHF Final Energy:   -78.06936705238169
    Total Energy =                        -78.0693670523816934
  @DF-RHF Final Energy:  -247.10292405530447
    Total Energy =                       -247.1029240553044701
  @DF-RHF Final Energy:  -247.11830674982286
    Total Energy =                       -247.1183067498228638
  @DF-RHF Final Energy:  -247.10282508475183
    Total Energy =                       -247.1028250847518279
  @DF-RHF Final Energy:  -247.11827849280900
    Total Energy =                       -247.1182784928089973
  Multiplicity = 1
  @DF-RHF Final Energy:  -325.16825630703505
    Total Energy =                       -325.1682563070350511
	 Singles Energy            =      -0.0000000000000000 [Eh]
	 Same-Spin Energy          =      -0.3250248092449676 [Eh]
	 Opposite-Spin Energy      =      -1.1118015084479795 [Eh]
	 Correlation Energy        =      -1.4368263176929472 [Eh]
	 Total Energy              =    -326.6050826247279701 [Eh]
	 SCS Total Energy          =    -326.6107597202542934 [Eh]
    Molecular point group: c1

    Geometry (in Angstrom), charge = 0, multiplicity = 1:

       Center              X                  Y                   Z               Mass
    ------------   -----------------  -----------------  -----------------  -----------------
         C            1.666862074680     0.505248764320    -1.060118958835    12.000000000000
         H            1.678720074680     1.461473764320    -1.578313958835     1.007825032230
         H            2.352466074680    -0.181319235680    -1.547816958835     1.007825032230
         H            2.006893074680     0.651595764320    -0.036249958835     1.007825032230
         C            0.298975074680    -0.130625235680    -1.015668958835    12.000000000000
         O            0.136400074680    -1.307380235680    -0.718390958835    15.994914619570
         N           -0.736354925320     0.704747764320    -1.308154958835    14.003074004430
         H           -0.531863925320     1.668792764320    -1.496044958835     1.007825032230
         C           -2.112864925320     0.268204764320    -1.235177958835    12.000000000000
         H           -2.107590925320    -0.817171235680    -1.229318958835     1.007825032230
         H           -2.603395925320     0.618055764320    -0.326626958835     1.007825032230
         H           -2.670596925320     0.622986764320    -2.098491958835     1.007825032230
         C            0.036604074680     0.517438764320     2.744963041165    12.000000000000
         H            0.031722074680     1.259612764320     3.530846041165     1.007825032230
         H           -0.611928925320     0.685207764320     1.896280041165     1.007825032230
         C            0.805114074680    -0.569522235680     2.814773041165    12.000000000000
         H            1.450419074680    -0.741348235680     3.664901041165     1.007825032230
         H            0.800002074680    -1.304723235680     2.022464041165     1.007825032230

  Charge       = 0
  Multiplicity = 1
  Basis Set: AUG-CC-PVQZ
    Blend: AUG-CC-PVQZ
  Basis Set: (AUG-CC-PVQZ AUX)
    Blend: AUG-CC-PVQZ-JKFIT

    Orbital Energies [Eh]
    ---------------------

    Doubly Occupied:

       1A    -20.510062     2A    -15.585343     3A    -11.347282
       4A    -11.256528     5A    -11.232089     6A    -11.222798
       7A    -11.220678     8A     -1.374970     9A     -1.230852
      10A     -1.027554    11A     -1.018558    12A     -0.932556
      13A     -0.790662    14A     -0.785540    15A     -0.690930
      16A     -0.653469    17A     -0.643615    18A     -0.629760
      19A     -0.587567    20A     -0.582054    21A     -0.578777
      22A     -0.555268    23A     -0.545676    24A     -0.505497
      25A     -0.501170    26A     -0.422555    27A     -0.393549
      28A     -0.370770

  @DF-RHF Final Energy:  -325.18831628327285

   => Energetics <=

    Nuclear Repulsion Energy =            294.6250926766867906
    One-Electron Energy =               -1025.2345493984646509
    Two-Electron Energy =                 405.4211404385050059
    Total Energy =                       -325.1883162832728544

  Dipole Moment: [D]
     X:    -0.2021      Y:     3.7949      Z:    -1.0322     Total:     3.9380

  Basis Set: (AUG-CC-PVQZ AUX)
    Blend: AUG-CC-PVQZ-RI
	 Reference Energy          =    -325.1883162832728544 [Eh]
	 Singles Energy            =      -0.0000000000000000 [Eh]
	 Same-Spin Energy          =      -0.3446752679889913 [Eh]
	 Opposite-Spin Energy      =      -1.2463276310120208 [Eh]
	 Correlation Energy        =      -1.5910028990010121 [Eh]
	 Total Energy              =    -326.7793191822738663 [Eh]

	 ================> DF-SCS-MP2 Energies <==================
	-----------------------------------------------------------
	 SCS Same-Spin Scale       =       0.3333333333333333 [-]
	 SCS Opposite-Spin Scale   =       1.2000000000000000 [-]
	 SCS Same-Spin Energy      =      -0.1148917559963304 [Eh]
	 SCS Opposite-Spin Energy  =      -1.4955931572144250 [Eh]
	 SCS Correlation Energy    =      -1.6104849132107555 [Eh]
	 SCS Total Energy          =    -326.7988011964836232 [Eh]
	-----------------------------------------------------------

*** Psi4 exiting successfully. Buy a developer a beer!
