                               Psi4 1.4a2.dev224

  ==> Input File <==

--------------------------------------------------------------------------
#Generated by lconvert.py for cbs job

memory 40 GB

molecule  {
0 1
  C        1.6297150     0.5030130     0.2701120
  H        1.6415730     1.4592380    -0.2480830
  H        2.3153190    -0.1835550    -0.2175860
  H        1.9697460     0.6493600     1.2939810
  C        0.2618280    -0.1328610     0.3145620
  O        0.0992530    -1.3096160     0.6118400
  N       -0.7735020     0.7025120     0.0220760
  H       -0.5690110     1.6665570    -0.1658140
  C       -2.1500120     0.2659690     0.0950530
  H       -2.1447380    -0.8194070     0.1009120
  H       -2.6405430     0.6158200     1.0036040
  H       -2.7077440     0.6207510    -0.7682610
--
0 1
  C       -0.0197870     0.5163920     3.9479450
  H       -0.0246680     1.2585660     4.7338270
  H       -0.6683190     0.6841610     3.0992610
  C        0.7487240    -0.5705690     4.0177540
  H        1.3940290    -0.7423950     4.8678820
  H        0.7436120    -1.3057700     3.2254450
units angstrom
no_reorient
symmetry c1
}

set {
scf_type DF
mp2_type DF
e_convergence 7
reference rhf
}

energy('mp2/aug-cc-pv[tq]z', bsse_type='cp')
--------------------------------------------------------------------------

    Molecular point group: c1
  Charge       = 0
  Multiplicity = 1
  Basis Set: AUG-CC-PVTZ
    Blend: AUG-CC-PVTZ
  Basis Set: (AUG-CC-PVTZ AUX)
    Blend: AUG-CC-PVTZ-JKFIT
  @DF-RHF Final Energy:   -78.06463895755869
    Total Energy =                        -78.0646389575586852
  Basis Set: (AUG-CC-PVTZ AUX)
    Blend: AUG-CC-PVTZ-RI
	 Reference Energy          =     -78.0646389575586852 [Eh]
	 Singles Energy            =      -0.0000000000000000 [Eh]
	 Same-Spin Energy          =      -0.0765734539755179 [Eh]
	 Opposite-Spin Energy      =      -0.2986023119225847 [Eh]
	 Correlation Energy        =      -0.3751757658981026 [Eh]
	 Total Energy              =     -78.4398147234567915 [Eh]
	 SCS Total Energy          =     -78.4484862165242873 [Eh]
    Molecular point group: c1
  Basis Set: AUG-CC-PVQZ
    Blend: AUG-CC-PVQZ
  Basis Set: (AUG-CC-PVQZ AUX)
    Blend: AUG-CC-PVQZ-JKFIT
  @DF-RHF Final Energy:   -78.06935014859029
    Total Energy =                        -78.0693501485902885
  Basis Set: (AUG-CC-PVQZ AUX)
  @DF-RHF Final Energy:   -78.06469534171359
    Total Energy =                        -78.0646953417135876
  @DF-RHF Final Energy:   -78.06936897119246
    Total Energy =                        -78.0693689711924605
  @DF-RHF Final Energy:  -247.10293394333289
    Total Energy =                       -247.1029339433329142
  @DF-RHF Final Energy:  -247.11831004157122
    Total Energy =                       -247.1183100415711920
  @DF-RHF Final Energy:  -247.10282508436285
    Total Energy =                       -247.1028250843628484
  @DF-RHF Final Energy:  -247.11827849245208
    Total Energy =                       -247.1182784924520774
  Multiplicity = 1
  @DF-RHF Final Energy:  -325.16784912457530
    Total Energy =                       -325.1678491245752980
	 Singles Energy            =      -0.0000000000000000 [Eh]
	 Same-Spin Energy          =      -0.3254463697968871 [Eh]
	 Opposite-Spin Energy      =      -1.1123892586830650 [Eh]
	 Correlation Energy        =      -1.4378356284799523 [Eh]
	 Total Energy              =    -326.6056847530552432 [Eh]
	 SCS Total Energy          =    -326.6111983582605944 [Eh]
    Molecular point group: c1

    Geometry (in Angstrom), charge = 0, multiplicity = 1:

       Center              X                  Y                   Z               Mass
    ------------   -----------------  -----------------  -----------------  -----------------
         C            1.672198408491     0.504919046513    -1.024831784962    12.000000000000
         H            1.684056408491     1.461144046513    -1.543026784962     1.007825032230
         H            2.357802408491    -0.181648953487    -1.512529784962     1.007825032230
         H            2.012229408491     0.651266046513    -0.000962784962     1.007825032230
         C            0.304311408491    -0.130954953487    -0.980381784962    12.000000000000
         O            0.141736408491    -1.307709953487    -0.683103784962    15.994914619570
         N           -0.731018591509     0.704418046513    -1.272867784962    14.003074004430
         H           -0.526527591509     1.668463046513    -1.460757784962     1.007825032230
         C           -2.107528591509     0.267875046513    -1.199890784962    12.000000000000
         H           -2.102254591509    -0.817500953487    -1.194031784962     1.007825032230
         H           -2.598059591509     0.617726046513    -0.291339784962     1.007825032230
         H           -2.665260591509     0.622657046513    -2.063204784962     1.007825032230
         C            0.022696408491     0.518298046513     2.653001215038    12.000000000000
         H            0.017815408491     1.260472046513     3.438883215038     1.007825032230
         H           -0.625835591509     0.686067046513     1.804317215038     1.007825032230
         C            0.791207408491    -0.568662953487     2.722810215038    12.000000000000
         H            1.436512408491    -0.740488953487     3.572938215038     1.007825032230
         H            0.786095408491    -1.303863953487     1.930501215038     1.007825032230

  Charge       = 0
  Multiplicity = 1
  Basis Set: AUG-CC-PVQZ
    Blend: AUG-CC-PVQZ
  Basis Set: (AUG-CC-PVQZ AUX)
    Blend: AUG-CC-PVQZ-JKFIT

    Orbital Energies [Eh]
    ---------------------

    Doubly Occupied:

       1A    -20.510209     2A    -15.585462     3A    -11.347435
       4A    -11.256676     5A    -11.231807     6A    -11.222055
       7A    -11.219782     8A     -1.375282     9A     -1.231057
      10A     -1.027010    11A     -1.018487    12A     -0.932630
      13A     -0.790929    14A     -0.784872    15A     -0.690993
      16A     -0.653690    17A     -0.644923    18A     -0.628222
      19A     -0.587557    20A     -0.582301    21A     -0.577941
      22A     -0.555252    23A     -0.545780    24A     -0.505805
      25A     -0.500339    26A     -0.422757    27A     -0.393741
      28A     -0.370186

  @DF-RHF Final Energy:  -325.18790216301454

   => Energetics <=

    Nuclear Repulsion Energy =            296.9881118388147456
    One-Electron Energy =               -1029.9656628514514978
    Two-Electron Energy =                 407.7896488496221536
    Total Energy =                       -325.1879021630145417

  Dipole Moment: [D]
     X:    -0.1997      Y:     3.7779      Z:    -1.0484     Total:     3.9257

  Basis Set: (AUG-CC-PVQZ AUX)
    Blend: AUG-CC-PVQZ-RI
	 Reference Energy          =    -325.1879021630145417 [Eh]
	 Singles Energy            =      -0.0000000000000000 [Eh]
	 Same-Spin Energy          =      -0.3450911201863032 [Eh]
	 Opposite-Spin Energy      =      -1.2468189898128235 [Eh]
	 Correlation Energy        =      -1.5919101099991266 [Eh]
	 Total Energy              =    -326.7798122730136470 [Eh]

	 ================> DF-SCS-MP2 Energies <==================
	-----------------------------------------------------------
	 SCS Same-Spin Scale       =       0.3333333333333333 [-]
	 SCS Opposite-Spin Scale   =       1.2000000000000000 [-]
	 SCS Same-Spin Energy      =      -0.1150303733954344 [Eh]
	 SCS Opposite-Spin Energy  =      -1.4961827877753882 [Eh]
	 SCS Correlation Energy    =      -1.6112131611708225 [Eh]
	 SCS Total Energy          =    -326.7991153241853794 [Eh]
	-----------------------------------------------------------

*** Psi4 exiting successfully. Buy a developer a beer!
