                               Psi4 1.4a2.dev224

  ==> Input File <==

--------------------------------------------------------------------------
#Generated by lconvert.py for cbs job

memory 20 GB

molecule  {
0 1
  N      -0.541060    0.029580   -0.208990
  H       0.055550   -0.786120   -0.130290
  H      -1.469670   -0.274710    0.053140
  C      -0.078800    1.042390    0.738460
  H      -0.720150    1.919410    0.671980
  H      -0.050760    0.723820    1.785510
  H       0.926430    1.356600    0.462000
--
0 1
  N       3.049670   -1.402520    0.079820
  C       3.388100   -0.590180   -0.931890
  H       2.845440   -0.734710   -1.857270
  C       4.359430    0.401960   -0.831520
  H       4.584280    1.026300   -1.684370
  C       5.020270    0.571500    0.380740
  H       5.778130    1.333740    0.497130
  C       4.680140   -0.263460    1.439870
  H       5.162730   -0.173000    2.402570
  C       3.696360   -1.228250    1.240680
  H       3.410270   -1.892000    2.047290
units angstrom
no_reorient
symmetry c1
}

set {
scf_type DF
mp2_type DF
e_convergence 7
reference rhf
}

energy('mp2/aug-cc-pv[tq]z', bsse_type='cp')
--------------------------------------------------------------------------

    Molecular point group: c1
  Charge       = 0
  Multiplicity = 1
  Basis Set: AUG-CC-PVTZ
    Blend: AUG-CC-PVTZ
  Basis Set: (AUG-CC-PVTZ AUX)
    Blend: AUG-CC-PVTZ-JKFIT
  @DF-RHF Final Energy:  -246.77866377249546
    Total Energy =                       -246.7786637724954630
  Basis Set: (AUG-CC-PVTZ AUX)
    Blend: AUG-CC-PVTZ-RI
	 Reference Energy          =    -246.7786637724954630 [Eh]
	 Singles Energy            =      -0.0000000000000000 [Eh]
	 Same-Spin Energy          =      -0.2688004784018712 [Eh]
	 Opposite-Spin Energy      =      -0.8388284121617315 [Eh]
	 Correlation Energy        =      -1.1076288905636027 [Eh]
	 Total Energy              =    -247.8862926630590664 [Eh]
	 SCS Total Energy          =    -247.8748580265568364 [Eh]
    Molecular point group: c1
  Basis Set: AUG-CC-PVQZ
    Blend: AUG-CC-PVQZ
  Basis Set: (AUG-CC-PVQZ AUX)
    Blend: AUG-CC-PVQZ-JKFIT
  @DF-RHF Final Energy:  -246.79280585569364
    Total Energy =                       -246.7928058556936435
  Basis Set: (AUG-CC-PVQZ AUX)
  @DF-RHF Final Energy:  -246.77874847293791
    Total Energy =                       -246.7787484729378775
  @DF-RHF Final Energy:  -246.79282688126693
    Total Energy =                       -246.7928268812669330
  @DF-RHF Final Energy:   -95.25535632824482
    Total Energy =                        -95.2553563282448152
  @DF-RHF Final Energy:   -95.26132353394614
    Total Energy =                        -95.2613235339461397
  @DF-RHF Final Energy:   -95.25533052462966
    Total Energy =                        -95.2553305246296560
  @DF-RHF Final Energy:   -95.26131332502626
    Total Energy =                        -95.2613133250262649
  Multiplicity = 1
  @DF-RHF Final Energy:  -342.03558304510705
    Total Energy =                       -342.0355830451070460
	 Singles Energy            =      -0.0000000000000000 [Eh]
	 Same-Spin Energy          =      -0.3656947787939998 [Eh]
	 Opposite-Spin Energy      =      -1.1931567034728203 [Eh]
	 Correlation Energy        =      -1.5588514822668200 [Eh]
	 Total Energy              =    -343.5944345273738918 [Eh]
	 SCS Total Energy          =    -343.5892693488724490 [Eh]
    Molecular point group: c1

    Geometry (in Angstrom), charge = 0, multiplicity = 1:

       Center              X                  Y                   Z               Mass
    ------------   -----------------  -----------------  -----------------  -----------------
         N           -3.344337243862     0.188539610545    -0.453422741151    14.003074004430
         H           -2.747727243862    -0.627160389455    -0.374722741151     1.007825032230
         H           -4.272947243862    -0.115750389455    -0.191292741151     1.007825032230
         C           -2.882077243862     1.201349610545     0.494027258849    12.000000000000
         H           -3.523427243862     2.078369610545     0.427547258849     1.007825032230
         H           -2.854037243862     0.882779610545     1.541077258849     1.007825032230
         H           -1.876847243862     1.515559610545     0.217567258849     1.007825032230
         N            0.246392756138    -1.243560389455    -0.164612741151    14.003074004430
         C            0.584822756138    -0.431220389455    -1.176322741151    12.000000000000
         H            0.042162756138    -0.575750389455    -2.101702741151     1.007825032230
         C            1.556152756138     0.560919610545    -1.075952741151    12.000000000000
         H            1.781002756138     1.185259610545    -1.928802741151     1.007825032230
         C            2.216992756138     0.730459610545     0.136307258849    12.000000000000
         H            2.974852756138     1.492699610545     0.252697258849     1.007825032230
         C            1.876862756138    -0.104500389455     1.195437258849    12.000000000000
         H            2.359452756138    -0.014040389455     2.158137258849     1.007825032230
         C            0.893082756138    -1.069290389455     0.996247258849    12.000000000000
         H            0.606992756138    -1.733040389455     1.802857258849     1.007825032230

  Charge       = 0
  Multiplicity = 1
  Basis Set: AUG-CC-PVQZ
    Blend: AUG-CC-PVQZ
  Basis Set: (AUG-CC-PVQZ AUX)
    Blend: AUG-CC-PVQZ-JKFIT

    Orbital Energies [Eh]
    ---------------------

    Doubly Occupied:

       1A    -15.568041     2A    -15.527795     3A    -11.277251
       4A    -11.276197     5A    -11.261850     6A    -11.243630
       7A    -11.243025     8A    -11.230464     9A     -1.259037
      10A     -1.160873    11A     -1.092025    12A     -1.036100
      13A     -0.886106    14A     -0.861782    15A     -0.858377
      16A     -0.724649    17A     -0.663208    18A     -0.656585
      19A     -0.652590    20A     -0.600970    21A     -0.594840
      22A     -0.579969    23A     -0.547040    24A     -0.542976
      25A     -0.522565    26A     -0.506910    27A     -0.423232
      28A     -0.387166    29A     -0.384243    30A     -0.350448

  @DF-RHF Final Energy:  -342.05562689220915

   => Energetics <=

    Nuclear Repulsion Energy =            334.3716148106024662
    One-Electron Energy =               -1125.0145855682037563
    Two-Electron Energy =                 448.5873438653920857
    Total Energy =                       -342.0556268922091476

  Dipole Moment: [D]
     X:     1.7954      Y:     1.0285      Z:     1.4977     Total:     2.5543

  Basis Set: (AUG-CC-PVQZ AUX)
    Blend: AUG-CC-PVQZ-RI
	 Reference Energy          =    -342.0556268922091476 [Eh]
	 Singles Energy            =      -0.0000000000000000 [Eh]
	 Same-Spin Energy          =      -0.3867275744151658 [Eh]
	 Opposite-Spin Energy      =      -1.3366811318531917 [Eh]
	 Correlation Energy        =      -1.7234087062683574 [Eh]
	 Total Energy              =    -343.7790355984774919 [Eh]

	 ================> DF-SCS-MP2 Energies <==================
	-----------------------------------------------------------
	 SCS Same-Spin Scale       =       0.3333333333333333 [-]
	 SCS Opposite-Spin Scale   =       1.2000000000000000 [-]
	 SCS Same-Spin Energy      =      -0.1289091914717219 [Eh]
	 SCS Opposite-Spin Energy  =      -1.6040173582238300 [Eh]
	 SCS Correlation Energy    =      -1.7329265496955519 [Eh]
	 SCS Total Energy          =    -343.7885534419046962 [Eh]
	-----------------------------------------------------------

*** Psi4 exiting successfully. Buy a developer a beer!
