                               Psi4 1.4a2.dev224

  ==> Input File <==

--------------------------------------------------------------------------
#Generated by lconvert.py for cbs job

memory 40 GB

molecule  {
0 1
  N       -0.5410590     0.0295760    -0.2089950
  H        0.0555530    -0.7861180    -0.1302930
  H       -1.4696690    -0.2747080     0.0531430
  C       -0.0787990     1.0423900     0.7384590
  H       -0.7201530     1.9194140     0.6719800
  H       -0.0507580     0.7238230     1.7855150
  H        0.9264310     1.3566040     0.4619990
--
0 1
  N        2.5890480    -1.3076910     0.0475010
  C        2.9274840    -0.4953470    -0.9642120
  H        2.3848170    -0.6398850    -1.8895930
  C        3.8988130     0.4967870    -0.8638450
  H        4.1236660     1.1211270    -1.7166960
  C        4.5596530     0.6663280     0.3484200
  H        5.3175070     1.4285660     0.4648040
  C        4.2195200    -0.1686340     1.4075430
  H        4.7021090    -0.0781720     2.3702430
  C        3.2357390    -1.1334230     1.2083590
  H        2.9496540    -1.7971710     2.0149700
units angstrom
no_reorient
symmetry c1
}

set {
scf_type DF
mp2_type DF
e_convergence 7
reference rhf
}

energy('mp2/aug-cc-pv[tq]z', bsse_type='cp')
--------------------------------------------------------------------------

    Molecular point group: c1
  Charge       = 0
  Multiplicity = 1
  Basis Set: AUG-CC-PVTZ
    Blend: AUG-CC-PVTZ
  Basis Set: (AUG-CC-PVTZ AUX)
    Blend: AUG-CC-PVTZ-JKFIT
  @DF-RHF Final Energy:  -246.77866364940530
    Total Energy =                       -246.7786636494053027
  Basis Set: (AUG-CC-PVTZ AUX)
    Blend: AUG-CC-PVTZ-RI
	 Reference Energy          =    -246.7786636494053027 [Eh]
	 Singles Energy            =      -0.0000000000000000 [Eh]
	 Same-Spin Energy          =      -0.2688005166410085 [Eh]
	 Opposite-Spin Energy      =      -0.8388285038078263 [Eh]
	 Correlation Energy        =      -1.1076290204488348 [Eh]
	 Total Energy              =    -247.8862926698541287 [Eh]
	 SCS Total Energy          =    -247.8748580261883774 [Eh]
    Molecular point group: c1
  Basis Set: AUG-CC-PVQZ
    Blend: AUG-CC-PVQZ
  Basis Set: (AUG-CC-PVQZ AUX)
    Blend: AUG-CC-PVQZ-JKFIT
  @DF-RHF Final Energy:  -246.79280572900439
    Total Energy =                       -246.7928057290043853
  Basis Set: (AUG-CC-PVQZ AUX)
  @DF-RHF Final Energy:  -246.77878376016872
    Total Energy =                       -246.7787837601687215
  @DF-RHF Final Energy:  -246.79283798975561
    Total Energy =                       -246.7928379897556397
  @DF-RHF Final Energy:   -95.25536684357566
    Total Energy =                        -95.2553668435756578
  @DF-RHF Final Energy:   -95.26132780747051
    Total Energy =                        -95.2613278074705079
  @DF-RHF Final Energy:   -95.25533038194691
    Total Energy =                        -95.2553303819469050
  @DF-RHF Final Energy:   -95.26131317217566
    Total Energy =                        -95.2613131721756616
  Multiplicity = 1
  @DF-RHF Final Energy:  -342.03511167602795
    Total Energy =                       -342.0351116760279524
	 Singles Energy            =      -0.0000000000000000 [Eh]
	 Same-Spin Energy          =      -0.3670701930980824 [Eh]
	 Opposite-Spin Energy      =      -1.1950899388404128 [Eh]
	 Correlation Energy        =      -1.5621601319384952 [Eh]
	 Total Energy              =    -343.5972718079664219 [Eh]
	 SCS Total Energy          =    -343.5915763336691384 [Eh]
    Molecular point group: c1

    Geometry (in Angstrom), charge = 0, multiplicity = 1:

       Center              X                  Y                   Z               Mass
    ------------   -----------------  -----------------  -----------------  -----------------
         N           -3.013605411156     0.120447908336    -0.430219093341    14.003074004430
         H           -2.416993411156    -0.695246091664    -0.351517093341     1.007825032230
         H           -3.942215411156    -0.183836091664    -0.168081093341     1.007825032230
         C           -2.551345411156     1.133261908336     0.517234906659    12.000000000000
         H           -3.192699411156     2.010285908336     0.450755906659     1.007825032230
         H           -2.523304411156     0.814694908336     1.564290906659     1.007825032230
         H           -1.546115411156     1.447475908336     0.240774906659     1.007825032230
         N            0.116501588844    -1.216819091664    -0.173723093341    14.003074004430
         C            0.454937588844    -0.404475091664    -1.185436093341    12.000000000000
         H           -0.087729411156    -0.549013091664    -2.110817093341     1.007825032230
         C            1.426266588844     0.587658908336    -1.085069093341    12.000000000000
         H            1.651119588844     1.211998908336    -1.937920093341     1.007825032230
         C            2.087106588844     0.757199908336     0.127195906659    12.000000000000
         H            2.844960588844     1.519437908336     0.243579906659     1.007825032230
         C            1.746973588844    -0.077762091664     1.186318906659    12.000000000000
         H            2.229562588844     0.012699908336     2.149018906659     1.007825032230
         C            0.763192588844    -1.042551091664     0.987134906659    12.000000000000
         H            0.477107588844    -1.706299091664     1.793745906659     1.007825032230

  Charge       = 0
  Multiplicity = 1
  Basis Set: AUG-CC-PVQZ
    Blend: AUG-CC-PVQZ
  Basis Set: (AUG-CC-PVQZ AUX)
    Blend: AUG-CC-PVQZ-JKFIT

    Orbital Energies [Eh]
    ---------------------

    Doubly Occupied:

       1A    -15.568464     2A    -15.523912     3A    -11.278141
       4A    -11.276481     5A    -11.262517     6A    -11.244110
       7A    -11.243264     8A    -11.228240     9A     -1.260011
      10A     -1.157771    11A     -1.092689    12A     -1.036643
      13A     -0.883832    14A     -0.862327    15A     -0.859017
      16A     -0.725352    17A     -0.663896    18A     -0.656976
      19A     -0.650672    20A     -0.601389    21A     -0.592616
      22A     -0.580497    23A     -0.547734    24A     -0.540155
      25A     -0.522981    26A     -0.504395    27A     -0.424501
      28A     -0.388102    29A     -0.381166    30A     -0.350871

  @DF-RHF Final Energy:  -342.05513427303231

   => Energetics <=

    Nuclear Repulsion Energy =            343.4538196561044856
    One-Electron Energy =               -1143.2004561977137200
    Two-Electron Energy =                 457.6915022685768690
    Total Energy =                       -342.0551342730323086

  Dipole Moment: [D]
     X:     1.8587      Y:     1.0035      Z:     1.4642     Total:     2.5701

  Basis Set: (AUG-CC-PVQZ AUX)
    Blend: AUG-CC-PVQZ-RI
	 Reference Energy          =    -342.0551342730323086 [Eh]
	 Singles Energy            =      -0.0000000000000000 [Eh]
	 Same-Spin Energy          =      -0.3880762719450147 [Eh]
	 Opposite-Spin Energy      =      -1.3383036198631961 [Eh]
	 Correlation Energy        =      -1.7263798918082109 [Eh]
	 Total Energy              =    -343.7815141648405302 [Eh]

	 ================> DF-SCS-MP2 Energies <==================
	-----------------------------------------------------------
	 SCS Same-Spin Scale       =       0.3333333333333333 [-]
	 SCS Opposite-Spin Scale   =       1.2000000000000000 [-]
	 SCS Same-Spin Energy      =      -0.1293587573150049 [Eh]
	 SCS Opposite-Spin Energy  =      -1.6059643438358353 [Eh]
	 SCS Correlation Energy    =      -1.7353231011508403 [Eh]
	 SCS Total Energy          =    -343.7904573741831769 [Eh]
	-----------------------------------------------------------

*** Psi4 exiting successfully. Buy a developer a beer!
