                               Psi4 1.4a2.dev224

  ==> Input File <==

--------------------------------------------------------------------------
#Generated by lconvert.py for cbs job

memory 20 GB

molecule  {
0 1
  N      -0.541060    0.029580   -0.208990
  H       0.055550   -0.786120   -0.130290
  H      -1.469670   -0.274710    0.053140
  C      -0.078800    1.042390    0.738460
  H      -0.720150    1.919410    0.671980
  H      -0.050760    0.723820    1.785510
  H       0.926430    1.356600    0.462000
--
0 1
  N       3.740590   -1.544760    0.128310
  C       4.079030   -0.732420   -0.883400
  H       3.536360   -0.876960   -1.808780
  C       5.050360    0.259720   -0.783040
  H       5.275210    0.884060   -1.635890
  C       5.711200    0.429260    0.429230
  H       6.469050    1.191500    0.545610
  C       5.371060   -0.405700    1.488350
  H       5.853650   -0.315240    2.451050
  C       4.387280   -1.370490    1.289170
  H       4.101200   -2.034240    2.095780
units angstrom
no_reorient
symmetry c1
}

set {
scf_type DF
mp2_type DF
e_convergence 7
reference rhf
}

energy('mp2/aug-cc-pv[tq]z', bsse_type='cp')
--------------------------------------------------------------------------

    Molecular point group: c1
  Charge       = 0
  Multiplicity = 1
  Basis Set: AUG-CC-PVTZ
    Blend: AUG-CC-PVTZ
  Basis Set: (AUG-CC-PVTZ AUX)
    Blend: AUG-CC-PVTZ-JKFIT
  @DF-RHF Final Energy:  -246.77866364620897
    Total Energy =                       -246.7786636462089973
  Basis Set: (AUG-CC-PVTZ AUX)
    Blend: AUG-CC-PVTZ-RI
	 Reference Energy          =    -246.7786636462089689 [Eh]
	 Singles Energy            =      -0.0000000000000000 [Eh]
	 Same-Spin Energy          =      -0.2688004985933198 [Eh]
	 Opposite-Spin Energy      =      -0.8388284951361813 [Eh]
	 Correlation Energy        =      -1.1076289937295010 [Eh]
	 Total Energy              =    -247.8862926399384605 [Eh]
	 SCS Total Energy          =    -247.8748580065701503 [Eh]
    Molecular point group: c1
  Basis Set: AUG-CC-PVQZ
    Blend: AUG-CC-PVQZ
  Basis Set: (AUG-CC-PVQZ AUX)
    Blend: AUG-CC-PVQZ-JKFIT
  @DF-RHF Final Energy:  -246.79280572483486
    Total Energy =                       -246.7928057248348637
  Basis Set: (AUG-CC-PVQZ AUX)
  @DF-RHF Final Energy:  -246.77870365627567
    Total Energy =                       -246.7787036562756953
  @DF-RHF Final Energy:  -246.79281834640443
    Total Energy =                       -246.7928183464044309
  @DF-RHF Final Energy:   -95.25534613576667
    Total Energy =                        -95.2553461357666720
  @DF-RHF Final Energy:   -95.26131989066700
    Total Energy =                        -95.2613198906669965
  @DF-RHF Final Energy:   -95.25533052453449
    Total Energy =                        -95.2553305245344859
  @DF-RHF Final Energy:   -95.26131332501262
    Total Energy =                        -95.2613133250126225
  Multiplicity = 1
  @DF-RHF Final Energy:  -342.03504436422060
    Total Energy =                       -342.0350443642205960
	 Singles Energy            =      -0.0000000000000000 [Eh]
	 Same-Spin Energy          =      -0.3648199849439282 [Eh]
	 Opposite-Spin Energy      =      -1.1916953739342278 [Eh]
	 Correlation Energy        =      -1.5565153588781560 [Eh]
	 Total Energy              =    -343.5915597230987260 [Eh]
	 SCS Total Energy          =    -343.5866854745896717 [Eh]
    Molecular point group: c1

    Geometry (in Angstrom), charge = 0, multiplicity = 1:

       Center              X                  Y                   Z               Mass
    ------------   -----------------  -----------------  -----------------  -----------------
         N           -3.840431306525     0.290670090959    -0.488236811636    14.003074004430
         H           -3.243821306525    -0.525029909041    -0.409536811636     1.007825032230
         H           -4.769041306525    -0.013619909041    -0.226106811636     1.007825032230
         C           -3.378171306525     1.303480090959     0.459213188364    12.000000000000
         H           -4.019521306525     2.180500090959     0.392733188364     1.007825032230
         H           -3.350131306525     0.984910090959     1.506263188364     1.007825032230
         H           -2.372941306525     1.617690090959     0.182753188364     1.007825032230
         N            0.441218693475    -1.283669909041    -0.150936811636    14.003074004430
         C            0.779658693475    -0.471329909041    -1.162646811636    12.000000000000
         H            0.236988693475    -0.615869909041    -2.088026811636     1.007825032230
         C            1.750988693475     0.520810090959    -1.062286811636    12.000000000000
         H            1.975838693475     1.145150090959    -1.915136811636     1.007825032230
         C            2.411828693475     0.690350090959     0.149983188364    12.000000000000
         H            3.169678693475     1.452590090959     0.266363188364     1.007825032230
         C            2.071688693475    -0.144609909041     1.209103188364    12.000000000000
         H            2.554278693475    -0.054149909041     2.171803188364     1.007825032230
         C            1.087908693475    -1.109399909041     1.009923188364    12.000000000000
         H            0.801828693475    -1.773149909041     1.816533188364     1.007825032230

  Charge       = 0
  Multiplicity = 1
  Basis Set: AUG-CC-PVQZ
    Blend: AUG-CC-PVQZ
  Basis Set: (AUG-CC-PVQZ AUX)
    Blend: AUG-CC-PVQZ-JKFIT

    Orbital Energies [Eh]
    ---------------------

    Doubly Occupied:

       1A    -15.567237     2A    -15.531094     3A    -11.276346
       4A    -11.275750     5A    -11.261153     6A    -11.243042
       7A    -11.242636     8A    -11.232724     9A     -1.258115
      10A     -1.163885    11A     -1.091334    12A     -1.035488
      13A     -0.888522    14A     -0.861186    15A     -0.857689
      16A     -0.723999    17A     -0.662511    18A     -0.656118
      19A     -0.655370    20A     -0.600462    21A     -0.597284
      22A     -0.579266    23A     -0.548274    24A     -0.543378
      25A     -0.522051    26A     -0.509523    27A     -0.422036
      28A     -0.387137    29A     -0.386099    30A     -0.349905

  @DF-RHF Final Energy:  -342.05513013297849

   => Energetics <=

    Nuclear Repulsion Energy =            323.4615408648473931
    One-Electron Energy =               -1103.1741041128993857
    Two-Electron Energy =                 437.6574331150735020
    Total Energy =                       -342.0551301329784906

  Dipole Moment: [D]
     X:     1.7294      Y:     1.0479      Z:     1.5282     Total:     2.5347

  Basis Set: (AUG-CC-PVQZ AUX)
    Blend: AUG-CC-PVQZ-RI
	 Reference Energy          =    -342.0551301329784906 [Eh]
	 Singles Energy            =      -0.0000000000000000 [Eh]
	 Same-Spin Energy          =      -0.3858861760862043 [Eh]
	 Opposite-Spin Energy      =      -1.3356636514558065 [Eh]
	 Correlation Energy        =      -1.7215498275420109 [Eh]
	 Total Energy              =    -343.7766799605204824 [Eh]

	 ================> DF-SCS-MP2 Energies <==================
	-----------------------------------------------------------
	 SCS Same-Spin Scale       =       0.3333333333333333 [-]
	 SCS Opposite-Spin Scale   =       1.2000000000000000 [-]
	 SCS Same-Spin Energy      =      -0.1286287253620681 [Eh]
	 SCS Opposite-Spin Energy  =      -1.6027963817469677 [Eh]
	 SCS Correlation Energy    =      -1.7314251071090359 [Eh]
	 SCS Total Energy          =    -343.7865552400875231 [Eh]
	-----------------------------------------------------------

*** Psi4 exiting successfully. Buy a developer a beer!
