                               Psi4 1.4a2.dev224

  ==> Input File <==

--------------------------------------------------------------------------
#Generated by lconvert.py for cbs job

memory 40 GB

molecule  {
0 1
  N       -0.5410590     0.0295760    -0.2089950
  H        0.0555530    -0.7861180    -0.1302930
  H       -1.4696690    -0.2747080     0.0531430
  C       -0.0787990     1.0423900     0.7384590
  H       -0.7201530     1.9194140     0.6719800
  H       -0.0507580     0.7238230     1.7855150
  H        0.9264310     1.3566040     0.4619990
--
0 1
  N        2.1284300    -1.2128630     0.0151760
  C        2.4668660    -0.4005190    -0.9965370
  H        1.9241990    -0.5450570    -1.9219180
  C        3.4381960     0.5916150    -0.8961700
  H        3.6630480     1.2159550    -1.7490200
  C        4.0990360     0.7611560     0.3160950
  H        4.8568900     1.5233940     0.4324790
  C        3.7589030    -0.0738060     1.3752180
  H        4.2414910     0.0166560     2.3379180
  C        2.7751210    -1.0385950     1.1760340
  H        2.4890370    -1.7023430     1.9826450
units angstrom
no_reorient
symmetry c1
}

set {
scf_type DF
mp2_type DF
e_convergence 7
reference rhf
}

energy('mp2/aug-cc-pv[tq]z', bsse_type='cp')
--------------------------------------------------------------------------

    Molecular point group: c1
  Charge       = 0
  Multiplicity = 1
  Basis Set: AUG-CC-PVTZ
    Blend: AUG-CC-PVTZ
  Basis Set: (AUG-CC-PVTZ AUX)
    Blend: AUG-CC-PVTZ-JKFIT
  @DF-RHF Final Energy:  -246.77866363646848
    Total Energy =                       -246.7786636364684796
  Basis Set: (AUG-CC-PVTZ AUX)
    Blend: AUG-CC-PVTZ-RI
	 Reference Energy          =    -246.7786636364684796 [Eh]
	 Singles Energy            =      -0.0000000000000000 [Eh]
	 Same-Spin Energy          =      -0.2688005149220422 [Eh]
	 Opposite-Spin Energy      =      -0.8388285089016918 [Eh]
	 Correlation Energy        =      -1.1076290238237338 [Eh]
	 Total Energy              =    -247.8862926602922130 [Eh]
	 SCS Total Energy          =    -247.8748580187912012 [Eh]
    Molecular point group: c1
  Basis Set: AUG-CC-PVQZ
    Blend: AUG-CC-PVQZ
  Basis Set: (AUG-CC-PVQZ AUX)
    Blend: AUG-CC-PVQZ-JKFIT
  @DF-RHF Final Energy:  -246.79280571743988
    Total Energy =                       -246.7928057174398759
  Basis Set: (AUG-CC-PVQZ AUX)
  @DF-RHF Final Energy:  -246.77883032379208
    Total Energy =                       -246.7788303237920786
  @DF-RHF Final Energy:  -246.79285385513097
    Total Energy =                       -246.7928538551309430
  @DF-RHF Final Energy:   -95.25538577877076
    Total Energy =                        -95.2553857787707585
  @DF-RHF Final Energy:   -95.26133429277856
    Total Energy =                        -95.2613342927785567
  @DF-RHF Final Energy:   -95.25533038197737
    Total Energy =                        -95.2553303819773731
  @DF-RHF Final Energy:   -95.26131317219269
    Total Energy =                        -95.2613131721926862
  Multiplicity = 1
  @DF-RHF Final Energy:  -342.02974831225936
    Total Energy =                       -342.0297483122593576
	 Singles Energy            =      -0.0000000000000000 [Eh]
	 Same-Spin Energy          =      -0.3699870921160713 [Eh]
	 Opposite-Spin Energy      =      -1.1990311370702378 [Eh]
	 Correlation Energy        =      -1.5690182291863091 [Eh]
	 Total Energy              =    -343.5987665414456842 [Eh]
	 SCS Total Energy          =    -343.5919147074490070 [Eh]
    Molecular point group: c1

    Geometry (in Angstrom), charge = 0, multiplicity = 1:

       Center              X                  Y                   Z               Mass
    ------------   -----------------  -----------------  -----------------  -----------------
         N           -2.682875332857     0.052360025074    -0.407009282333    14.003074004430
         H           -2.086263332857    -0.763333974926    -0.328307282333     1.007825032230
         H           -3.611485332857    -0.251923974926    -0.144871282333     1.007825032230
         C           -2.220615332857     1.065174025074     0.540444717667    12.000000000000
         H           -2.861969332857     1.942198025074     0.473965717667     1.007825032230
         H           -2.192574332857     0.746607025074     1.587500717667     1.007825032230
         H           -1.215385332857     1.379388025074     0.263984717667     1.007825032230
         N           -0.013386332857    -1.190078974926    -0.182838282333    14.003074004430
         C            0.325049667143    -0.377734974926    -1.194551282333    12.000000000000
         H           -0.217617332857    -0.522272974926    -2.119932282333     1.007825032230
         C            1.296379667143     0.614399025074    -1.094184282333    12.000000000000
         H            1.521231667143     1.238739025074    -1.947034282333     1.007825032230
         C            1.957219667143     0.783940025074     0.118080717667    12.000000000000
         H            2.715073667143     1.546178025074     0.234464717667     1.007825032230
         C            1.617086667143    -0.051021974926     1.177203717667    12.000000000000
         H            2.099674667143     0.039440025074     2.139903717667     1.007825032230
         C            0.633304667143    -1.015810974926     0.978019717667    12.000000000000
         H            0.347220667143    -1.679558974926     1.784630717667     1.007825032230

  Charge       = 0
  Multiplicity = 1
  Basis Set: AUG-CC-PVQZ
    Blend: AUG-CC-PVQZ
  Basis Set: (AUG-CC-PVQZ AUX)
    Blend: AUG-CC-PVQZ-JKFIT

    Orbital Energies [Eh]
    ---------------------

    Doubly Occupied:

       1A    -15.568353     2A    -15.516656     3A    -11.279365
       4A    -11.276685     5A    -11.263258     6A    -11.244553
       7A    -11.243335     8A    -11.224914     9A     -1.262024
      10A     -1.153290    11A     -1.093613    12A     -1.037366
      13A     -0.881096    14A     -0.862989    15A     -0.859922
      16A     -0.726681    17A     -0.665190    18A     -0.657457
      19A     -0.651148    20A     -0.601916    21A     -0.590399
      22A     -0.580504    23A     -0.547857    24A     -0.534250
      25A     -0.523450    26A     -0.501609    27A     -0.426149
      28A     -0.388888    29A     -0.375798    30A     -0.351206

  @DF-RHF Final Energy:  -342.04974954835598

   => Energetics <=

    Nuclear Repulsion Energy =            354.4906306578012618
    One-Electron Energy =               -1165.3009199439072745
    Two-Electron Energy =                 468.7605397377500367
    Total Energy =                       -342.0497495483559760

  Dipole Moment: [D]
     X:     1.9417      Y:     0.9528      Z:     1.4116     Total:     2.5828

  Basis Set: (AUG-CC-PVQZ AUX)
    Blend: AUG-CC-PVQZ-RI
	 Reference Energy          =    -342.0497495483559760 [Eh]
	 Singles Energy            =      -0.0000000000000000 [Eh]
	 Same-Spin Energy          =      -0.3909606576137629 [Eh]
	 Opposite-Spin Energy      =      -1.3417273500573599 [Eh]
	 Correlation Energy        =      -1.7326880076711229 [Eh]
	 Total Energy              =    -343.7824375560271051 [Eh]

	 ================> DF-SCS-MP2 Energies <==================
	-----------------------------------------------------------
	 SCS Same-Spin Scale       =       0.3333333333333333 [-]
	 SCS Opposite-Spin Scale   =       1.2000000000000000 [-]
	 SCS Same-Spin Energy      =      -0.1303202192045876 [Eh]
	 SCS Opposite-Spin Energy  =      -1.6100728200688319 [Eh]
	 SCS Correlation Energy    =      -1.7403930392734195 [Eh]
	 SCS Total Energy          =    -343.7901425876294184 [Eh]
	-----------------------------------------------------------

*** Psi4 exiting successfully. Buy a developer a beer!
