                               Psi4 1.4a2.dev224

  ==> Input File <==

--------------------------------------------------------------------------
#Generated by lconvert.py for cbs job

memory 40 GB

molecule  {
0 1
  N       -0.5410590     0.0295760    -0.2089950
  H        0.0555530    -0.7861180    -0.1302930
  H       -1.4696690    -0.2747080     0.0531430
  C       -0.0787990     1.0423900     0.7384590
  H       -0.7201530     1.9194140     0.6719800
  H       -0.0507580     0.7238230     1.7855150
  H        0.9264310     1.3566040     0.4619990
--
0 1
  N        1.6677150    -1.1180150    -0.0171560
  C        2.0061510    -0.3056710    -1.0288690
  H        1.4634840    -0.4502090    -1.9542500
  C        2.9774800     0.6864630    -0.9285020
  H        3.2023330     1.3108030    -1.7813520
  C        3.6383200     0.8560040     0.2837630
  H        4.3961740     1.6182410     0.4001470
  C        3.2981870     0.0210420     1.3428860
  H        3.7807760     0.1115040     2.3055870
  C        2.3144060    -0.9437470     1.1437020
  H        2.0283220    -1.6074950     1.9503130
units angstrom
no_reorient
symmetry c1
}

set {
scf_type DF
mp2_type DF
e_convergence 7
reference rhf
}

energy('mp2/aug-cc-pv[tq]z', bsse_type='cp')
--------------------------------------------------------------------------

    Molecular point group: c1
  Charge       = 0
  Multiplicity = 1
  Basis Set: AUG-CC-PVTZ
    Blend: AUG-CC-PVTZ
  Basis Set: (AUG-CC-PVTZ AUX)
    Blend: AUG-CC-PVTZ-JKFIT
  @DF-RHF Final Energy:  -246.77866365840583
    Total Energy =                       -246.7786636584058328
  Basis Set: (AUG-CC-PVTZ AUX)
    Blend: AUG-CC-PVTZ-RI
	 Reference Energy          =    -246.7786636584058328 [Eh]
	 Singles Energy            =      -0.0000000000000000 [Eh]
	 Same-Spin Energy          =      -0.2688005150993904 [Eh]
	 Opposite-Spin Energy      =      -0.8388284982263188 [Eh]
	 Correlation Energy        =      -1.1076290133257092 [Eh]
	 Total Energy              =    -247.8862926717315531 [Eh]
	 SCS Total Energy          =    -247.8748580279772113 [Eh]
    Molecular point group: c1
  Basis Set: AUG-CC-PVQZ
    Blend: AUG-CC-PVQZ
  Basis Set: (AUG-CC-PVQZ AUX)
    Blend: AUG-CC-PVQZ-JKFIT
  @DF-RHF Final Energy:  -246.79280573915938
    Total Energy =                       -246.7928057391594052
  Basis Set: (AUG-CC-PVQZ AUX)
  @DF-RHF Final Energy:  -246.77894300377585
    Total Energy =                       -246.7789430037758507
  @DF-RHF Final Energy:  -246.79287759632385
    Total Energy =                       -246.7928775963238195
  @DF-RHF Final Energy:   -95.25541881609064
    Total Energy =                        -95.2554188160906392
  @DF-RHF Final Energy:   -95.26134382530940
    Total Energy =                        -95.2613438253093960
  @DF-RHF Final Energy:   -95.25533038200372
    Total Energy =                        -95.2553303820037200
  @DF-RHF Final Energy:   -95.26131317217572
    Total Energy =                        -95.2613131721757185
  Multiplicity = 1
  @DF-RHF Final Energy:  -342.00178823059525
    Total Energy =                       -342.0017882305952526
	 Singles Energy            =      -0.0000000000000000 [Eh]
	 Same-Spin Energy          =      -0.3763809133125799 [Eh]
	 Opposite-Spin Energy      =      -1.2075270122345974 [Eh]
	 Correlation Energy        =      -1.5839079255471773 [Eh]
	 Total Energy              =    -343.5856961561424328 [Eh]
	 SCS Total Energy          =    -343.5762809497143166 [Eh]
    Molecular point group: c1

    Geometry (in Angstrom), charge = 0, multiplicity = 1:

       Center              X                  Y                   Z               Mass
    ------------   -----------------  -----------------  -----------------  -----------------
         N           -2.352074925638    -0.015742209323    -0.383794445223    14.003074004430
         H           -1.755462925638    -0.831436209323    -0.305092445223     1.007825032230
         H           -3.280684925638    -0.320026209323    -0.121656445223     1.007825032230
         C           -1.889814925638     0.997071790677     0.563659554777    12.000000000000
         H           -2.531168925638     1.874095790677     0.497180554777     1.007825032230
         H           -1.861773925638     0.678504790677     1.610715554777     1.007825032230
         H           -0.884584925638     1.311285790677     0.287199554777     1.007825032230
         N           -0.143300925638    -1.163333209323    -0.191955445223    14.003074004430
         C            0.195135074362    -0.350989209323    -1.203668445223    12.000000000000
         H           -0.347531925638    -0.495527209323    -2.129049445223     1.007825032230
         C            1.166464074362     0.641144790677    -1.103301445223    12.000000000000
         H            1.391317074362     1.265484790677    -1.956151445223     1.007825032230
         C            1.827304074362     0.810685790677     0.108963554777    12.000000000000
         H            2.585158074362     1.572922790677     0.225347554777     1.007825032230
         C            1.487171074362    -0.024276209323     1.168086554777    12.000000000000
         H            1.969760074362     0.066185790677     2.130787554777     1.007825032230
         C            0.503390074362    -0.989065209323     0.968902554777    12.000000000000
         H            0.217306074362    -1.652813209323     1.775513554777     1.007825032230

  Charge       = 0
  Multiplicity = 1
  Basis Set: AUG-CC-PVQZ
    Blend: AUG-CC-PVQZ
  Basis Set: (AUG-CC-PVQZ AUX)
    Blend: AUG-CC-PVQZ-JKFIT

    Orbital Energies [Eh]
    ---------------------

    Doubly Occupied:

       1A    -15.568177     2A    -15.501554     3A    -11.281164
       4A    -11.277134     5A    -11.263302     6A    -11.244502
       7A    -11.242927     8A    -11.219499     9A     -1.269536
      10A     -1.147641    11A     -1.094861    12A     -1.038653
      13A     -0.880940    14A     -0.863302    15A     -0.860919
      16A     -0.730121    17A     -0.671500    18A     -0.660366
      19A     -0.656572    20A     -0.602836    21A     -0.591497
      22A     -0.578657    23A     -0.543063    24A     -0.524309
      25A     -0.521871    26A     -0.501087    27A     -0.427725
      28A     -0.386164    29A     -0.364767    30A     -0.350473

  @DF-RHF Final Energy:  -342.02171379563379

   => Energetics <=

    Nuclear Repulsion Energy =            368.1235635123153997
    One-Electron Energy =               -1192.5603129559290210
    Two-Electron Energy =                 482.4150356479798347
    Total Energy =                       -342.0217137956337865

  Dipole Moment: [D]
     X:     2.0299      Y:     0.8347      Z:     1.3235     Total:     2.5630

  Basis Set: (AUG-CC-PVQZ AUX)
    Blend: AUG-CC-PVQZ-RI
	 Reference Energy          =    -342.0217137956337865 [Eh]
	 Singles Energy            =      -0.0000000000000000 [Eh]
	 Same-Spin Energy          =      -0.3973551462093310 [Eh]
	 Opposite-Spin Energy      =      -1.3493495842235539 [Eh]
	 Correlation Energy        =      -1.7467047304328849 [Eh]
	 Total Energy              =    -343.7684185260666823 [Eh]

	 ================> DF-SCS-MP2 Energies <==================
	-----------------------------------------------------------
	 SCS Same-Spin Scale       =       0.3333333333333333 [-]
	 SCS Opposite-Spin Scale   =       1.2000000000000000 [-]
	 SCS Same-Spin Energy      =      -0.1324517154031103 [Eh]
	 SCS Opposite-Spin Energy  =      -1.6192195010682646 [Eh]
	 SCS Correlation Energy    =      -1.7516712164713750 [Eh]
	 SCS Total Energy          =    -343.7733850121051660 [Eh]
	-----------------------------------------------------------

*** Psi4 exiting successfully. Buy a developer a beer!
