                               Psi4 1.4a2.dev224

  ==> Input File <==

--------------------------------------------------------------------------
#Generated by lconvert.py for cbs job

memory 40 GB

molecule  {
0 1
  N       -0.5410590     0.0295760    -0.2089950
  H        0.0555530    -0.7861180    -0.1302930
  H       -1.4696690    -0.2747080     0.0531430
  C       -0.0787990     1.0423900     0.7384590
  H       -0.7201530     1.9194140     0.6719800
  H       -0.0507580     0.7238230     1.7855150
  H        0.9264310     1.3566040     0.4619990
--
0 1
  N        1.8980240    -1.1654290    -0.0009940
  C        2.2364600    -0.3530850    -1.0127060
  H        1.6937930    -0.4976230    -1.9380870
  C        3.2077890     0.6390490    -0.9123390
  H        3.4326420     1.2633890    -1.7651900
  C        3.8686290     0.8085900     0.2999250
  H        4.6264830     1.5708280     0.4163090
  C        3.5284960    -0.0263720     1.3590480
  H        4.0110850     0.0640900     2.3217490
  C        2.5447150    -0.9911610     1.1598650
  H        2.2586300    -1.6549090     1.9664760
units angstrom
no_reorient
symmetry c1
}

set {
scf_type DF
mp2_type DF
e_convergence 7
reference rhf
}

energy('mp2/aug-cc-pv[tq]z', bsse_type='cp')
--------------------------------------------------------------------------

    Molecular point group: c1
  Charge       = 0
  Multiplicity = 1
  Basis Set: AUG-CC-PVTZ
    Blend: AUG-CC-PVTZ
  Basis Set: (AUG-CC-PVTZ AUX)
    Blend: AUG-CC-PVTZ-JKFIT
  @DF-RHF Final Energy:  -246.77866365397230
    Total Energy =                       -246.7786636539723304
  Basis Set: (AUG-CC-PVTZ AUX)
    Blend: AUG-CC-PVTZ-RI
	 Reference Energy          =    -246.7786636539723020 [Eh]
	 Singles Energy            =      -0.0000000000000000 [Eh]
	 Same-Spin Energy          =      -0.2688005200802330 [Eh]
	 Opposite-Spin Energy      =      -0.8388285038275827 [Eh]
	 Correlation Energy        =      -1.1076290239078157 [Eh]
	 Total Energy              =    -247.8862926778801068 [Eh]
	 SCS Total Energy          =    -247.8748580319254700 [Eh]
    Molecular point group: c1
  Basis Set: AUG-CC-PVQZ
    Blend: AUG-CC-PVQZ
  Basis Set: (AUG-CC-PVQZ AUX)
    Blend: AUG-CC-PVQZ-JKFIT
  @DF-RHF Final Energy:  -246.79280573606096
    Total Energy =                       -246.7928057360609273
  Basis Set: (AUG-CC-PVQZ AUX)
  @DF-RHF Final Energy:  -246.77887947937899
    Total Energy =                       -246.7788794793789862
  @DF-RHF Final Energy:  -246.79286537974963
    Total Energy =                       -246.7928653797496281
  @DF-RHF Final Energy:   -95.25539927778348
    Total Energy =                        -95.2553992777834821
  @DF-RHF Final Energy:   -95.26133874551384
    Total Energy =                        -95.2613387455138394
  @DF-RHF Final Energy:   -95.25533038196870
    Total Energy =                        -95.2553303819687045
  @DF-RHF Final Energy:   -95.26131317220053
    Total Energy =                        -95.2613131722005306
  Multiplicity = 1
  @DF-RHF Final Energy:  -342.02091005479326
    Total Energy =                       -342.0209100547932621
	 Singles Energy            =      -0.0000000000000000 [Eh]
	 Same-Spin Energy          =      -0.3725517232407269 [Eh]
	 Opposite-Spin Energy      =      -1.2024771591014893 [Eh]
	 Correlation Energy        =      -1.5750288823422163 [Eh]
	 Total Energy              =    -343.5959389371354860 [Eh]
	 SCS Total Energy          =    -343.5880665534619425 [Eh]
    Molecular point group: c1

    Geometry (in Angstrom), charge = 0, multiplicity = 1:

       Center              X                  Y                   Z               Mass
    ------------   -----------------  -----------------  -----------------  -----------------
         N           -2.517440128298     0.018301723153    -0.395399341629    14.003074004430
         H           -1.920828128298    -0.797392276847    -0.316697341629     1.007825032230
         H           -3.446050128298    -0.285982276847    -0.133261341629     1.007825032230
         C           -2.055180128298     1.031115723153     0.552054658371    12.000000000000
         H           -2.696534128298     1.908139723153     0.485575658371     1.007825032230
         H           -2.027139128298     0.712548723153     1.599110658371     1.007825032230
         H           -1.049950128298     1.345329723153     0.275594658371     1.007825032230
         N           -0.078357128298    -1.176703276847    -0.187398341629    14.003074004430
         C            0.260078871702    -0.364359276847    -1.199110341629    12.000000000000
         H           -0.282588128298    -0.508897276847    -2.124491341629     1.007825032230
         C            1.231407871702     0.627774723153    -1.098743341629    12.000000000000
         H            1.456260871702     1.252114723153    -1.951594341629     1.007825032230
         C            1.892247871702     0.797315723153     0.113520658371    12.000000000000
         H            2.650101871702     1.559553723153     0.229904658371     1.007825032230
         C            1.552114871702    -0.037646276847     1.172643658371    12.000000000000
         H            2.034703871702     0.052815723153     2.135344658371     1.007825032230
         C            0.568333871702    -1.002435276847     0.973460658371    12.000000000000
         H            0.282248871702    -1.666183276847     1.780071658371     1.007825032230

  Charge       = 0
  Multiplicity = 1
  Basis Set: AUG-CC-PVQZ
    Blend: AUG-CC-PVQZ
  Basis Set: (AUG-CC-PVQZ AUX)
    Blend: AUG-CC-PVQZ-JKFIT

    Orbital Energies [Eh]
    ---------------------

    Doubly Occupied:

       1A    -15.568102     2A    -15.510475     3A    -11.280175
       4A    -11.276822     5A    -11.263490     6A    -11.244654
       7A    -11.243230     8A    -11.222543     9A     -1.264413
      10A     -1.150485    11A     -1.094221    12A     -1.037894
      13A     -0.880131    14A     -0.863248    15A     -0.860532
      16A     -0.727951    17A     -0.666840    18A     -0.657970
      19A     -0.653850    20A     -0.602302    21A     -0.590101
      22A     -0.579889    23A     -0.546290    24A     -0.529264
      25A     -0.523729    26A     -0.500832    27A     -0.426923
      28A     -0.388490    29A     -0.371373    30A     -0.351157

  @DF-RHF Final Energy:  -342.04087491670475

   => Energetics <=

    Nuclear Repulsion Energy =            360.9342064005817292
    One-Electron Energy =               -1178.1954139220019897
    Two-Electron Energy =                 475.2203326047155088
    Total Energy =                       -342.0408749167047517

  Dipole Moment: [D]
     X:     1.9897      Y:     0.9066      Z:     1.3736     Total:     2.5822

  Basis Set: (AUG-CC-PVQZ AUX)
    Blend: AUG-CC-PVQZ-RI
	 Reference Energy          =    -342.0408749167047517 [Eh]
	 Singles Energy            =      -0.0000000000000000 [Eh]
	 Same-Spin Energy          =      -0.3935170810756635 [Eh]
	 Opposite-Spin Energy      =      -1.3447661672512907 [Eh]
	 Correlation Energy        =      -1.7382832483269541 [Eh]
	 Total Energy              =    -343.7791581650317312 [Eh]

	 ================> DF-SCS-MP2 Energies <==================
	-----------------------------------------------------------
	 SCS Same-Spin Scale       =       0.3333333333333333 [-]
	 SCS Opposite-Spin Scale   =       1.2000000000000000 [-]
	 SCS Same-Spin Energy      =      -0.1311723603585545 [Eh]
	 SCS Opposite-Spin Energy  =      -1.6137194007015487 [Eh]
	 SCS Correlation Energy    =      -1.7448917610601031 [Eh]
	 SCS Total Energy          =    -343.7857666777648546 [Eh]
	-----------------------------------------------------------

*** Psi4 exiting successfully. Buy a developer a beer!
