                               Psi4 1.4a2.dev224

  ==> Input File <==

--------------------------------------------------------------------------
#Generated by lconvert.py for cbs job

memory 40 GB

molecule  {
0 1
  N       -0.5410590     0.0295760    -0.2089950
  H        0.0555530    -0.7861180    -0.1302930
  H       -1.4696690    -0.2747080     0.0531430
  C       -0.0787990     1.0423900     0.7384590
  H       -0.7201530     1.9194140     0.6719800
  H       -0.0507580     0.7238230     1.7855150
  H        0.9264310     1.3566040     0.4619990
--
0 1
  N        2.3586410    -1.2602570     0.0313310
  C        2.6970770    -0.4479130    -0.9803810
  H        2.1544100    -0.5924510    -1.9057630
  C        3.6684070     0.5442210    -0.8800140
  H        3.8932590     1.1685610    -1.7328650
  C        4.3292470     0.7137620     0.3322500
  H        5.0871010     1.4760000     0.4486340
  C        3.9891140    -0.1212000     1.3913730
  H        4.4717020    -0.0307380     2.3540740
  C        3.0053320    -1.0859890     1.1921900
  H        2.7192480    -1.7497370     1.9988010
units angstrom
no_reorient
symmetry c1
}

set {
scf_type DF
mp2_type DF
e_convergence 7
reference rhf
}

energy('mp2/aug-cc-pv[tq]z', bsse_type='cp')
--------------------------------------------------------------------------

    Molecular point group: c1
  Charge       = 0
  Multiplicity = 1
  Basis Set: AUG-CC-PVTZ
    Blend: AUG-CC-PVTZ
  Basis Set: (AUG-CC-PVTZ AUX)
    Blend: AUG-CC-PVTZ-JKFIT
  @DF-RHF Final Energy:  -246.77866362367453
    Total Energy =                       -246.7786636236745608
  Basis Set: (AUG-CC-PVTZ AUX)
    Blend: AUG-CC-PVTZ-RI
	 Reference Energy          =    -246.7786636236745323 [Eh]
	 Singles Energy            =      -0.0000000000000000 [Eh]
	 Same-Spin Energy          =      -0.2688005215224144 [Eh]
	 Opposite-Spin Energy      =      -0.8388285204741150 [Eh]
	 Correlation Energy        =      -1.1076290419965296 [Eh]
	 Total Energy              =    -247.8862926656710499 [Eh]
	 SCS Total Energy          =    -247.8748580220842825 [Eh]
    Molecular point group: c1
  Basis Set: AUG-CC-PVQZ
    Blend: AUG-CC-PVQZ
  Basis Set: (AUG-CC-PVQZ AUX)
    Blend: AUG-CC-PVQZ-JKFIT
  @DF-RHF Final Energy:  -246.79280570301466
    Total Energy =                       -246.7928057030146647
  Basis Set: (AUG-CC-PVQZ AUX)
  @DF-RHF Final Energy:  -246.77880111509481
    Total Energy =                       -246.7788011150947796
  @DF-RHF Final Energy:  -246.79284499216078
    Total Energy =                       -246.7928449921607807
  @DF-RHF Final Energy:   -95.25537528215669
    Total Energy =                        -95.2553752821566917
  @DF-RHF Final Energy:   -95.26133078360284
    Total Energy =                        -95.2613307836028440
  @DF-RHF Final Energy:   -95.25533038201047
    Total Energy =                        -95.2553303820104702
  @DF-RHF Final Energy:   -95.26131317214009
    Total Energy =                        -95.2613131721400919
  Multiplicity = 1
  @DF-RHF Final Energy:  -342.03359703390208
    Total Energy =                       -342.0335970339020832
	 Singles Energy            =      -0.0000000000000000 [Eh]
	 Same-Spin Energy          =      -0.3682541302245942 [Eh]
	 Opposite-Spin Energy      =      -1.1966877732451626 [Eh]
	 Correlation Energy        =      -1.5649419034697569 [Eh]
	 Total Energy              =    -343.5985389373718135 [Eh]
	 SCS Total Energy          =    -343.5923737385377876 [Eh]
    Molecular point group: c1

    Geometry (in Angstrom), charge = 0, multiplicity = 1:

       Center              X                  Y                   Z               Mass
    ------------   -----------------  -----------------  -----------------  -----------------
         N           -2.848170179247     0.086389606414    -0.418609152637    14.003074004430
         H           -2.251558179247    -0.729304393586    -0.339907152637     1.007825032230
         H           -3.776780179247    -0.217894393586    -0.156471152637     1.007825032230
         C           -2.385910179247     1.099203606414     0.528844847363    12.000000000000
         H           -3.027264179247     1.976227606414     0.462365847363     1.007825032230
         H           -2.357869179247     0.780636606414     1.575900847363     1.007825032230
         H           -1.380680179247     1.413417606414     0.252384847363     1.007825032230
         N            0.051529820753    -1.203443393586    -0.178283152637    14.003074004430
         C            0.389965820753    -0.391099393586    -1.189995152637    12.000000000000
         H           -0.152701179247    -0.535637393586    -2.115377152637     1.007825032230
         C            1.361295820753     0.601034606414    -1.089628152637    12.000000000000
         H            1.586147820753     1.225374606414    -1.942479152637     1.007825032230
         C            2.022135820753     0.770575606414     0.122635847363    12.000000000000
         H            2.779989820753     1.532813606414     0.239019847363     1.007825032230
         C            1.682002820753    -0.064386393586     1.181758847363    12.000000000000
         H            2.164590820753     0.026075606414     2.144459847363     1.007825032230
         C            0.698220820753    -1.029175393586     0.982575847363    12.000000000000
         H            0.412136820753    -1.692923393586     1.789186847363     1.007825032230

  Charge       = 0
  Multiplicity = 1
  Basis Set: AUG-CC-PVQZ
    Blend: AUG-CC-PVQZ
  Basis Set: (AUG-CC-PVQZ AUX)
    Blend: AUG-CC-PVQZ-JKFIT

    Orbital Energies [Eh]
    ---------------------

    Doubly Occupied:

       1A    -15.568500     2A    -15.520907     3A    -11.278701
       4A    -11.276590     5A    -11.262897     6A    -11.244350
       7A    -11.243333     8A    -11.226762     9A     -1.260776
      10A     -1.155728    11A     -1.093109    12A     -1.036970
      13A     -0.882477    14A     -0.862649    15A     -0.859423
      16A     -0.725889    17A     -0.664396    18A     -0.657194
      19A     -0.650318    20A     -0.601628    21A     -0.591411
      22A     -0.580637    23A     -0.548104    24A     -0.537698
      25A     -0.523207    26A     -0.502950    27A     -0.425301
      28A     -0.388590    29A     -0.378899    30A     -0.351068

  @DF-RHF Final Energy:  -342.05361383313704

   => Energetics <=

    Nuclear Repulsion Energy =            348.6957989984087476
    One-Electron Energy =               -1153.6978943237463682
    Two-Electron Energy =                 462.9484814922006422
    Total Energy =                       -342.0536138331370353

  Dipole Moment: [D]
     X:     1.8975      Y:     0.9830      Z:     1.4410     Total:     2.5775

  Basis Set: (AUG-CC-PVQZ AUX)
    Blend: AUG-CC-PVQZ-RI
	 Reference Energy          =    -342.0536138331370353 [Eh]
	 Singles Energy            =      -0.0000000000000000 [Eh]
	 Same-Spin Energy          =      -0.3892430574666755 [Eh]
	 Opposite-Spin Energy      =      -1.3396916525385734 [Eh]
	 Correlation Energy        =      -1.7289347100052490 [Eh]
	 Total Energy              =    -343.7825485431422976 [Eh]

	 ================> DF-SCS-MP2 Energies <==================
	-----------------------------------------------------------
	 SCS Same-Spin Scale       =       0.3333333333333333 [-]
	 SCS Opposite-Spin Scale   =       1.2000000000000000 [-]
	 SCS Same-Spin Energy      =      -0.1297476858222252 [Eh]
	 SCS Opposite-Spin Energy  =      -1.6076299830462879 [Eh]
	 SCS Correlation Energy    =      -1.7373776688685130 [Eh]
	 SCS Total Energy          =    -343.7909915020055678 [Eh]
	-----------------------------------------------------------

*** Psi4 exiting successfully. Buy a developer a beer!
