                               Psi4 1.4a2.dev224

  ==> Input File <==

--------------------------------------------------------------------------
#Generated by lconvert.py for cbs job

memory 40 GB

molecule  {
0 1
  N       -0.5410590     0.0295760    -0.2089950
  H        0.0555530    -0.7861180    -0.1302930
  H       -1.4696690    -0.2747080     0.0531430
  C       -0.0787990     1.0423900     0.7384590
  H       -0.7201530     1.9194140     0.6719800
  H       -0.0507580     0.7238230     1.7855150
  H        0.9264310     1.3566040     0.4619990
--
0 1
  N        2.4738930    -1.2839840     0.0394190
  C        2.8123290    -0.4716400    -0.9722930
  H        2.2696620    -0.6161780    -1.8976740
  C        3.7836590     0.5204940    -0.8719260
  H        4.0085110     1.1448340    -1.7247770
  C        4.4444990     0.6900350     0.3403380
  H        5.2023530     1.4522730     0.4567230
  C        4.1043660    -0.1449270     1.3994610
  H        4.5869540    -0.0544650     2.3621620
  C        3.1205840    -1.1097160     1.2002780
  H        2.8345000    -1.7734640     2.0068890
units angstrom
no_reorient
symmetry c1
}

set {
scf_type DF
mp2_type DF
e_convergence 7
reference rhf
}

energy('mp2/aug-cc-pv[tq]z', bsse_type='cp')
--------------------------------------------------------------------------

    Molecular point group: c1
  Charge       = 0
  Multiplicity = 1
  Basis Set: AUG-CC-PVTZ
    Blend: AUG-CC-PVTZ
  Basis Set: (AUG-CC-PVTZ AUX)
    Blend: AUG-CC-PVTZ-JKFIT
  @DF-RHF Final Energy:  -246.77866363115103
    Total Energy =                       -246.7786636311510620
  Basis Set: (AUG-CC-PVTZ AUX)
    Blend: AUG-CC-PVTZ-RI
	 Reference Energy          =    -246.7786636311510335 [Eh]
	 Singles Energy            =      -0.0000000000000000 [Eh]
	 Same-Spin Energy          =      -0.2688005198809181 [Eh]
	 Opposite-Spin Energy      =      -0.8388285147566740 [Eh]
	 Correlation Energy        =      -1.1076290346375921 [Eh]
	 Total Energy              =    -247.8862926657886305 [Eh]
	 SCS Total Energy          =    -247.8748580221526936 [Eh]
    Molecular point group: c1
  Basis Set: AUG-CC-PVQZ
    Blend: AUG-CC-PVQZ
  Basis Set: (AUG-CC-PVQZ AUX)
    Blend: AUG-CC-PVQZ-JKFIT
  @DF-RHF Final Energy:  -246.79280571468979
    Total Energy =                       -246.7928057146897913
  Basis Set: (AUG-CC-PVQZ AUX)
  @DF-RHF Final Energy:  -246.77879181795282
    Total Energy =                       -246.7787918179528219
  @DF-RHF Final Energy:  -246.79284132124181
    Total Energy =                       -246.7928413212417809
  @DF-RHF Final Energy:   -95.25537073160736
    Total Energy =                        -95.2553707316073570
  @DF-RHF Final Energy:   -95.26132925712901
    Total Energy =                        -95.2613292571290060
  @DF-RHF Final Energy:   -95.25533038202695
    Total Energy =                        -95.2553303820269548
  @DF-RHF Final Energy:   -95.26131317212452
    Total Energy =                        -95.2613131721245168
  Multiplicity = 1
  @DF-RHF Final Energy:  -342.03454510102517
    Total Energy =                       -342.0345451010251736
	 Singles Energy            =      -0.0000000000000000 [Eh]
	 Same-Spin Energy          =      -0.3676061239905078 [Eh]
	 Opposite-Spin Energy      =      -1.1958132924257801 [Eh]
	 Correlation Energy        =      -1.5634194164162878 [Eh]
	 Total Energy              =    -343.5979645174414827 [Eh]
	 SCS Total Energy          =    -343.5920564265996404 [Eh]
    Molecular point group: c1

    Geometry (in Angstrom), charge = 0, multiplicity = 1:

       Center              X                  Y                   Z               Mass
    ------------   -----------------  -----------------  -----------------  -----------------
         N           -2.930922791573     0.103425937520    -0.424416472586    14.003074004430
         H           -2.334310791573    -0.712268062480    -0.345714472586     1.007825032230
         H           -3.859532791573    -0.200858062480    -0.162278472586     1.007825032230
         C           -2.468662791573     1.116239937520     0.523037527414    12.000000000000
         H           -3.110016791573     1.993263937520     0.456558527414     1.007825032230
         H           -2.440621791573     0.797672937520     1.570093527414     1.007825032230
         H           -1.463432791573     1.430453937520     0.246577527414     1.007825032230
         N            0.084029208427    -1.210134062480    -0.176002472586    14.003074004430
         C            0.422465208427    -0.397790062480    -1.187714472586    12.000000000000
         H           -0.120201791573    -0.542328062480    -2.113095472586     1.007825032230
         C            1.393795208427     0.594343937520    -1.087347472586    12.000000000000
         H            1.618647208427     1.218683937520    -1.940198472586     1.007825032230
         C            2.054635208427     0.763884937520     0.124916527414    12.000000000000
         H            2.812489208427     1.526122937520     0.241301527414     1.007825032230
         C            1.714502208427    -0.071077062480     1.184039527414    12.000000000000
         H            2.197090208427     0.019384937520     2.146740527414     1.007825032230
         C            0.730720208427    -1.035866062480     0.984856527414    12.000000000000
         H            0.444636208427    -1.699614062480     1.791467527414     1.007825032230

  Charge       = 0
  Multiplicity = 1
  Basis Set: AUG-CC-PVQZ
    Blend: AUG-CC-PVQZ
  Basis Set: (AUG-CC-PVQZ AUX)
    Blend: AUG-CC-PVQZ-JKFIT

    Orbital Energies [Eh]
    ---------------------

    Doubly Occupied:

       1A    -15.568503     2A    -15.522534     3A    -11.278410
       4A    -11.276539     5A    -11.262705     6A    -11.244233
       7A    -11.243305     8A    -11.227540     9A     -1.260355
      10A     -1.156797    11A     -1.092890    12A     -1.036800
      13A     -0.883169    14A     -0.862484    15A     -0.859211
      16A     -0.725597    17A     -0.664124    18A     -0.657083
      19A     -0.650395    20A     -0.601505    21A     -0.592009
      22A     -0.580589    23A     -0.547958    24A     -0.539029
      25A     -0.523093    26A     -0.503678    27A     -0.424889
      28A     -0.388354    29A     -0.380116    30A     -0.350973

  @DF-RHF Final Energy:  -342.05456507264120

   => Energetics <=

    Nuclear Repulsion Energy =            346.0087259587359085
    One-Electron Energy =               -1148.3168453772568682
    Two-Electron Energy =                 460.2535543458797633
    Total Energy =                       -342.0545650726411964

  Dipole Moment: [D]
     X:     1.8774      Y:     0.9942      Z:     1.4532     Total:     2.5739

  Basis Set: (AUG-CC-PVQZ AUX)
    Blend: AUG-CC-PVQZ-RI
	 Reference Energy          =    -342.0545650726411964 [Eh]
	 Singles Energy            =      -0.0000000000000000 [Eh]
	 Same-Spin Energy          =      -0.3886037393410846 [Eh]
	 Opposite-Spin Energy      =      -1.3389324948408605 [Eh]
	 Correlation Energy        =      -1.7275362341819451 [Eh]
	 Total Energy              =    -343.7821013068231650 [Eh]

	 ================> DF-SCS-MP2 Energies <==================
	-----------------------------------------------------------
	 SCS Same-Spin Scale       =       0.3333333333333333 [-]
	 SCS Opposite-Spin Scale   =       1.2000000000000000 [-]
	 SCS Same-Spin Energy      =      -0.1295345797803615 [Eh]
	 SCS Opposite-Spin Energy  =      -1.6067189938090325 [Eh]
	 SCS Correlation Energy    =      -1.7362535735893940 [Eh]
	 SCS Total Energy          =    -343.7908186462306048 [Eh]
	-----------------------------------------------------------

*** Psi4 exiting successfully. Buy a developer a beer!
