                               Psi4 1.4a2.dev224

  ==> Input File <==

--------------------------------------------------------------------------
#Generated by lconvert.py for cbs job

memory 40 GB

molecule  {
0 1
  N       -0.5410590     0.0295760    -0.2089950
  H        0.0555530    -0.7861180    -0.1302930
  H       -1.4696690    -0.2747080     0.0531430
  C       -0.0787990     1.0423900     0.7384590
  H       -0.7201530     1.9194140     0.6719800
  H       -0.0507580     0.7238230     1.7855150
  H        0.9264310     1.3566040     0.4619990
--
0 1
  N        2.2435840    -1.2365700     0.0232570
  C        2.5820210    -0.4242260    -0.9884560
  H        2.0393530    -0.5687640    -1.9138370
  C        3.5533500     0.5679080    -0.8880890
  H        3.7782020     1.1922480    -1.7409390
  C        4.2141900     0.7374490     0.3241760
  H        4.9720440     1.4996870     0.4405600
  C        3.8740570    -0.0975130     1.3832990
  H        4.3566460    -0.0070510     2.3460000
  C        2.8902760    -1.0623020     1.1841150
  H        2.6041910    -1.7260500     1.9907260
units angstrom
no_reorient
symmetry c1
}

set {
scf_type DF
mp2_type DF
e_convergence 7
reference rhf
}

energy('mp2/aug-cc-pv[tq]z', bsse_type='cp')
--------------------------------------------------------------------------

    Molecular point group: c1
  Charge       = 0
  Multiplicity = 1
  Basis Set: AUG-CC-PVTZ
    Blend: AUG-CC-PVTZ
  Basis Set: (AUG-CC-PVTZ AUX)
    Blend: AUG-CC-PVTZ-JKFIT
  @DF-RHF Final Energy:  -246.77866360551360
    Total Energy =                       -246.7786636055136000
  Basis Set: (AUG-CC-PVTZ AUX)
    Blend: AUG-CC-PVTZ-RI
	 Reference Energy          =    -246.7786636055136000 [Eh]
	 Singles Energy            =      -0.0000000000000000 [Eh]
	 Same-Spin Energy          =      -0.2688005228056951 [Eh]
	 Opposite-Spin Energy      =      -0.8388285288945406 [Eh]
	 Correlation Energy        =      -1.1076290517002356 [Eh]
	 Total Energy              =    -247.8862926572138292 [Eh]
	 SCS Total Energy          =    -247.8748580144556115 [Eh]
    Molecular point group: c1
  Basis Set: AUG-CC-PVQZ
    Blend: AUG-CC-PVQZ
  Basis Set: (AUG-CC-PVQZ AUX)
    Blend: AUG-CC-PVQZ-JKFIT
  @DF-RHF Final Energy:  -246.79280568641076
    Total Energy =                       -246.7928056864107589
  Basis Set: (AUG-CC-PVQZ AUX)
  @DF-RHF Final Energy:  -246.77881333652653
    Total Energy =                       -246.7788133365265253
  @DF-RHF Final Energy:  -246.79284909898149
    Total Energy =                       -246.7928490989814918
  @DF-RHF Final Energy:   -95.25538032000428
    Total Energy =                        -95.2553803200042779
  @DF-RHF Final Energy:   -95.26133243112761
    Total Energy =                        -95.2613324311276131
  @DF-RHF Final Energy:   -95.25533038197861
    Total Energy =                        -95.2553303819786095
  @DF-RHF Final Energy:   -95.26131317230170
    Total Energy =                        -95.2613131723016977
  Multiplicity = 1
  @DF-RHF Final Energy:  -342.03208708136106
    Total Energy =                       -342.0320870813610554
	 Singles Energy            =      -0.0000000000000000 [Eh]
	 Same-Spin Energy          =      -0.3690369339053182 [Eh]
	 Opposite-Spin Energy      =      -1.1977460834651659 [Eh]
	 Correlation Energy        =      -1.5667830173704842 [Eh]
	 Total Energy              =    -343.5988700987315383 [Eh]
	 SCS Total Energy          =    -343.5923946928210171 [Eh]
    Molecular point group: c1

    Geometry (in Angstrom), charge = 0, multiplicity = 1:

       Center              X                  Y                   Z               Mass
    ------------   -----------------  -----------------  -----------------  -----------------
         N           -2.765557806927     0.069381995890    -0.412811567025    14.003074004430
         H           -2.168945806927    -0.746312004110    -0.334109567025     1.007825032230
         H           -3.694167806927    -0.234902004110    -0.150673567025     1.007825032230
         C           -2.303297806927     1.082195995890     0.534642432975    12.000000000000
         H           -2.944651806927     1.959219995890     0.468163432975     1.007825032230
         H           -2.275256806927     0.763628995890     1.581698432975     1.007825032230
         H           -1.298067806927     1.396409995890     0.258182432975     1.007825032230
         N            0.019085193073    -1.196764004110    -0.180559567025    14.003074004430
         C            0.357522193073    -0.384420004110    -1.192272567025    12.000000000000
         H           -0.185145806927    -0.528958004110    -2.117653567025     1.007825032230
         C            1.328851193073     0.607713995890    -1.091905567025    12.000000000000
         H            1.553703193073     1.232053995890    -1.944755567025     1.007825032230
         C            1.989691193073     0.777254995890     0.120359432975    12.000000000000
         H            2.747545193073     1.539492995890     0.236743432975     1.007825032230
         C            1.649558193073    -0.057707004110     1.179482432975    12.000000000000
         H            2.132147193073     0.032754995890     2.142183432975     1.007825032230
         C            0.665777193073    -1.022496004110     0.980298432975    12.000000000000
         H            0.379692193073    -1.686244004110     1.786909432975     1.007825032230

  Charge       = 0
  Multiplicity = 1
  Basis Set: AUG-CC-PVQZ
    Blend: AUG-CC-PVQZ
  Basis Set: (AUG-CC-PVQZ AUX)
    Blend: AUG-CC-PVQZ-JKFIT

    Orbital Energies [Eh]
    ---------------------

    Doubly Occupied:

       1A    -15.568449     2A    -15.518975     3A    -11.279018
       4A    -11.276637     5A    -11.263084     6A    -11.244459
       7A    -11.243344     8A    -11.225893     9A     -1.261312
      10A     -1.154560    11A     -1.093349    12A     -1.037156
      13A     -0.881775    14A     -0.862820    15A     -0.859658
      16A     -0.726242    17A     -0.664737    18A     -0.657315
      19A     -0.650533    20A     -0.601764    21A     -0.590857
      22A     -0.580617    23A     -0.548100    24A     -0.536125
      25A     -0.523325    26A     -0.502245    27A     -0.425726
      28A     -0.388782    29A     -0.377478    30A     -0.351149

  @DF-RHF Final Energy:  -342.05209835924552

   => Energetics <=

    Nuclear Repulsion Energy =            351.5173631852449603
    One-Electron Energy =               -1159.3479461567919770
    Two-Electron Energy =                 465.7784846123015541
    Total Energy =                       -342.0520983592455195

  Dipole Moment: [D]
     X:     1.9190      Y:     0.9695      Z:     1.4272     Total:     2.5805

  Basis Set: (AUG-CC-PVQZ AUX)
    Blend: AUG-CC-PVQZ-RI
	 Reference Energy          =    -342.0520983592455195 [Eh]
	 Singles Energy            =      -0.0000000000000000 [Eh]
	 Same-Spin Energy          =      -0.3900176432525069 [Eh]
	 Opposite-Spin Energy      =      -1.3406096860004704 [Eh]
	 Correlation Energy        =      -1.7306273292529772 [Eh]
	 Total Energy              =    -343.7827256884984877 [Eh]

	 ================> DF-SCS-MP2 Energies <==================
	-----------------------------------------------------------
	 SCS Same-Spin Scale       =       0.3333333333333333 [-]
	 SCS Opposite-Spin Scale   =       1.2000000000000000 [-]
	 SCS Same-Spin Energy      =      -0.1300058810841689 [Eh]
	 SCS Opposite-Spin Energy  =      -1.6087316232005644 [Eh]
	 SCS Correlation Energy    =      -1.7387375042847333 [Eh]
	 SCS Total Energy          =    -343.7908358635302761 [Eh]
	-----------------------------------------------------------

*** Psi4 exiting successfully. Buy a developer a beer!
