                               Psi4 1.4a2.dev224

  ==> Input File <==

--------------------------------------------------------------------------
#Generated by lconvert.py for cbs job

memory 40 GB

molecule  {
0 1
  N       -0.5410590     0.0295760    -0.2089950
  H        0.0555530    -0.7861180    -0.1302930
  H       -1.4696690    -0.2747080     0.0531430
  C       -0.0787990     1.0423900     0.7384590
  H       -0.7201530     1.9194140     0.6719800
  H       -0.0507580     0.7238230     1.7855150
  H        0.9264310     1.3566040     0.4619990
--
0 1
  N        1.6677150    -1.1180150    -0.0171560
  C        2.0061510    -0.3056710    -1.0288690
  H        1.4634840    -0.4502090    -1.9542500
  C        2.9774800     0.6864630    -0.9285020
  H        3.2023330     1.3108030    -1.7813520
  C        3.6383200     0.8560040     0.2837630
  H        4.3961740     1.6182410     0.4001470
  C        3.2981870     0.0210420     1.3428860
  H        3.7807760     0.1115040     2.3055870
  C        2.3144060    -0.9437470     1.1437020
  H        2.0283220    -1.6074950     1.9503130
units angstrom
no_reorient
symmetry c1
}

set {
scf_type DF
mp2_type DF
e_convergence 7
reference rhf
}

energy('mp2/aug-cc-pv[tq]z', bsse_type='cp')
--------------------------------------------------------------------------

    Molecular point group: c1
  Charge       = 0
  Multiplicity = 1
  Basis Set: AUG-CC-PVTZ
    Blend: AUG-CC-PVTZ
  Basis Set: (AUG-CC-PVTZ AUX)
    Blend: AUG-CC-PVTZ-JKFIT
  @DF-RHF Final Energy:  -246.77866365840583
    Total Energy =                       -246.7786636584058328
  Basis Set: (AUG-CC-PVTZ AUX)
    Blend: AUG-CC-PVTZ-RI
	 Reference Energy          =    -246.7786636584058328 [Eh]
	 Singles Energy            =      -0.0000000000000000 [Eh]
	 Same-Spin Energy          =      -0.2688005150993904 [Eh]
	 Opposite-Spin Energy      =      -0.8388284982263188 [Eh]
	 Correlation Energy        =      -1.1076290133257092 [Eh]
	 Total Energy              =    -247.8862926717315531 [Eh]
	 SCS Total Energy          =    -247.8748580279772113 [Eh]
    Molecular point group: c1
  Basis Set: AUG-CC-PVQZ
    Blend: AUG-CC-PVQZ
  Basis Set: (AUG-CC-PVQZ AUX)
    Blend: AUG-CC-PVQZ-JKFIT
  @DF-RHF Final Energy:  -246.79280573915938
    Total Energy =                       -246.7928057391594052
  Basis Set: (AUG-CC-PVQZ AUX)
  @DF-RHF Final Energy:  -246.77894300377585
    Total Energy =                       -246.7789430037758507
  @DF-RHF Final Energy:  -246.79287759632385
    Total Energy =                       -246.7928775963238195
  @DF-RHF Final Energy:   -95.25541881609064
    Total Energy =                        -95.2554188160906392
  @DF-RHF Final Energy:   -95.26134382530940
    Total Energy =                        -95.2613438253093960
  @DF-RHF Final Energy:   -95.25533038200372
    Total Energy =                        -95.2553303820037200
  @DF-RHF Final Energy:   -95.26131317217572
    Total Energy =                        -95.2613131721757185
  @DF-RHF Final Energy:  -342.00178823059525
    Total Energy =                       -342.0017882305952526
  @DF-RHF Final Energy:  -342.02171379563379
    Total Energy =                       -342.0217137956337865
*** Psi4 exiting successfully. Buy a developer a beer!
                               Psi4 1.4a2.dev224
  @DF-RHF Final Energy:  -246.77866365397230
    Total Energy =                       -246.7786636539723304
  @DF-RHF Final Energy:  -246.79280573606096
    Total Energy =                       -246.7928057360609273
  @DF-RHF Final Energy:  -246.77887947937899
    Total Energy =                       -246.7788794793789862
  @DF-RHF Final Energy:  -246.79286537974963
    Total Energy =                       -246.7928653797496281
  @DF-RHF Final Energy:   -95.25539927778348
    Total Energy =                        -95.2553992777834821
  @DF-RHF Final Energy:   -95.26133874551384
    Total Energy =                        -95.2613387455138394
  @DF-RHF Final Energy:   -95.25533038196870
    Total Energy =                        -95.2553303819687045
  @DF-RHF Final Energy:   -95.26131317220053
    Total Energy =                        -95.2613131722005306
  @DF-RHF Final Energy:  -342.02091005479326
    Total Energy =                       -342.0209100547932621
  @DF-RHF Final Energy:  -342.04087491670475
    Total Energy =                       -342.0408749167047517
*** Psi4 exiting successfully. Buy a developer a beer!
                               Psi4 1.4a2.dev224
                               Psi4 1.4a2.dev224
                               Psi4 1.4a2.dev224
                               Psi4 1.4a2.dev224
                               Psi4 1.4a2.dev224
                               Psi4 1.4a2.dev224
                               Psi4 1.4a2.dev224
  @DF-RHF Final Energy:  -246.77866364620897
    Total Energy =                       -246.7786636462089973
  @DF-RHF Final Energy:  -246.79280572483486
    Total Energy =                       -246.7928057248348637
  @DF-RHF Final Energy:  -246.77870365627567
    Total Energy =                       -246.7787036562756953
  @DF-RHF Final Energy:  -246.79281834640443
    Total Energy =                       -246.7928183464044309
  @DF-RHF Final Energy:   -95.25534613576667
    Total Energy =                        -95.2553461357666720
  @DF-RHF Final Energy:   -95.26131989066700
    Total Energy =                        -95.2613198906669965
  @DF-RHF Final Energy:   -95.25533052453449
    Total Energy =                        -95.2553305245344859
  @DF-RHF Final Energy:   -95.26131332501262
    Total Energy =                        -95.2613133250126225
  @DF-RHF Final Energy:  -342.03504436422060
    Total Energy =                       -342.0350443642205960
  @DF-RHF Final Energy:  -342.05513013297849
    Total Energy =                       -342.0551301329784906
*** Psi4 exiting successfully. Buy a developer a beer!
                               Psi4 1.4a2.dev224
  @DF-RHF Final Energy:  -246.77866346846179
    Total Energy =                       -246.7786634684617866
  @DF-RHF Final Energy:  -246.79280554625734
    Total Energy =                       -246.7928055462573411
  @DF-RHF Final Energy:  -246.77868646238113
    Total Energy =                       -246.7786864623811312
  @DF-RHF Final Energy:  -246.79281284393062
    Total Energy =                       -246.7928128439306192
  @DF-RHF Final Energy:   -95.25533998861992
    Total Energy =                        -95.2553399886199230
  @DF-RHF Final Energy:   -95.26131763846288
    Total Energy =                        -95.2613176384628844
  @DF-RHF Final Energy:   -95.25533052459535
    Total Energy =                        -95.2553305245953510
  @DF-RHF Final Energy:   -95.26131332497114
    Total Energy =                        -95.2613133249711410
  Multiplicity = 1
  @DF-RHF Final Energy:  -342.03462944358330
    Total Energy =                       -342.0346294435832988
	 Singles Energy            =      -0.0000000000000000 [Eh]
	 Same-Spin Energy          =      -0.3644906743164682 [Eh]
	 Opposite-Spin Energy      =      -1.1911022808993827 [Eh]
	 Correlation Energy        =      -1.5555929552158509 [Eh]
	 Total Energy              =    -343.5902223987991420 [Eh]
	 SCS Total Energy          =    -343.5854490721013690 [Eh]
    Molecular point group: c1

    Geometry (in Angstrom), charge = 0, multiplicity = 1:

       Center              X                  Y                   Z               Mass
    ------------   -----------------  -----------------  -----------------  -----------------
         N           -4.336528005943     0.392802751517    -0.523052155294    14.003074004430
         H           -3.739918005943    -0.422897248483    -0.444352155294     1.007825032230
         H           -5.265138005943     0.088512751517    -0.260922155294     1.007825032230
         C           -3.874268005943     1.405612751517     0.424397844706    12.000000000000
         H           -4.515618005943     2.282632751517     0.357917844706     1.007825032230
         H           -3.846228005943     1.087042751517     1.471447844706     1.007825032230
         H           -2.869038005943     1.719822751517     0.147937844706     1.007825032230
         N            0.636051994057    -1.323777248483    -0.137262155294    14.003074004430
         C            0.974491994057    -0.511437248483    -1.148982155294    12.000000000000
         H            0.431821994057    -0.655977248483    -2.074362155294     1.007825032230
         C            1.945821994057     0.480692751517    -1.048612155294    12.000000000000
         H            2.170671994057     1.105042751517    -1.901462155294     1.007825032230
         C            2.606651994057     0.650242751517     0.163657844706    12.000000000000
         H            3.364511994057     1.412472751517     0.280037844706     1.007825032230
         C            2.266521994057    -0.184727248483     1.222777844706    12.000000000000
         H            2.749111994057    -0.094257248483     2.185477844706     1.007825032230
         C            1.282741994057    -1.149507248483     1.023597844706    12.000000000000
         H            0.996661994057    -1.813257248483     1.830207844706     1.007825032230

  Charge       = 0
  Multiplicity = 1
  Basis Set: AUG-CC-PVQZ
    Blend: AUG-CC-PVQZ
  Basis Set: (AUG-CC-PVQZ AUX)
    Blend: AUG-CC-PVQZ-JKFIT

    Orbital Energies [Eh]
    ---------------------

    Doubly Occupied:

       1A    -15.566638     2A    -15.533053     3A    -11.275784
       4A    -11.275406     5A    -11.260724     6A    -11.242634
       7A    -11.242334     8A    -11.234244     9A     -1.257540
      10A     -1.165776    11A     -1.090892    12A     -1.035075
      13A     -0.890141    14A     -0.860791    15A     -0.857234
      16A     -0.723587    17A     -0.662059    18A     -0.657308
      19A     -0.655765    20A     -0.600103    21A     -0.598924
      22A     -0.578804    23A     -0.549845    24A     -0.542883
      25A     -0.521687    26A     -0.511218    27A     -0.421344
      28A     -0.388845    29A     -0.385562    30A     -0.349520

  @DF-RHF Final Energy:  -342.05473237982238

   => Energetics <=

    Nuclear Repulsion Energy =            314.9195688523458330
    One-Electron Energy =               -1086.0771489692322120
    Two-Electron Energy =                 429.1028477370639962
    Total Energy =                       -342.0547323798223829

  Dipole Moment: [D]
     X:     1.6879      Y:     1.0584      Z:     1.5459     Total:     2.5217

  Basis Set: (AUG-CC-PVQZ AUX)
    Blend: AUG-CC-PVQZ-RI
	 Reference Energy          =    -342.0547323798223829 [Eh]
	 Singles Energy            =      -0.0000000000000000 [Eh]
	 Same-Spin Energy          =      -0.3855770643496184 [Eh]
	 Opposite-Spin Energy      =      -1.3352772774161701 [Eh]
	 Correlation Energy        =      -1.7208543417657884 [Eh]
	 Total Energy              =    -343.7755867215881835 [Eh]

	 ================> DF-SCS-MP2 Energies <==================
	-----------------------------------------------------------
	 SCS Same-Spin Scale       =       0.3333333333333333 [-]
	 SCS Opposite-Spin Scale   =       1.2000000000000000 [-]
	 SCS Same-Spin Energy      =      -0.1285256881165395 [Eh]
	 SCS Opposite-Spin Energy  =      -1.6023327328994041 [Eh]
	 SCS Correlation Energy    =      -1.7308584210159437 [Eh]
	 SCS Total Energy          =    -343.7855908008383494 [Eh]
	-----------------------------------------------------------

*** Psi4 exiting successfully. Buy a developer a beer!
