                               Psi4 1.4a2.dev224

  ==> Input File <==

--------------------------------------------------------------------------
#Generated by lconvert.py for cbs job

memory 40 GB

molecule  {
0 1
  C        1.1755930    -0.1458000     0.2316120
  S       -0.1477630     0.4081050    -0.8843620
  H       -0.4421970     1.5356460    -0.2310110
  H        0.7914460    -0.3279690     1.2296560
  H        1.5421700    -1.0818780    -0.1794790
  H        1.9882480     0.5725290     0.2521800
--
0 1
  O       -1.6229430    -1.3937420     1.5753570
  H       -1.5329560    -0.9550260     0.7212140
  H       -2.5065980    -1.7648660     1.5508320
units angstrom
no_reorient
symmetry c1
}

set {
scf_type DF
mp2_type DF
e_convergence 7
reference rhf
}

energy('mp2/aug-cc-pv[tq]z', bsse_type='cp')
--------------------------------------------------------------------------

    Molecular point group: c1
  Charge       = 0
  Multiplicity = 1
  Basis Set: AUG-CC-PVTZ
    Blend: AUG-CC-PVTZ
  Basis Set: (AUG-CC-PVTZ AUX)
    Blend: AUG-CC-PVTZ-JKFIT
  @DF-RHF Final Energy:   -76.06022020793272
    Total Energy =                        -76.0602202079327157
  Basis Set: (AUG-CC-PVTZ AUX)
    Blend: AUG-CC-PVTZ-RI
	 Reference Energy          =     -76.0602202079327157 [Eh]
	 Singles Energy            =      -0.0000000000000000 [Eh]
	 Same-Spin Energy          =      -0.0684234886731299 [Eh]
	 Opposite-Spin Energy      =      -0.2154157445223452 [Eh]
	 Correlation Energy        =      -0.2838392331954752 [Eh]
	 Total Energy              =     -76.3440594411281950 [Eh]
	 SCS Total Energy          =     -76.3415269309172402 [Eh]
    Molecular point group: c1
  Basis Set: AUG-CC-PVQZ
    Blend: AUG-CC-PVQZ
  Basis Set: (AUG-CC-PVQZ AUX)
    Blend: AUG-CC-PVQZ-JKFIT
  @DF-RHF Final Energy:   -76.06559220154330
    Total Energy =                        -76.0655922015432964
  Basis Set: (AUG-CC-PVQZ AUX)
  @DF-RHF Final Energy:   -76.06027464947103
    Total Energy =                        -76.0602746494710402
  @DF-RHF Final Energy:   -76.06561383327904
    Total Energy =                        -76.0656138332790306
  @DF-RHF Final Energy:  -437.75772918700420
    Total Energy =                       -437.7577291870042018
  @DF-RHF Final Energy:  -437.76432823853310
    Total Energy =                       -437.7643282385330394
  @DF-RHF Final Energy:  -437.75766627818382
    Total Energy =                       -437.7576662781838195
  @DF-RHF Final Energy:  -437.76430896249855
    Total Energy =                       -437.7643089624984896
  Multiplicity = 1
  @DF-RHF Final Energy:  -513.82098837302226
    Total Energy =                       -513.8209883730222600
	 Singles Energy            =      -0.0000000000000000 [Eh]
	 Same-Spin Energy          =      -0.1645998199098908 [Eh]
	 Opposite-Spin Energy      =      -0.5535200491952978 [Eh]
	 Correlation Energy        =      -0.7181198691051887 [Eh]
	 Total Energy              =    -514.5391082421274405 [Eh]
	 SCS Total Energy          =    -514.5400790386931931 [Eh]
    Molecular point group: c1

    Geometry (in Angstrom), charge = 0, multiplicity = 1:

       Center              X                  Y                   Z               Mass
    ------------   -----------------  -----------------  -----------------  -----------------
         C            1.429132585861     0.051609907372     0.185080703136    12.000000000000
         S            0.105776585861     0.605514907372    -0.930893296864    31.972071174400
         H           -0.188657414139     1.733055907372    -0.277542296864     1.007825032230
         H            1.044985585861    -0.130559092628     1.183124703136     1.007825032230
         H            1.795709585861    -0.884468092628    -0.226010296864     1.007825032230
         H            2.241787585861     0.769938907372     0.205648703136     1.007825032230
         O           -1.369403414139    -1.196332092628     1.528825703136    15.994914619570
         H           -1.279416414139    -0.757616092628     0.674682703136     1.007825032230
         H           -2.253058414139    -1.567456092628     1.504300703136     1.007825032230

  Charge       = 0
  Multiplicity = 1
  Basis Set: AUG-CC-PVQZ
    Blend: AUG-CC-PVQZ
  Basis Set: (AUG-CC-PVQZ AUX)
    Blend: AUG-CC-PVQZ-JKFIT

    Orbital Energies [Eh]
    ---------------------

    Doubly Occupied:

       1A    -91.959743     2A    -20.551560     3A    -11.256965
       4A     -8.962339     5A     -6.643999     6A     -6.643052
       7A     -6.642171     8A     -1.339581     9A     -1.044056
      10A     -0.872785    11A     -0.705734    12A     -0.612613
      13A     -0.594635    14A     -0.575409    15A     -0.533272
      16A     -0.498676    17A     -0.467326    18A     -0.369150

  @DF-RHF Final Energy:  -513.83292177299211

   => Energetics <=

    Nuclear Repulsion Energy =            106.5703832108308404
    One-Electron Energy =                -920.2604635630121948
    Two-Electron Energy =                 299.8571585791892176
    Total Energy =                       -513.8329217729921083

  Dipole Moment: [D]
     X:    -0.0318      Y:     0.4329      Z:    -0.2139     Total:     0.4839

  Basis Set: (AUG-CC-PVQZ AUX)
    Blend: AUG-CC-PVQZ-RI
	 Reference Energy          =    -513.8329217729921083 [Eh]
	 Singles Energy            =      -0.0000000000000000 [Eh]
	 Same-Spin Energy          =      -0.1783662576320918 [Eh]
	 Opposite-Spin Energy      =      -0.6262596724805675 [Eh]
	 Correlation Energy        =      -0.8046259301126593 [Eh]
	 Total Energy              =    -514.6375477031048149 [Eh]

	 ================> DF-SCS-MP2 Energies <==================
	-----------------------------------------------------------
	 SCS Same-Spin Scale       =       0.3333333333333333 [-]
	 SCS Opposite-Spin Scale   =       1.2000000000000000 [-]
	 SCS Same-Spin Energy      =      -0.0594554192106973 [Eh]
	 SCS Opposite-Spin Energy  =      -0.7515116069766810 [Eh]
	 SCS Correlation Energy    =      -0.8109670261873783 [Eh]
	 SCS Total Energy          =    -514.6438887991795355 [Eh]
	-----------------------------------------------------------

*** Psi4 exiting successfully. Buy a developer a beer!
