                               Psi4 1.4a2.dev224

  ==> Input File <==

--------------------------------------------------------------------------
#Generated by lconvert.py for cbs job

memory 40 GB

molecule  {
0 1
  C        1.1755930    -0.1458000     0.2316120
  S       -0.1477630     0.4081050    -0.8843620
  H       -0.4421970     1.5356460    -0.2310110
  H        0.7914460    -0.3279690     1.2296560
  H        1.5421700    -1.0818780    -0.1794790
  H        1.9882480     0.5725290     0.2521800
--
0 1
  O       -1.4930820    -1.3072330     1.4870440
  H       -1.4030950    -0.8685170     0.6329010
  H       -2.3767370    -1.6783570     1.4625190
units angstrom
no_reorient
symmetry c1
}

set {
scf_type DF
mp2_type DF
e_convergence 7
reference rhf
}

energy('mp2/aug-cc-pv[tq]z', bsse_type='cp')
--------------------------------------------------------------------------

    Molecular point group: c1
  Charge       = 0
  Multiplicity = 1
  Basis Set: AUG-CC-PVTZ
    Blend: AUG-CC-PVTZ
  Basis Set: (AUG-CC-PVTZ AUX)
    Blend: AUG-CC-PVTZ-JKFIT
  @DF-RHF Final Energy:   -76.06022020791488
    Total Energy =                        -76.0602202079148810
  Basis Set: (AUG-CC-PVTZ AUX)
    Blend: AUG-CC-PVTZ-RI
	 Reference Energy          =     -76.0602202079148810 [Eh]
	 Singles Energy            =      -0.0000000000000000 [Eh]
	 Same-Spin Energy          =      -0.0684234886731258 [Eh]
	 Opposite-Spin Energy      =      -0.2154157445222800 [Eh]
	 Correlation Energy        =      -0.2838392331954059 [Eh]
	 Total Energy              =     -76.3440594411102893 [Eh]
	 SCS Total Energy          =     -76.3415269308993203 [Eh]
    Molecular point group: c1
  Basis Set: AUG-CC-PVQZ
    Blend: AUG-CC-PVQZ
  Basis Set: (AUG-CC-PVQZ AUX)
    Blend: AUG-CC-PVQZ-JKFIT
  @DF-RHF Final Energy:   -76.06559220155079
    Total Energy =                        -76.0655922015507713
  Basis Set: (AUG-CC-PVQZ AUX)
  @DF-RHF Final Energy:   -76.06028575848728
    Total Energy =                        -76.0602857584872964
  @DF-RHF Final Energy:   -76.06561786235392
    Total Energy =                        -76.0656178623539176
  @DF-RHF Final Energy:  -437.75773415642061
    Total Energy =                       -437.7577341564206108
  @DF-RHF Final Energy:  -437.76433069500246
    Total Energy =                       -437.7643306950024567
  @DF-RHF Final Energy:  -437.75766627814824
    Total Energy =                       -437.7576662781482355
  @DF-RHF Final Energy:  -437.76430896240333
    Total Energy =                       -437.7643089624032768
  Multiplicity = 1
  @DF-RHF Final Energy:  -513.81931856558526
    Total Energy =                       -513.8193185655852631
	 Singles Energy            =      -0.0000000000000000 [Eh]
	 Same-Spin Energy          =      -0.1654257914658951 [Eh]
	 Opposite-Spin Energy      =      -0.5545024019968925 [Eh]
	 Correlation Energy        =      -0.7199281934627876 [Eh]
	 Total Energy              =    -514.5392467590480692 [Eh]
	 SCS Total Energy          =    -514.5398633784701588 [Eh]
    Molecular point group: c1

    Geometry (in Angstrom), charge = 0, multiplicity = 1:

       Center              X                  Y                   Z               Mass
    ------------   -----------------  -----------------  -----------------  -----------------
         C            1.393702643600     0.028007679798     0.209175115553    12.000000000000
         S            0.070346643600     0.581912679798    -0.906798884447    31.972071174400
         H           -0.224087356400     1.709453679798    -0.253447884447     1.007825032230
         H            1.009555643600    -0.154161320202     1.207219115553     1.007825032230
         H            1.760279643600    -0.908070320202    -0.201915884447     1.007825032230
         H            2.206357643600     0.746336679798     0.229743115553     1.007825032230
         O           -1.274972356400    -1.133425320202     1.464607115553    15.994914619570
         H           -1.184985356400    -0.694709320202     0.610464115553     1.007825032230
         H           -2.158627356400    -1.504549320202     1.440082115553     1.007825032230

  Charge       = 0
  Multiplicity = 1
  Basis Set: AUG-CC-PVQZ
    Blend: AUG-CC-PVQZ
  Basis Set: (AUG-CC-PVQZ AUX)
    Blend: AUG-CC-PVQZ-JKFIT

    Orbital Energies [Eh]
    ---------------------

    Doubly Occupied:

       1A    -91.960533     2A    -20.548011     3A    -11.256447
       4A     -8.963331     5A     -6.644978     6A     -6.644032
       7A     -6.643182     8A     -1.337592     9A     -1.045087
      10A     -0.873577    11A     -0.705948    12A     -0.613185
      13A     -0.593414    14A     -0.573262    15A     -0.533729
      16A     -0.496245    17A     -0.468278    18A     -0.370635

  @DF-RHF Final Energy:  -513.83124046736998

   => Energetics <=

    Nuclear Repulsion Energy =            108.7722552551505260
    One-Electron Energy =                -924.6640576880242861
    Two-Electron Energy =                 302.0605619655037231
    Total Energy =                       -513.8312404673699803

  Dipole Moment: [D]
     X:    -0.0041      Y:     0.4623      Z:    -0.2380     Total:     0.5200

  Basis Set: (AUG-CC-PVQZ AUX)
    Blend: AUG-CC-PVQZ-RI
	 Reference Energy          =    -513.8312404673699803 [Eh]
	 Singles Energy            =      -0.0000000000000000 [Eh]
	 Same-Spin Energy          =      -0.1791658528177553 [Eh]
	 Opposite-Spin Energy      =      -0.6271445384974420 [Eh]
	 Correlation Energy        =      -0.8063103913151972 [Eh]
	 Total Energy              =    -514.6375508586851311 [Eh]

	 ================> DF-SCS-MP2 Energies <==================
	-----------------------------------------------------------
	 SCS Same-Spin Scale       =       0.3333333333333333 [-]
	 SCS Opposite-Spin Scale   =       1.2000000000000000 [-]
	 SCS Same-Spin Energy      =      -0.0597219509392518 [Eh]
	 SCS Opposite-Spin Energy  =      -0.7525734461969303 [Eh]
	 SCS Correlation Energy    =      -0.8122953971361822 [Eh]
	 SCS Total Energy          =    -514.6435358645061342 [Eh]
	-----------------------------------------------------------

*** Psi4 exiting successfully. Buy a developer a beer!
