                               Psi4 1.4a2.dev224

  ==> Input File <==

--------------------------------------------------------------------------
#Generated by lconvert.py for cbs job

memory 20 GB

molecule  {
0 1
  C       1.175590   -0.145800    0.231610
  S      -0.147760    0.408100   -0.884360
  H      -0.442200    1.535650   -0.231010
  H       0.791450   -0.327970    1.229660
  H       1.542170   -1.081880   -0.179480
  H       1.988250    0.572530    0.252180
--
0 1
  O      -3.368830   -2.556790    2.762670
  H      -3.278850   -2.118080    1.908520
  H      -4.252490   -2.927920    2.738140
units angstrom
no_reorient
symmetry c1
}

set {
scf_type DF
mp2_type DF
e_convergence 7
reference rhf
}

energy('mp2/aug-cc-pv[tq]z', bsse_type='cp')
--------------------------------------------------------------------------

    Molecular point group: c1
  Charge       = 0
  Multiplicity = 1
  Basis Set: AUG-CC-PVTZ
    Blend: AUG-CC-PVTZ
  Basis Set: (AUG-CC-PVTZ AUX)
    Blend: AUG-CC-PVTZ-JKFIT
  @DF-RHF Final Energy:   -76.06021976392344
    Total Energy =                        -76.0602197639234419
  Basis Set: (AUG-CC-PVTZ AUX)
    Blend: AUG-CC-PVTZ-RI
	 Reference Energy          =     -76.0602197639234419 [Eh]
	 Singles Energy            =      -0.0000000000000000 [Eh]
	 Same-Spin Energy          =      -0.0684235910324239 [Eh]
	 Opposite-Spin Energy      =      -0.2154160512739284 [Eh]
	 Correlation Energy        =      -0.2838396423063523 [Eh]
	 Total Energy              =     -76.3440594062297890 [Eh]
	 SCS Total Energy          =     -76.3415268891296250 [Eh]
    Molecular point group: c1
  Basis Set: AUG-CC-PVQZ
    Blend: AUG-CC-PVQZ
  Basis Set: (AUG-CC-PVQZ AUX)
    Blend: AUG-CC-PVQZ-JKFIT
  @DF-RHF Final Energy:   -76.06559173336265
    Total Energy =                        -76.0655917333626519
  Basis Set: (AUG-CC-PVQZ AUX)
  @DF-RHF Final Energy:   -76.06022387695681
    Total Energy =                        -76.0602238769567975
  @DF-RHF Final Energy:   -76.06559372720423
    Total Energy =                        -76.0655937272042308
  @DF-RHF Final Energy:  -437.75767016284789
    Total Energy =                       -437.7576701628479441
  @DF-RHF Final Energy:  -437.76431133261895
    Total Energy =                       -437.7643113326189450
  @DF-RHF Final Energy:  -437.75766617155227
    Total Energy =                       -437.7576661715522732
  @DF-RHF Final Energy:  -437.76430885529567
    Total Energy =                       -437.7643088552956669
  Multiplicity = 1
  @DF-RHF Final Energy:  -513.81869754272077
    Total Energy =                       -513.8186975427206562
	 Singles Energy            =      -0.0000000000000000 [Eh]
	 Same-Spin Energy          =      -0.1621719460232091 [Eh]
	 Opposite-Spin Energy      =      -0.5503059190283685 [Eh]
	 Correlation Energy        =      -0.7124778650515775 [Eh]
	 Total Energy              =    -514.5311754077723663 [Eh]
	 SCS Total Energy          =    -514.5331219608958691 [Eh]
    Molecular point group: c1

    Geometry (in Angstrom), charge = 0, multiplicity = 1:

       Center              X                  Y                   Z               Mass
    ------------   -----------------  -----------------  -----------------  -----------------
         C            1.905458703773     0.368926559681    -0.138856071368    12.000000000000
         S            0.582108703773     0.922826559681    -1.254826071368    31.972071174400
         H            0.287668703773     2.050376559681    -0.601476071368     1.007825032230
         H            1.521318703773     0.186756559681     0.859193928632     1.007825032230
         H            2.272038703773    -0.567153440319    -0.549946071368     1.007825032230
         H            2.718118703773     1.087256559681    -0.118286071368     1.007825032230
         O           -2.638961296227    -2.042063440319     2.392203928632    15.994914619570
         H           -2.548981296227    -1.603353440319     1.538053928632     1.007825032230
         H           -3.522621296227    -2.413193440319     2.367673928632     1.007825032230

  Charge       = 0
  Multiplicity = 1
  Basis Set: AUG-CC-PVQZ
    Blend: AUG-CC-PVQZ
  Basis Set: (AUG-CC-PVQZ AUX)
    Blend: AUG-CC-PVQZ-JKFIT

    Orbital Energies [Eh]
    ---------------------

    Doubly Occupied:

       1A    -91.952517     2A    -20.563765     3A    -11.256697
       4A     -8.954840     5A     -6.636497     6A     -6.635552
       7A     -6.634605     8A     -1.349140     9A     -1.039074
      10A     -0.868392    11A     -0.712139    12A     -0.609690
      13A     -0.595420    14A     -0.583693    15A     -0.529473
      16A     -0.508442    17A     -0.461173    18A     -0.359271

  @DF-RHF Final Energy:  -513.83070224059645

   => Energetics <=

    Nuclear Repulsion Energy =             89.6885378229091685
    One-Electron Energy =                -886.5377081637577703
    Two-Electron Energy =                 283.0184681002521074
    Total Energy =                       -513.8307022405964517

  Dipole Moment: [D]
     X:    -0.2824      Y:     0.2829      Z:    -0.1268     Total:     0.4194

  Basis Set: (AUG-CC-PVQZ AUX)
    Blend: AUG-CC-PVQZ-RI
	 Reference Energy          =    -513.8307022405964517 [Eh]
	 Singles Energy            =      -0.0000000000000000 [Eh]
	 Same-Spin Energy          =      -0.1761349153617522 [Eh]
	 Opposite-Spin Energy      =      -0.6238396845162224 [Eh]
	 Correlation Energy        =      -0.7999745998779746 [Eh]
	 Total Energy              =    -514.6306768404743934 [Eh]

	 ================> DF-SCS-MP2 Energies <==================
	-----------------------------------------------------------
	 SCS Same-Spin Scale       =       0.3333333333333333 [-]
	 SCS Opposite-Spin Scale   =       1.2000000000000000 [-]
	 SCS Same-Spin Energy      =      -0.0587116384539174 [Eh]
	 SCS Opposite-Spin Energy  =      -0.7486076214194669 [Eh]
	 SCS Correlation Energy    =      -0.8073192598733843 [Eh]
	 SCS Total Energy          =    -514.6380215004697902 [Eh]
	-----------------------------------------------------------

*** Psi4 exiting successfully. Buy a developer a beer!
