                               Psi4 1.4a2.dev224

  ==> Input File <==

--------------------------------------------------------------------------
#Generated by lconvert.py for cbs job

memory 40 GB

molecule  {
0 1
  C        1.1755930    -0.1458000     0.2316120
  S       -0.1477630     0.4081050    -0.8843620
  H       -0.4421970     1.5356460    -0.2310110
  H        0.7914460    -0.3279690     1.2296560
  H        1.5421700    -1.0818780    -0.1794790
  H        1.9882480     0.5725290     0.2521800
--
0 1
  O       -1.7463270    -1.4759360     1.6592650
  H       -1.6563400    -1.0372200     0.8051220
  H       -2.6299820    -1.8470600     1.6347400
units angstrom
no_reorient
symmetry c1
}

set {
scf_type DF
mp2_type DF
e_convergence 7
reference rhf
}

energy('mp2/aug-cc-pv[tq]z', bsse_type='cp')
--------------------------------------------------------------------------

    Molecular point group: c1
  Charge       = 0
  Multiplicity = 1
  Basis Set: AUG-CC-PVTZ
    Blend: AUG-CC-PVTZ
  Basis Set: (AUG-CC-PVTZ AUX)
    Blend: AUG-CC-PVTZ-JKFIT
  @DF-RHF Final Energy:   -76.06022020793353
    Total Energy =                        -76.0602202079335257
  Basis Set: (AUG-CC-PVTZ AUX)
    Blend: AUG-CC-PVTZ-RI
	 Reference Energy          =     -76.0602202079335257 [Eh]
	 Singles Energy            =      -0.0000000000000000 [Eh]
	 Same-Spin Energy          =      -0.0684234886731327 [Eh]
	 Opposite-Spin Energy      =      -0.2154157445223144 [Eh]
	 Correlation Energy        =      -0.2838392331954472 [Eh]
	 Total Energy              =     -76.3440594411289766 [Eh]
	 SCS Total Energy          =     -76.3415269309180076 [Eh]
    Molecular point group: c1
  Basis Set: AUG-CC-PVQZ
    Blend: AUG-CC-PVQZ
  Basis Set: (AUG-CC-PVQZ AUX)
    Blend: AUG-CC-PVQZ-JKFIT
  @DF-RHF Final Energy:   -76.06559220156376
    Total Energy =                        -76.0655922015637600
  Basis Set: (AUG-CC-PVQZ AUX)
  @DF-RHF Final Energy:   -76.06026524801584
    Total Energy =                        -76.0602652480158383
  @DF-RHF Final Energy:   -76.06561067359679
    Total Energy =                        -76.0656106735967938
  @DF-RHF Final Energy:  -437.75772389846054
    Total Energy =                       -437.7577238984604833
  @DF-RHF Final Energy:  -437.76432689467953
    Total Energy =                       -437.7643268946795274
  @DF-RHF Final Energy:  -437.75766627818206
    Total Energy =                       -437.7576662781821142
  @DF-RHF Final Energy:  -437.76430896248320
    Total Energy =                       -437.7643089624831418
  Multiplicity = 1
  @DF-RHF Final Energy:  -513.82153364861881
    Total Energy =                       -513.8215336486188107
	 Singles Energy            =      -0.0000000000000000 [Eh]
	 Same-Spin Energy          =      -0.1640144227511880 [Eh]
	 Opposite-Spin Energy      =      -0.5528049238540794 [Eh]
	 Correlation Energy        =      -0.7168193466052675 [Eh]
	 Total Energy              =    -514.5383529952240451 [Eh]
	 SCS Total Energy          =    -514.5395710314941198 [Eh]
    Molecular point group: c1

    Geometry (in Angstrom), charge = 0, multiplicity = 1:

       Center              X                  Y                   Z               Mass
    ------------   -----------------  -----------------  -----------------  -----------------
         C            1.462795409926     0.074034874639     0.162188105704    12.000000000000
         S            0.139439409926     0.627939874639    -0.953785894296    31.972071174400
         H           -0.154994590074     1.755480874639    -0.300434894296     1.007825032230
         H            1.078648409926    -0.108134125361     1.160232105704     1.007825032230
         H            1.829372409926    -0.862043125361    -0.248902894296     1.007825032230
         H            2.275450409926     0.792363874639     0.182756105704     1.007825032230
         O           -1.459124590074    -1.256101125361     1.589841105704    15.994914619570
         H           -1.369137590074    -0.817385125361     0.735698105704     1.007825032230
         H           -2.342779590074    -1.627225125361     1.565316105704     1.007825032230

  Charge       = 0
  Multiplicity = 1
  Basis Set: AUG-CC-PVQZ
    Blend: AUG-CC-PVQZ
  Basis Set: (AUG-CC-PVQZ AUX)
    Blend: AUG-CC-PVQZ-JKFIT

    Orbital Energies [Eh]
    ---------------------

    Doubly Occupied:

       1A    -91.958947     2A    -20.554135     3A    -11.257233
       4A     -8.961426     5A     -6.643091     6A     -6.642145
       7A     -6.641246     8A     -1.341230     9A     -1.043275
      10A     -0.872160    11A     -0.706078    12A     -0.612198
      13A     -0.595349    14A     -0.576952    15A     -0.532836
      16A     -0.500541    17A     -0.466508    18A     -0.367744

  @DF-RHF Final Energy:  -513.83347845867797

   => Energetics <=

    Nuclear Repulsion Energy =            104.6682274949326228
    One-Electron Energy =                -916.4572097515447240
    Two-Electron Energy =                 297.9555037979341705
    Total Energy =                       -513.8334784586779733

  Dipole Moment: [D]
     X:    -0.0595      Y:     0.4084      Z:    -0.1951     Total:     0.4565

  Basis Set: (AUG-CC-PVQZ AUX)
    Blend: AUG-CC-PVQZ-RI
	 Reference Energy          =    -513.8334784586779733 [Eh]
	 Singles Energy            =      -0.0000000000000000 [Eh]
	 Same-Spin Energy          =      -0.1778036234388265 [Eh]
	 Opposite-Spin Energy      =      -0.6256415208385352 [Eh]
	 Correlation Energy        =      -0.8034451442773617 [Eh]
	 Total Energy              =    -514.6369236029553349 [Eh]

	 ================> DF-SCS-MP2 Energies <==================
	-----------------------------------------------------------
	 SCS Same-Spin Scale       =       0.3333333333333333 [-]
	 SCS Opposite-Spin Scale   =       1.2000000000000000 [-]
	 SCS Same-Spin Energy      =      -0.0592678744796088 [Eh]
	 SCS Opposite-Spin Energy  =      -0.7507698250062422 [Eh]
	 SCS Correlation Energy    =      -0.8100376994858510 [Eh]
	 SCS Total Energy          =    -514.6435161581638340 [Eh]
	-----------------------------------------------------------

*** Psi4 exiting successfully. Buy a developer a beer!
