                               Psi4 1.4a2.dev224

  ==> Input File <==

--------------------------------------------------------------------------
#Generated by lconvert.py for cbs job

memory 20 GB

molecule  {
0 1
  C       1.175590   -0.145800    0.231610
  S      -0.147760    0.408100   -0.884360
  H      -0.442200    1.535650   -0.231010
  H       0.791450   -0.327970    1.229660
  H       1.542170   -1.081880   -0.179480
  H       1.988250    0.572530    0.252180
--
0 1
  O      -2.804870   -2.181100    2.379140
  H      -2.714880   -1.742380    1.524990
  H      -3.688520   -2.552220    2.354610
units angstrom
no_reorient
symmetry c1
}

set {
scf_type DF
mp2_type DF
e_convergence 7
reference rhf
}

energy('mp2/aug-cc-pv[tq]z', bsse_type='cp')
--------------------------------------------------------------------------

    Molecular point group: c1
  Charge       = 0
  Multiplicity = 1
  Basis Set: AUG-CC-PVTZ
    Blend: AUG-CC-PVTZ
  Basis Set: (AUG-CC-PVTZ AUX)
    Blend: AUG-CC-PVTZ-JKFIT
  @DF-RHF Final Energy:   -76.06022001929544
    Total Energy =                        -76.0602200192954285
  Basis Set: (AUG-CC-PVTZ AUX)
    Blend: AUG-CC-PVTZ-RI
	 Reference Energy          =     -76.0602200192954427 [Eh]
	 Singles Energy            =      -0.0000000000000000 [Eh]
	 Same-Spin Energy          =      -0.0684235119050728 [Eh]
	 Opposite-Spin Energy      =      -0.2154158165635139 [Eh]
	 Correlation Energy        =      -0.2838393284685867 [Eh]
	 Total Energy              =     -76.3440593477640306 [Eh]
	 SCS Total Energy          =     -76.3415268364733492 [Eh]
    Molecular point group: c1
  Basis Set: AUG-CC-PVQZ
    Blend: AUG-CC-PVQZ
  Basis Set: (AUG-CC-PVQZ AUX)
    Blend: AUG-CC-PVQZ-JKFIT
  @DF-RHF Final Energy:   -76.06559200788521
    Total Energy =                        -76.0655920078852148
  Basis Set: (AUG-CC-PVQZ AUX)
  @DF-RHF Final Energy:   -76.06022843475698
    Total Energy =                        -76.0602284347569793
  @DF-RHF Final Energy:   -76.06559615962443
    Total Energy =                        -76.0655961596244197
  @DF-RHF Final Energy:  -437.75767891334294
    Total Energy =                       -437.7576789133429429
  @DF-RHF Final Energy:  -437.76431503415648
    Total Energy =                       -437.7643150341564251
  @DF-RHF Final Energy:  -437.75766617152146
    Total Energy =                       -437.7576661715214641
  @DF-RHF Final Energy:  -437.76430885536405
    Total Energy =                       -437.7643088553641064
  Multiplicity = 1
  @DF-RHF Final Energy:  -513.81934712758039
    Total Energy =                       -513.8193471275803859
	 Singles Energy            =      -0.0000000000000000 [Eh]
	 Same-Spin Energy          =      -0.1623113791503670 [Eh]
	 Opposite-Spin Energy      =      -0.5505110503101072 [Eh]
	 Correlation Energy        =      -0.7128224294604741 [Eh]
	 Total Energy              =    -514.5321695570409020 [Eh]
	 SCS Total Energy          =    -514.5340641810026909 [Eh]
    Molecular point group: c1

    Geometry (in Angstrom), charge = 0, multiplicity = 1:

       Center              X                  Y                   Z               Mass
    ------------   -----------------  -----------------  -----------------  -----------------
         C            1.751593340895     0.266426851075    -0.034217682974    12.000000000000
         S            0.428243340895     0.820326851075    -1.150187682974    31.972071174400
         H            0.133803340895     1.947876851075    -0.496837682974     1.007825032230
         H            1.367453340895     0.084256851075     0.963832317026     1.007825032230
         H            2.118173340895    -0.669653148925    -0.445307682974     1.007825032230
         H            2.564253340895     0.984756851075    -0.013647682974     1.007825032230
         O           -2.228866659105    -1.768873148925     2.113312317026    15.994914619570
         H           -2.138876659105    -1.330153148925     1.259162317026     1.007825032230
         H           -3.112516659105    -2.139993148925     2.088782317026     1.007825032230

  Charge       = 0
  Multiplicity = 1
  Basis Set: AUG-CC-PVQZ
    Blend: AUG-CC-PVQZ
  Basis Set: (AUG-CC-PVQZ AUX)
    Blend: AUG-CC-PVQZ-JKFIT

    Orbital Energies [Eh]
    ---------------------

    Doubly Occupied:

       1A    -91.953748     2A    -20.562556     3A    -11.256978
       4A     -8.956070     5A     -6.637730     6A     -6.636785
       7A     -6.635843     8A     -1.348002     9A     -1.039816
      10A     -0.869096    11A     -0.710985    12A     -0.610189
      13A     -0.595692    14A     -0.582714    15A     -0.530146
      16A     -0.507364    17A     -0.462168    18A     -0.360633

  @DF-RHF Final Energy:  -513.83134102592408

   => Energetics <=

    Nuclear Repulsion Energy =             93.4250976855600896
    One-Electron Energy =                -893.9998341550964369
    Two-Electron Energy =                 286.7433954436122576
    Total Energy =                       -513.8313410259240754

  Dipole Moment: [D]
     X:    -0.2387      Y:     0.3005      Z:    -0.1312     Total:     0.4056

  Basis Set: (AUG-CC-PVQZ AUX)
    Blend: AUG-CC-PVQZ-RI
	 Reference Energy          =    -513.8313410259240754 [Eh]
	 Singles Energy            =      -0.0000000000000000 [Eh]
	 Same-Spin Energy          =      -0.1762477368937996 [Eh]
	 Opposite-Spin Energy      =      -0.6239493776261389 [Eh]
	 Correlation Energy        =      -0.8001971145199385 [Eh]
	 Total Energy              =    -514.6315381404440359 [Eh]

	 ================> DF-SCS-MP2 Energies <==================
	-----------------------------------------------------------
	 SCS Same-Spin Scale       =       0.3333333333333333 [-]
	 SCS Opposite-Spin Scale   =       1.2000000000000000 [-]
	 SCS Same-Spin Energy      =      -0.0587492456312665 [Eh]
	 SCS Opposite-Spin Energy  =      -0.7487392531513667 [Eh]
	 SCS Correlation Energy    =      -0.8074884987826332 [Eh]
	 SCS Total Energy          =    -514.6388295247066935 [Eh]
	-----------------------------------------------------------

*** Psi4 exiting successfully. Buy a developer a beer!
