                               Psi4 1.4a2.dev224

  ==> Input File <==

--------------------------------------------------------------------------
#Generated by lconvert.py for cbs job

memory 40 GB

molecule  {
0 1
  C        1.1755930    -0.1458000     0.2316120
  S       -0.1477630     0.4081050    -0.8843620
  H       -0.4421970     1.5356460    -0.2310110
  H        0.7914460    -0.3279690     1.2296560
  H        1.5421700    -1.0818780    -0.1794790
  H        1.9882480     0.5725290     0.2521800
--
0 1
  O       -1.3939220    -1.2411760     1.4196100
  H       -1.3039350    -0.8024600     0.5654670
  H       -2.2775770    -1.6123000     1.3950850
units angstrom
no_reorient
symmetry c1
}

set {
scf_type DF
mp2_type DF
e_convergence 7
reference rhf
}

energy('mp2/aug-cc-pv[tq]z', bsse_type='cp')
--------------------------------------------------------------------------

    Molecular point group: c1
  Charge       = 0
  Multiplicity = 1
  Basis Set: AUG-CC-PVTZ
    Blend: AUG-CC-PVTZ
  Basis Set: (AUG-CC-PVTZ AUX)
    Blend: AUG-CC-PVTZ-JKFIT
  @DF-RHF Final Energy:   -76.06022020793084
    Total Energy =                        -76.0602202079308540
  Basis Set: (AUG-CC-PVTZ AUX)
    Blend: AUG-CC-PVTZ-RI
	 Reference Energy          =     -76.0602202079308398 [Eh]
	 Singles Energy            =      -0.0000000000000000 [Eh]
	 Same-Spin Energy          =      -0.0684234886731299 [Eh]
	 Opposite-Spin Energy      =      -0.2154157445222951 [Eh]
	 Correlation Energy        =      -0.2838392331954250 [Eh]
	 Total Energy              =     -76.3440594411262623 [Eh]
	 SCS Total Energy          =     -76.3415269309153075 [Eh]
    Molecular point group: c1
  Basis Set: AUG-CC-PVQZ
    Blend: AUG-CC-PVQZ
  Basis Set: (AUG-CC-PVQZ AUX)
    Blend: AUG-CC-PVQZ-JKFIT
  @DF-RHF Final Energy:   -76.06559220154179
    Total Energy =                        -76.0655922015417900
  Basis Set: (AUG-CC-PVQZ AUX)
  @DF-RHF Final Energy:   -76.06029522416767
    Total Energy =                        -76.0602952241676746
  @DF-RHF Final Energy:   -76.06562130108672
    Total Energy =                        -76.0656213010867219
  @DF-RHF Final Energy:  -437.75773896728896
    Total Energy =                       -437.7577389672889012
  @DF-RHF Final Energy:  -437.76433376581002
    Total Energy =                       -437.7643337658100791
  @DF-RHF Final Energy:  -437.75766627825197
    Total Energy =                       -437.7576662782520316
  @DF-RHF Final Energy:  -437.76430896258688
    Total Energy =                       -437.7643089625868242
  Multiplicity = 1
  @DF-RHF Final Energy:  -513.81671076770976
    Total Energy =                       -513.8167107677097647
	 Singles Energy            =      -0.0000000000000000 [Eh]
	 Same-Spin Energy          =      -0.1662440144616352 [Eh]
	 Opposite-Spin Energy      =      -0.5554631723955231 [Eh]
	 Correlation Energy        =      -0.7217071868571583 [Eh]
	 Total Energy              =    -514.5384179545669667 [Eh]
	 SCS Total Energy          =    -514.5386812460716328 [Eh]
    Molecular point group: c1

    Geometry (in Angstrom), charge = 0, multiplicity = 1:

       Center              X                  Y                   Z               Mass
    ------------   -----------------  -----------------  -----------------  -----------------
         C            1.366648847044     0.009985365971     0.227573115926    12.000000000000
         S            0.043292847044     0.563890365971    -0.888400884074    31.972071174400
         H           -0.251141152956     1.691431365971    -0.235049884074     1.007825032230
         H            0.982501847044    -0.172183634029     1.225617115926     1.007825032230
         H            1.733225847044    -0.926092634029    -0.183517884074     1.007825032230
         H            2.179303847044     0.728314365971     0.248141115926     1.007825032230
         O           -1.202866152956    -1.085390634029     1.415571115926    15.994914619570
         H           -1.112879152956    -0.646674634029     0.561428115926     1.007825032230
         H           -2.086521152956    -1.456514634029     1.391046115926     1.007825032230

  Charge       = 0
  Multiplicity = 1
  Basis Set: AUG-CC-PVQZ
    Blend: AUG-CC-PVQZ
  Basis Set: (AUG-CC-PVQZ AUX)
    Blend: AUG-CC-PVQZ-JKFIT

    Orbital Energies [Eh]
    ---------------------

    Doubly Occupied:

       1A    -91.961068     2A    -20.544553     3A    -11.255813
       4A     -8.964102     5A     -6.645730     6A     -6.644784
       7A     -6.643972     8A     -1.335946     9A     -1.046087
      10A     -0.874323    11A     -0.706774    12A     -0.613795
      13A     -0.592139    14A     -0.571004    15A     -0.534053
      16A     -0.494017    17A     -0.469075    18A     -0.371645

  @DF-RHF Final Energy:  -513.82862625168968

   => Energetics <=

    Nuclear Repulsion Energy =            110.6102854334595662
    One-Electron Energy =                -928.3400626987227042
    Two-Electron Energy =                 303.9011510135734397
    Total Energy =                       -513.8286262516896841

  Dipole Moment: [D]
     X:     0.0146      Y:     0.4873      Z:    -0.2596     Total:     0.5523

  Basis Set: (AUG-CC-PVQZ AUX)
    Blend: AUG-CC-PVQZ-RI
	 Reference Energy          =    -513.8286262516896841 [Eh]
	 Singles Energy            =      -0.0000000000000000 [Eh]
	 Same-Spin Energy          =      -0.1799633241807907 [Eh]
	 Opposite-Spin Energy      =      -0.6280346502497975 [Eh]
	 Correlation Energy        =      -0.8079979744305882 [Eh]
	 Total Energy              =    -514.6366242261202615 [Eh]

	 ================> DF-SCS-MP2 Energies <==================
	-----------------------------------------------------------
	 SCS Same-Spin Scale       =       0.3333333333333333 [-]
	 SCS Opposite-Spin Scale   =       1.2000000000000000 [-]
	 SCS Same-Spin Energy      =      -0.0599877747269302 [Eh]
	 SCS Opposite-Spin Energy  =      -0.7536415802997570 [Eh]
	 SCS Correlation Energy    =      -0.8136293550266872 [Eh]
	 SCS Total Energy          =    -514.6422556067163896 [Eh]
	-----------------------------------------------------------

*** Psi4 exiting successfully. Buy a developer a beer!
