                               Psi4 1.4a2.dev224

  ==> Input File <==

--------------------------------------------------------------------------
#Generated by lconvert.py for cbs job

memory 40 GB

molecule  {
0 1
  C        1.1755930    -0.1458000     0.2316120
  S       -0.1477630     0.4081050    -0.8843620
  H       -0.4421970     1.5356460    -0.2310110
  H        0.7914460    -0.3279690     1.2296560
  H        1.5421700    -1.0818780    -0.1794790
  H        1.9882480     0.5725290     0.2521800
--
0 1
  O       -1.0202540    -0.9922500     1.1654950
  H       -0.9302670    -0.5535340     0.3113520
  H       -1.9039090    -1.3633740     1.1409700
units angstrom
no_reorient
symmetry c1
}

set {
scf_type DF
mp2_type DF
e_convergence 7
reference rhf
}

energy('mp2/aug-cc-pv[tq]z', bsse_type='cp')
--------------------------------------------------------------------------

    Molecular point group: c1
  Charge       = 0
  Multiplicity = 1
  Basis Set: AUG-CC-PVTZ
    Blend: AUG-CC-PVTZ
  Basis Set: (AUG-CC-PVTZ AUX)
    Blend: AUG-CC-PVTZ-JKFIT
  @DF-RHF Final Energy:   -76.06022020793723
    Total Energy =                        -76.0602202079372347
  Basis Set: (AUG-CC-PVTZ AUX)
    Blend: AUG-CC-PVTZ-RI
	 Reference Energy          =     -76.0602202079372347 [Eh]
	 Singles Energy            =      -0.0000000000000000 [Eh]
	 Same-Spin Energy          =      -0.0684234886731326 [Eh]
	 Opposite-Spin Energy      =      -0.2154157445222800 [Eh]
	 Correlation Energy        =      -0.2838392331954127 [Eh]
	 Total Energy              =     -76.3440594411326430 [Eh]
	 SCS Total Energy          =     -76.3415269309216882 [Eh]
    Molecular point group: c1
  Basis Set: AUG-CC-PVQZ
    Blend: AUG-CC-PVQZ
  Basis Set: (AUG-CC-PVQZ AUX)
    Blend: AUG-CC-PVQZ-JKFIT
  @DF-RHF Final Energy:   -76.06559220154510
    Total Energy =                        -76.0655922015451011
  Basis Set: (AUG-CC-PVQZ AUX)
  @DF-RHF Final Energy:   -76.06034650128375
    Total Energy =                        -76.0603465012837461
  @DF-RHF Final Energy:   -76.06563961016629
    Total Energy =                        -76.0656396101662864
  @DF-RHF Final Energy:  -437.75777493203606
    Total Energy =                       -437.7577749320360567
  @DF-RHF Final Energy:  -437.76434931268528
    Total Energy =                       -437.7643493126852263
  @DF-RHF Final Energy:  -437.75766627827323
    Total Energy =                       -437.7576662782732342
  @DF-RHF Final Energy:  -437.76430896251230
    Total Energy =                       -437.7643089625122457
  Multiplicity = 1
  @DF-RHF Final Energy:  -513.77903932751326
    Total Energy =                       -513.7790393275132601
	 Singles Energy            =      -0.0000000000000000 [Eh]
	 Same-Spin Energy          =      -0.1715248052561149 [Eh]
	 Opposite-Spin Energy      =      -0.5619267198472302 [Eh]
	 Correlation Energy        =      -0.7334515251033451 [Eh]
	 Total Energy              =    -514.5124908526165655 [Eh]
	 SCS Total Energy          =    -514.5105263264152882 [Eh]
    Molecular point group: c1

    Geometry (in Angstrom), charge = 0, multiplicity = 1:

       Center              X                  Y                   Z               Mass
    ------------   -----------------  -----------------  -----------------  -----------------
         C            1.264701105500    -0.057929048728     0.296903244121    12.000000000000
         S           -0.058654894500     0.495975951272    -0.819070755879    31.972071174400
         H           -0.353088894500     1.623516951272    -0.165719755879     1.007825032230
         H            0.880554105500    -0.240098048728     1.294947244121     1.007825032230
         H            1.631278105500    -0.994007048728    -0.114187755879     1.007825032230
         H            2.077356105500     0.660399951272     0.317471244121     1.007825032230
         O           -0.931145894500    -0.904379048728     1.230786244121    15.994914619570
         H           -0.841158894500    -0.465663048728     0.376643244121     1.007825032230
         H           -1.814800894500    -1.275503048728     1.206261244121     1.007825032230

  Charge       = 0
  Multiplicity = 1
  Basis Set: AUG-CC-PVQZ
    Blend: AUG-CC-PVQZ
  Basis Set: (AUG-CC-PVQZ AUX)
    Blend: AUG-CC-PVQZ-JKFIT

    Orbital Energies [Eh]
    ---------------------

    Doubly Occupied:

       1A    -91.961956     2A    -20.523155     3A    -11.250008
       4A     -8.967119     5A     -6.648508     6A     -6.647586
       7A     -6.647146     8A     -1.332223     9A     -1.053232
      10A     -0.879783    11A     -0.719293    12A     -0.621089
      13A     -0.589098    14A     -0.548901    15A     -0.533389
      16A     -0.483394    17A     -0.472196    18A     -0.370321

  @DF-RHF Final Energy:  -513.79102464320749

   => Energetics <=

    Nuclear Repulsion Energy =            119.0774942649053258
    One-Electron Energy =                -945.2402409765103357
    Two-Electron Energy =                 312.3717220683974460
    Total Energy =                       -513.7910246432074928

  Dipole Moment: [D]
     X:     0.0258      Y:     0.5904      Z:    -0.3568     Total:     0.6903

  Basis Set: (AUG-CC-PVQZ AUX)
    Blend: AUG-CC-PVQZ-RI
	 Reference Energy          =    -513.7910246432074928 [Eh]
	 Singles Energy            =      -0.0000000000000000 [Eh]
	 Same-Spin Energy          =      -0.1851683275506779 [Eh]
	 Opposite-Spin Energy      =      -0.6340602714839947 [Eh]
	 Correlation Energy        =      -0.8192285990346726 [Eh]
	 Total Energy              =    -514.6102532422421518 [Eh]

	 ================> DF-SCS-MP2 Energies <==================
	-----------------------------------------------------------
	 SCS Same-Spin Scale       =       0.3333333333333333 [-]
	 SCS Opposite-Spin Scale   =       1.2000000000000000 [-]
	 SCS Same-Spin Energy      =      -0.0617227758502260 [Eh]
	 SCS Opposite-Spin Energy  =      -0.7608723257807936 [Eh]
	 SCS Correlation Energy    =      -0.8225951016310196 [Eh]
	 SCS Total Energy          =    -514.6136197448385019 [Eh]
	-----------------------------------------------------------

*** Psi4 exiting successfully. Buy a developer a beer!
