                               Psi4 1.4a2.dev224

  ==> Input File <==

--------------------------------------------------------------------------
#Generated by lconvert.py for cbs job

memory 40 GB

molecule  {
0 1
  C        1.1755930    -0.1458000     0.2316120
  S       -0.1477630     0.4081050    -0.8843620
  H       -0.4421970     1.5356460    -0.2310110
  H        0.7914460    -0.3279690     1.2296560
  H        1.5421700    -1.0818780    -0.1794790
  H        1.9882480     0.5725290     0.2521800
--
0 1
  O       -1.2082420    -1.1174810     1.2933380
  H       -1.1182550    -0.6787650     0.4391950
  H       -2.0918970    -1.4886050     1.2688130
units angstrom
no_reorient
symmetry c1
}

set {
scf_type DF
mp2_type DF
e_convergence 7
reference rhf
}

energy('mp2/aug-cc-pv[tq]z', bsse_type='cp')
--------------------------------------------------------------------------

    Molecular point group: c1
  Charge       = 0
  Multiplicity = 1
  Basis Set: AUG-CC-PVTZ
    Blend: AUG-CC-PVTZ
  Basis Set: (AUG-CC-PVTZ AUX)
    Blend: AUG-CC-PVTZ-JKFIT
  @DF-RHF Final Energy:   -76.06022020793164
    Total Energy =                        -76.0602202079316498
  Basis Set: (AUG-CC-PVTZ AUX)
    Blend: AUG-CC-PVTZ-RI
	 Reference Energy          =     -76.0602202079316356 [Eh]
	 Singles Energy            =      -0.0000000000000000 [Eh]
	 Same-Spin Energy          =      -0.0684234886731254 [Eh]
	 Opposite-Spin Energy      =      -0.2154157445223078 [Eh]
	 Correlation Energy        =      -0.2838392331954332 [Eh]
	 Total Energy              =     -76.3440594411270723 [Eh]
	 SCS Total Energy          =     -76.3415269309161175 [Eh]
    Molecular point group: c1
  Basis Set: AUG-CC-PVQZ
    Blend: AUG-CC-PVQZ
  Basis Set: (AUG-CC-PVQZ AUX)
    Blend: AUG-CC-PVQZ-JKFIT
  @DF-RHF Final Energy:   -76.06559220154722
    Total Energy =                        -76.0655922015472186
  Basis Set: (AUG-CC-PVQZ AUX)
  @DF-RHF Final Energy:   -76.06031584759204
    Total Energy =                        -76.0603158475920367
  @DF-RHF Final Energy:   -76.06562957423951
    Total Energy =                        -76.0656295742395230
  @DF-RHF Final Energy:  -437.75775434435468
    Total Energy =                       -437.7577543443546801
  @DF-RHF Final Energy:  -437.76434125252121
    Total Energy =                       -437.7643412525212057
  @DF-RHF Final Energy:  -437.75766627823072
    Total Energy =                       -437.7576662782307153
  @DF-RHF Final Energy:  -437.76430896261513
    Total Energy =                       -437.7643089626151323
  Multiplicity = 1
  @DF-RHF Final Energy:  -513.80589773220015
    Total Energy =                       -513.8058977322001510
	 Singles Energy            =      -0.0000000000000000 [Eh]
	 Same-Spin Energy          =      -0.1683553716776813 [Eh]
	 Opposite-Spin Energy      =      -0.5579683128118367 [Eh]
	 Correlation Energy        =      -0.7263236844895180 [Eh]
	 Total Energy              =    -514.5322214166897083 [Eh]
	 SCS Total Energy          =    -514.5315781648002940 [Eh]
    Molecular point group: c1

    Geometry (in Angstrom), charge = 0, multiplicity = 1:

       Center              X                  Y                   Z               Mass
    ------------   -----------------  -----------------  -----------------  -----------------
         C            1.315989821787    -0.023762308142     0.262023872267    12.000000000000
         S           -0.007366178213     0.530142691858    -0.853950127733    31.972071174400
         H           -0.301800178213     1.657683691858    -0.200599127733     1.007825032230
         H            0.931842821787    -0.205931308142     1.260067872267     1.007825032230
         H            1.682566821787    -0.959840308142    -0.149067127733     1.007825032230
         H            2.128644821787     0.694566691858     0.282591872267     1.007825032230
         O           -1.067845178213    -0.995443308142     1.323749872267    15.994914619570
         H           -0.977858178213    -0.556727308142     0.469606872267     1.007825032230
         H           -1.951500178213    -1.366567308142     1.299224872267     1.007825032230

  Charge       = 0
  Multiplicity = 1
  Basis Set: AUG-CC-PVQZ
    Blend: AUG-CC-PVQZ
  Basis Set: (AUG-CC-PVQZ AUX)
    Blend: AUG-CC-PVQZ-JKFIT

    Orbital Energies [Eh]
    ---------------------

    Doubly Occupied:

       1A    -91.961799     2A    -20.535790     3A    -11.253779
       4A     -8.965570     5A     -6.647124     6A     -6.646181
       7A     -6.645495     8A     -1.333026     9A     -1.048764
      10A     -0.876297    11A     -0.710779    12A     -0.615849
      13A     -0.589612    14A     -0.563727    15A     -0.534440
      16A     -0.488954    17A     -0.470728    18A     -0.372557

  @DF-RHF Final Energy:  -513.81782294920447

   => Energetics <=

    Nuclear Repulsion Energy =            114.4787271385380905
    One-Electron Energy =                -936.0721566990994233
    Two-Electron Energy =                 307.7756066113569204
    Total Energy =                       -513.8178229492044693

  Dipole Moment: [D]
     X:     0.0370      Y:     0.5388      Z:    -0.3067     Total:     0.6211

  Basis Set: (AUG-CC-PVQZ AUX)
    Blend: AUG-CC-PVQZ-RI
	 Reference Energy          =    -513.8178229492044693 [Eh]
	 Singles Energy            =      -0.0000000000000000 [Eh]
	 Same-Spin Energy          =      -0.1820339534064351 [Eh]
	 Opposite-Spin Energy      =      -0.6303790634975991 [Eh]
	 Correlation Energy        =      -0.8124130169040341 [Eh]
	 Total Energy              =    -514.6302359661085575 [Eh]

	 ================> DF-SCS-MP2 Energies <==================
	-----------------------------------------------------------
	 SCS Same-Spin Scale       =       0.3333333333333333 [-]
	 SCS Opposite-Spin Scale   =       1.2000000000000000 [-]
	 SCS Same-Spin Energy      =      -0.0606779844688117 [Eh]
	 SCS Opposite-Spin Energy  =      -0.7564548761971189 [Eh]
	 SCS Correlation Energy    =      -0.8171328606659306 [Eh]
	 SCS Total Energy          =    -514.6349558098703483 [Eh]
	-----------------------------------------------------------

*** Psi4 exiting successfully. Buy a developer a beer!
