                               Psi4 1.4a2.dev224

  ==> Input File <==

--------------------------------------------------------------------------
#Generated by lconvert.py for cbs job

memory 40 GB

molecule  {
0 1
  C        1.1755930    -0.1458000     0.2316120
  S       -0.1477630     0.4081050    -0.8843620
  H       -0.4421970     1.5356460    -0.2310110
  H        0.7914460    -0.3279690     1.2296560
  H        1.5421700    -1.0818780    -0.1794790
  H        1.9882480     0.5725290     0.2521800
--
0 1
  O       -1.8649290    -1.5549450     1.7399210
  H       -1.7749420    -1.1162290     0.8857780
  H       -2.7485840    -1.9260690     1.7153960
units angstrom
no_reorient
symmetry c1
}

set {
scf_type DF
mp2_type DF
e_convergence 7
reference rhf
}

energy('mp2/aug-cc-pv[tq]z', bsse_type='cp')
--------------------------------------------------------------------------

    Molecular point group: c1
  Charge       = 0
  Multiplicity = 1
  Basis Set: AUG-CC-PVTZ
    Blend: AUG-CC-PVTZ
  Basis Set: (AUG-CC-PVTZ AUX)
    Blend: AUG-CC-PVTZ-JKFIT
  @DF-RHF Final Energy:   -76.06022020793432
    Total Energy =                        -76.0602202079343215
  Basis Set: (AUG-CC-PVTZ AUX)
    Blend: AUG-CC-PVTZ-RI
	 Reference Energy          =     -76.0602202079343215 [Eh]
	 Singles Energy            =      -0.0000000000000000 [Eh]
	 Same-Spin Energy          =      -0.0684234886731015 [Eh]
	 Opposite-Spin Energy      =      -0.2154157445222087 [Eh]
	 Correlation Energy        =      -0.2838392331953102 [Eh]
	 Total Energy              =     -76.3440594411296303 [Eh]
	 SCS Total Energy          =     -76.3415269309186755 [Eh]
    Molecular point group: c1
  Basis Set: AUG-CC-PVQZ
    Blend: AUG-CC-PVQZ
  Basis Set: (AUG-CC-PVQZ AUX)
    Blend: AUG-CC-PVQZ-JKFIT
  @DF-RHF Final Energy:   -76.06559220157503
    Total Energy =                        -76.0655922015750292
  Basis Set: (AUG-CC-PVQZ AUX)
  @DF-RHF Final Energy:   -76.06025698323936
    Total Energy =                        -76.0602569832393698
  @DF-RHF Final Energy:   -76.06560826545099
    Total Energy =                        -76.0656082654509902
  @DF-RHF Final Energy:  -437.75771836484927
    Total Energy =                       -437.7577183648492678
  @DF-RHF Final Energy:  -437.76432545651551
    Total Energy =                       -437.7643254565155075
  @DF-RHF Final Energy:  -437.75766627835162
    Total Energy =                       -437.7576662783516213
  @DF-RHF Final Energy:  -437.76430896252594
    Total Energy =                       -437.7643089625258881
  Multiplicity = 1
  @DF-RHF Final Energy:  -513.82155979564948
    Total Energy =                       -513.8215597956494776
	 Singles Energy            =      -0.0000000000000000 [Eh]
	 Same-Spin Energy          =      -0.1635867677582422 [Eh]
	 Opposite-Spin Energy      =      -0.5522637602194868 [Eh]
	 Correlation Energy        =      -0.7158505279777290 [Eh]
	 Total Energy              =    -514.5374103236272276 [Eh]
	 SCS Total Energy          =    -514.5388052304989515 [Eh]
    Molecular point group: c1

    Geometry (in Angstrom), charge = 0, multiplicity = 1:

       Center              X                  Y                   Z               Mass
    ------------   -----------------  -----------------  -----------------  -----------------
         C            1.495153562197     0.095590879198     0.140182750570    12.000000000000
         S            0.171797562197     0.649495879198    -0.975791249430    31.972071174400
         H           -0.122636437803     1.777036879198    -0.322440249430     1.007825032230
         H            1.111006562197    -0.086578120802     1.138226750570     1.007825032230
         H            1.861730562197    -0.840487120802    -0.270908249430     1.007825032230
         H            2.307808562197     0.813919879198     0.160750750570     1.007825032230
         O           -1.545368437803    -1.313554120802     1.648491750570    15.994914619570
         H           -1.455381437803    -0.874838120802     0.794348750570     1.007825032230
         H           -2.429023437803    -1.684678120802     1.623966750570     1.007825032230

  Charge       = 0
  Multiplicity = 1
  Basis Set: AUG-CC-PVQZ
    Blend: AUG-CC-PVQZ
  Basis Set: (AUG-CC-PVQZ AUX)
    Blend: AUG-CC-PVQZ-JKFIT

    Orbital Energies [Eh]
    ---------------------

    Doubly Occupied:

       1A    -91.958180     2A    -20.556061     3A    -11.257357
       4A     -8.960590     5A     -6.642257     6A     -6.641311
       7A     -6.640400     8A     -1.342586     9A     -1.042648
      10A     -0.871640    11A     -0.706659    12A     -0.611865
      13A     -0.595735    14A     -0.578140    15A     -0.532431
      16A     -0.501998    17A     -0.465794    18A     -0.366485

  @DF-RHF Final Energy:  -513.83351463303404

   => Energetics <=

    Nuclear Repulsion Energy =            102.9928872931464099
    One-Electron Energy =                -913.1085202355940282
    Two-Electron Energy =                 296.2821183094135904
    Total Energy =                       -513.8335146330340422

  Dipole Moment: [D]
     X:    -0.0860      Y:     0.3879      Z:    -0.1803     Total:     0.4363

  Basis Set: (AUG-CC-PVQZ AUX)
    Blend: AUG-CC-PVQZ-RI
	 Reference Energy          =    -513.8335146330340422 [Eh]
	 Singles Energy            =      -0.0000000000000000 [Eh]
	 Same-Spin Energy          =      -0.1773956440735072 [Eh]
	 Opposite-Spin Energy      =      -0.6251938676933892 [Eh]
	 Correlation Energy        =      -0.8025895117668964 [Eh]
	 Total Energy              =    -514.6361041448009246 [Eh]

	 ================> DF-SCS-MP2 Energies <==================
	-----------------------------------------------------------
	 SCS Same-Spin Scale       =       0.3333333333333333 [-]
	 SCS Opposite-Spin Scale   =       1.2000000000000000 [-]
	 SCS Same-Spin Energy      =      -0.0591318813578357 [Eh]
	 SCS Opposite-Spin Energy  =      -0.7502326412320671 [Eh]
	 SCS Correlation Energy    =      -0.8093645225899029 [Eh]
	 SCS Total Energy          =    -514.6428791556239730 [Eh]
	-----------------------------------------------------------

*** Psi4 exiting successfully. Buy a developer a beer!
