                               Psi4 1.4a2.dev224

  ==> Input File <==

--------------------------------------------------------------------------
#Generated by lconvert.py for cbs job

memory 20 GB

molecule  {
0 1
  C       1.175590   -0.145800    0.231610
  S      -0.147760    0.408100   -0.884360
  H      -0.442200    1.535650   -0.231010
  H       0.791450   -0.327970    1.229660
  H       1.542170   -1.081880   -0.179480
  H       1.988250    0.572530    0.252180
--
0 1
  O      -2.240910   -1.805410    1.995610
  H      -2.150920   -1.366690    1.141460
  H      -3.124560   -2.176530    1.971080
units angstrom
no_reorient
symmetry c1
}

set {
scf_type DF
mp2_type DF
e_convergence 7
reference rhf
}

energy('mp2/aug-cc-pv[tq]z', bsse_type='cp')
--------------------------------------------------------------------------

    Molecular point group: c1
  Charge       = 0
  Multiplicity = 1
  Basis Set: AUG-CC-PVTZ
    Blend: AUG-CC-PVTZ
  Basis Set: (AUG-CC-PVTZ AUX)
    Blend: AUG-CC-PVTZ-JKFIT
  @DF-RHF Final Energy:   -76.06022001930673
    Total Energy =                        -76.0602200193067262
  Basis Set: (AUG-CC-PVTZ AUX)
    Blend: AUG-CC-PVTZ-RI
	 Reference Energy          =     -76.0602200193067262 [Eh]
	 Singles Energy            =      -0.0000000000000000 [Eh]
	 Same-Spin Energy          =      -0.0684235119050682 [Eh]
	 Opposite-Spin Energy      =      -0.2154158165634820 [Eh]
	 Correlation Energy        =      -0.2838393284685502 [Eh]
	 Total Energy              =     -76.3440593477752714 [Eh]
	 SCS Total Energy          =     -76.3415268364845900 [Eh]
    Molecular point group: c1
  Basis Set: AUG-CC-PVQZ
    Blend: AUG-CC-PVQZ
  Basis Set: (AUG-CC-PVQZ AUX)
    Blend: AUG-CC-PVQZ-JKFIT
  @DF-RHF Final Energy:   -76.06559200787500
    Total Energy =                        -76.0655920078749972
  Basis Set: (AUG-CC-PVQZ AUX)
  @DF-RHF Final Energy:   -76.06023867887205
    Total Energy =                        -76.0602386788720537
  @DF-RHF Final Energy:   -76.06560125300246
    Total Energy =                        -76.0656012530024555
  @DF-RHF Final Energy:  -437.75770317519948
    Total Energy =                       -437.7577031751994809
  @DF-RHF Final Energy:  -437.76431942638158
    Total Energy =                       -437.7643194263815758
  @DF-RHF Final Energy:  -437.75766617146144
    Total Energy =                       -437.7576661714614374
  @DF-RHF Final Energy:  -437.76430885529197
    Total Energy =                       -437.7643088552920290
  Multiplicity = 1
  @DF-RHF Final Energy:  -513.82062954286096
    Total Energy =                       -513.8206295428609565
	 Singles Energy            =      -0.0000000000000000 [Eh]
	 Same-Spin Energy          =      -0.1627694200710899 [Eh]
	 Opposite-Spin Energy      =      -0.5511570578917504 [Eh]
	 Correlation Energy        =      -0.7139264779628403 [Eh]
	 Total Energy              =    -514.5345560208237430 [Eh]
	 SCS Total Energy          =    -514.5362744856880681 [Eh]
    Molecular point group: c1

    Geometry (in Angstrom), charge = 0, multiplicity = 1:

       Center              X                  Y                   Z               Mass
    ------------   -----------------  -----------------  -----------------  -----------------
         C            1.597728283353     0.163927447806     0.070420705420    12.000000000000
         S            0.274378283353     0.717827447806    -1.045549294580    31.972071174400
         H           -0.020061716647     1.845377447806    -0.392199294580     1.007825032230
         H            1.213588283353    -0.018242552194     1.068470705420     1.007825032230
         H            1.964308283353    -0.772152552194    -0.340669294580     1.007825032230
         H            2.410388283353     0.882257447806     0.090990705420     1.007825032230
         O           -1.818771716647    -1.495682552194     1.834420705420    15.994914619570
         H           -1.728781716647    -1.056962552194     0.980270705420     1.007825032230
         H           -2.702421716647    -1.866802552194     1.809890705420     1.007825032230

  Charge       = 0
  Multiplicity = 1
  Basis Set: AUG-CC-PVQZ
    Blend: AUG-CC-PVQZ
  Basis Set: (AUG-CC-PVQZ AUX)
    Blend: AUG-CC-PVQZ-JKFIT

    Orbital Energies [Eh]
    ---------------------

    Doubly Occupied:

       1A    -91.955986     2A    -20.559912     3A    -11.257325
       4A     -8.958317     5A     -6.639982     6A     -6.639036
       7A     -6.638107     8A     -1.345637     9A     -1.041167
      10A     -0.870341    11A     -0.708776    12A     -0.611033
      13A     -0.595991    14A     -0.580717    15A     -0.531307
      16A     -0.505090    17A     -0.463948    18A     -0.363341

  @DF-RHF Final Energy:  -513.83260228475808

   => Energetics <=

    Nuclear Repulsion Energy =             98.4925537054883193
    One-Electron Energy =                -904.1182724454183699
    Two-Electron Energy =                 291.7931164551720258
    Total Energy =                       -513.8326022847580816

  Dipole Moment: [D]
     X:    -0.1611      Y:     0.3396      Z:    -0.1497     Total:     0.4046

  Basis Set: (AUG-CC-PVQZ AUX)
    Blend: AUG-CC-PVQZ-RI
	 Reference Energy          =    -513.8326022847580816 [Eh]
	 Singles Energy            =      -0.0000000000000000 [Eh]
	 Same-Spin Energy          =      -0.1766408384896001 [Eh]
	 Opposite-Spin Energy      =      -0.6243657698259730 [Eh]
	 Correlation Energy        =      -0.8010066083155731 [Eh]
	 Total Energy              =    -514.6336088930736423 [Eh]

	 ================> DF-SCS-MP2 Energies <==================
	-----------------------------------------------------------
	 SCS Same-Spin Scale       =       0.3333333333333333 [-]
	 SCS Opposite-Spin Scale   =       1.2000000000000000 [-]
	 SCS Same-Spin Energy      =      -0.0588802794965334 [Eh]
	 SCS Opposite-Spin Energy  =      -0.7492389237911676 [Eh]
	 SCS Correlation Energy    =      -0.8081192032877010 [Eh]
	 SCS Total Energy          =    -514.6407214880457559 [Eh]
	-----------------------------------------------------------

*** Psi4 exiting successfully. Buy a developer a beer!
