                               Psi4 1.4a2.dev224

  ==> Input File <==

--------------------------------------------------------------------------
#Generated by lconvert.py for cbs job

memory 40 GB

molecule  {
0 1
  C       -3.1102080     1.1449770    -0.6207280
  S       -2.7077030    -0.5833580    -0.2389590
  H       -1.3794220    -0.4245930    -0.2399370
  H       -2.7047400     1.4387070    -1.5836870
  H       -2.7481340     1.8125740     0.1546350
  H       -4.1938590     1.2103140    -0.6618300
--
0 1
  O        0.9347490     0.2742180    -0.3324380
  H        1.5288760    -0.0166760    -1.0275020
  H        1.4920400     0.3006690     0.4482320
units angstrom
no_reorient
symmetry c1
}

set {
scf_type DF
mp2_type DF
e_convergence 7
reference rhf
}

energy('mp2/aug-cc-pv[tq]z', bsse_type='cp')
--------------------------------------------------------------------------

    Molecular point group: c1
  Charge       = 0
  Multiplicity = 1
  Basis Set: AUG-CC-PVTZ
    Blend: AUG-CC-PVTZ
  Basis Set: (AUG-CC-PVTZ AUX)
    Blend: AUG-CC-PVTZ-JKFIT
  @DF-RHF Final Energy:   -76.06038473833105
    Total Energy =                        -76.0603847383310381
  Basis Set: (AUG-CC-PVTZ AUX)
    Blend: AUG-CC-PVTZ-RI
	 Reference Energy          =     -76.0603847383310523 [Eh]
	 Singles Energy            =      -0.0000000000000000 [Eh]
	 Same-Spin Energy          =      -0.0683895942926346 [Eh]
	 Opposite-Spin Energy      =      -0.2153113291203526 [Eh]
	 Correlation Energy        =      -0.2837009234129872 [Eh]
	 Total Energy              =     -76.3440856617440460 [Eh]
	 SCS Total Energy          =     -76.3415548647063531 [Eh]
    Molecular point group: c1
  Basis Set: AUG-CC-PVQZ
    Blend: AUG-CC-PVQZ
  Basis Set: (AUG-CC-PVQZ AUX)
    Blend: AUG-CC-PVQZ-JKFIT
  @DF-RHF Final Energy:   -76.06576712314441
    Total Energy =                        -76.0657671231444112
  Basis Set: (AUG-CC-PVQZ AUX)
  @DF-RHF Final Energy:   -76.06043581739573
    Total Energy =                        -76.0604358173957280
  @DF-RHF Final Energy:   -76.06579098946581
    Total Energy =                        -76.0657909894658104
  @DF-RHF Final Energy:  -437.75761034978080
    Total Energy =                       -437.7576103497808049
  @DF-RHF Final Energy:  -437.76424951690456
    Total Energy =                       -437.7642495169045560
  @DF-RHF Final Energy:  -437.75759503416458
    Total Energy =                       -437.7575950341645807
  @DF-RHF Final Energy:  -437.76424122487094
    Total Energy =                       -437.7642412248709434
  Multiplicity = 1
  @DF-RHF Final Energy:  -513.81995308401372
    Total Energy =                       -513.8199530840137186
	 Singles Energy            =      -0.0000000000000000 [Eh]
	 Same-Spin Energy          =      -0.1632702240116345 [Eh]
	 Opposite-Spin Energy      =      -0.5516388692339147 [Eh]
	 Correlation Energy        =      -0.7149090932455492 [Eh]
	 Total Energy              =    -514.5348621772592423 [Eh]
	 SCS Total Energy          =    -514.5363431350982637 [Eh]
    Molecular point group: c1

    Geometry (in Angstrom), charge = 0, multiplicity = 1:

       Center              X                  Y                   Z               Mass
    ------------   -----------------  -----------------  -----------------  -----------------
         C           -1.337703193363     1.086967113620    -0.267182528529    12.000000000000
         S           -0.935198193363    -0.641367886380     0.114586471471    31.972071174400
         H            0.393082806637    -0.482602886380     0.113608471471     1.007825032230
         H           -0.932235193363     1.380697113620    -1.230141528529     1.007825032230
         H           -0.975629193363     1.754564113620     0.508180471471     1.007825032230
         H           -2.421354193363     1.152304113620    -0.308284528529     1.007825032230
         O            2.707253806637     0.216208113620     0.021107471471    15.994914619570
         H            3.301380806637    -0.074685886380    -0.673956528529     1.007825032230
         H            3.264544806637     0.242659113620     0.801777471471     1.007825032230

  Charge       = 0
  Multiplicity = 1
  Basis Set: AUG-CC-PVQZ
    Blend: AUG-CC-PVQZ
  Basis Set: (AUG-CC-PVQZ AUX)
    Blend: AUG-CC-PVQZ-JKFIT

    Orbital Energies [Eh]
    ---------------------

    Doubly Occupied:

       1A    -91.933027     2A    -20.577347     3A    -11.242573
       4A     -8.935601     5A     -6.617287     6A     -6.616401
       7A     -6.615485     8A     -1.364911     9A     -1.023048
      10A     -0.852075    11A     -0.727347    12A     -0.607642
      13A     -0.589350    14A     -0.579584    15A     -0.526444
      16A     -0.508307    17A     -0.444271    18A     -0.341759

  @DF-RHF Final Energy:  -513.83193368770355

   => Energetics <=

    Nuclear Repulsion Energy =            100.6996361647310749
    One-Electron Energy =                -908.8582095875839286
    Two-Electron Energy =                 294.3266397351493424
    Total Energy =                       -513.8319336877035539

  Dipole Moment: [D]
     X:     2.8393      Y:     1.1667      Z:    -0.1800     Total:     3.0749

  Basis Set: (AUG-CC-PVQZ AUX)
    Blend: AUG-CC-PVQZ-RI
	 Reference Energy          =    -513.8319336877035539 [Eh]
	 Singles Energy            =      -0.0000000000000000 [Eh]
	 Same-Spin Energy          =      -0.1771543901808978 [Eh]
	 Opposite-Spin Energy      =      -0.6248083932701132 [Eh]
	 Correlation Energy        =      -0.8019627834510110 [Eh]
	 Total Energy              =    -514.6338964711545714 [Eh]

	 ================> DF-SCS-MP2 Energies <==================
	-----------------------------------------------------------
	 SCS Same-Spin Scale       =       0.3333333333333333 [-]
	 SCS Opposite-Spin Scale   =       1.2000000000000000 [-]
	 SCS Same-Spin Energy      =      -0.0590514633936326 [Eh]
	 SCS Opposite-Spin Energy  =      -0.7497700719241358 [Eh]
	 SCS Correlation Energy    =      -0.8088215353177685 [Eh]
	 SCS Total Energy          =    -514.6407552230213014 [Eh]
	-----------------------------------------------------------

*** Psi4 exiting successfully. Buy a developer a beer!
