                               Psi4 1.4a2.dev224

  ==> Input File <==

--------------------------------------------------------------------------
#Generated by lconvert.py for cbs job

memory 40 GB

molecule  {
0 1
  C       -3.1102080     1.1449770    -0.6207280
  S       -2.7077030    -0.5833580    -0.2389590
  H       -1.3794220    -0.4245930    -0.2399370
  H       -2.7047400     1.4387070    -1.5836870
  H       -2.7481340     1.8125740     0.1546350
  H       -4.1938590     1.2103140    -0.6618300
--
0 1
  O        0.8245500     0.2409410    -0.3280330
  H        1.4186770    -0.0499530    -1.0230970
  H        1.3818410     0.2673920     0.4526370
units angstrom
no_reorient
symmetry c1
}

set {
scf_type DF
mp2_type DF
e_convergence 7
reference rhf
}

energy('mp2/aug-cc-pv[tq]z', bsse_type='cp')
--------------------------------------------------------------------------

    Molecular point group: c1
  Charge       = 0
  Multiplicity = 1
  Basis Set: AUG-CC-PVTZ
    Blend: AUG-CC-PVTZ
  Basis Set: (AUG-CC-PVTZ AUX)
    Blend: AUG-CC-PVTZ-JKFIT
  @DF-RHF Final Energy:   -76.06038473834228
    Total Energy =                        -76.0603847383422647
  Basis Set: (AUG-CC-PVTZ AUX)
    Blend: AUG-CC-PVTZ-RI
	 Reference Energy          =     -76.0603847383422789 [Eh]
	 Singles Energy            =      -0.0000000000000000 [Eh]
	 Same-Spin Energy          =      -0.0683895942926405 [Eh]
	 Opposite-Spin Energy      =      -0.2153113291204128 [Eh]
	 Correlation Energy        =      -0.2837009234130533 [Eh]
	 Total Energy              =     -76.3440856617553294 [Eh]
	 SCS Total Energy          =     -76.3415548647176507 [Eh]
    Molecular point group: c1
  Basis Set: AUG-CC-PVQZ
    Blend: AUG-CC-PVQZ
  Basis Set: (AUG-CC-PVQZ AUX)
    Blend: AUG-CC-PVQZ-JKFIT
  @DF-RHF Final Energy:   -76.06576712314309
    Total Energy =                        -76.0657671231430896
  Basis Set: (AUG-CC-PVQZ AUX)
  @DF-RHF Final Energy:   -76.06044079229517
    Total Energy =                        -76.0604407922951680
  @DF-RHF Final Energy:   -76.06579392587798
    Total Energy =                        -76.0657939258779834
  @DF-RHF Final Energy:  -437.75761171096104
    Total Energy =                       -437.7576117109610436
  @DF-RHF Final Energy:  -437.76425025085672
    Total Energy =                       -437.7642502508567190
  @DF-RHF Final Energy:  -437.75759503424507
    Total Energy =                       -437.7575950342450710
  @DF-RHF Final Energy:  -437.76424122491250
    Total Energy =                       -437.7642412249124959
  Multiplicity = 1
  @DF-RHF Final Energy:  -513.81966851860614
    Total Energy =                       -513.8196685186061359
	 Singles Energy            =      -0.0000000000000000 [Eh]
	 Same-Spin Energy          =      -0.1635278637505299 [Eh]
	 Opposite-Spin Energy      =      -0.5519366481527479 [Eh]
	 Correlation Energy        =      -0.7154645119032779 [Eh]
	 Total Energy              =    -514.5351330305094280 [Eh]
	 SCS Total Energy          =    -514.5365017843063242 [Eh]
    Molecular point group: c1

    Geometry (in Angstrom), charge = 0, multiplicity = 1:

       Center              X                  Y                   Z               Mass
    ------------   -----------------  -----------------  -----------------  -----------------
         C           -1.307637629359     1.096046068723    -0.268384343514    12.000000000000
         S           -0.905132629359    -0.632288931277     0.113384656486    31.972071174400
         H            0.423148370641    -0.473523931277     0.112406656486     1.007825032230
         H           -0.902169629359     1.389776068723    -1.231343343514     1.007825032230
         H           -0.945563629359     1.763643068723     0.506978656486     1.007825032230
         H           -2.391288629359     1.161383068723    -0.309486343514     1.007825032230
         O            2.627120370641     0.192010068723     0.024310656486    15.994914619570
         H            3.221247370641    -0.098883931277    -0.670753343514     1.007825032230
         H            3.184411370641     0.218461068723     0.804980656486     1.007825032230

  Charge       = 0
  Multiplicity = 1
  Basis Set: AUG-CC-PVQZ
    Blend: AUG-CC-PVQZ
  Basis Set: (AUG-CC-PVQZ AUX)
    Blend: AUG-CC-PVQZ-JKFIT

    Orbital Energies [Eh]
    ---------------------

    Doubly Occupied:

       1A    -91.931191     2A    -20.578661     3A    -11.241679
       4A     -8.933835     5A     -6.615528     6A     -6.614648
       7A     -6.613741     8A     -1.366547     9A     -1.021906
      10A     -0.851002    11A     -0.728837    12A     -0.611000
      13A     -0.587758    14A     -0.578722    15A     -0.528587
      16A     -0.506025    17A     -0.442582    18A     -0.340458

  @DF-RHF Final Energy:  -513.83165024727521

   => Energetics <=

    Nuclear Repulsion Energy =            101.7310789246937475
    One-Electron Energy =                -910.9400347514060741
    Two-Electron Energy =                 295.3773055794371203
    Total Energy =                       -513.8316502472752063

  Dipole Moment: [D]
     X:     2.9079      Y:     1.1679      Z:    -0.1786     Total:     3.1388

  Basis Set: (AUG-CC-PVQZ AUX)
    Blend: AUG-CC-PVQZ-RI
	 Reference Energy          =    -513.8316502472752063 [Eh]
	 Singles Energy            =      -0.0000000000000000 [Eh]
	 Same-Spin Energy          =      -0.1774019917460501 [Eh]
	 Opposite-Spin Energy      =      -0.6250548336296515 [Eh]
	 Correlation Energy        =      -0.8024568253757016 [Eh]
	 Total Energy              =    -514.6341070726508633 [Eh]

	 ================> DF-SCS-MP2 Energies <==================
	-----------------------------------------------------------
	 SCS Same-Spin Scale       =       0.3333333333333333 [-]
	 SCS Opposite-Spin Scale   =       1.2000000000000000 [-]
	 SCS Same-Spin Energy      =      -0.0591339972486834 [Eh]
	 SCS Opposite-Spin Energy  =      -0.7500658003555818 [Eh]
	 SCS Correlation Energy    =      -0.8091997976042652 [Eh]
	 SCS Total Energy          =    -514.6408500448794712 [Eh]
	-----------------------------------------------------------

*** Psi4 exiting successfully. Buy a developer a beer!
