                               Psi4 1.4a2.dev224

  ==> Input File <==

--------------------------------------------------------------------------
#Generated by lconvert.py for cbs job

memory 20 GB

molecule  {
0 1
  C      -3.110210    1.144980   -0.620730
  S      -2.707700   -0.583360   -0.238960
  H      -1.379420   -0.424590   -0.239940
  H      -2.704740    1.438710   -1.583690
  H      -2.748130    1.812570    0.154630
  H      -4.193860    1.210310   -0.661830
--
0 1
  O       2.808130    0.839920   -0.407320
  H       3.402260    0.549020   -1.102390
  H       3.365420    0.866370    0.373350
units angstrom
no_reorient
symmetry c1
}

set {
scf_type DF
mp2_type DF
e_convergence 7
reference rhf
}

energy('mp2/aug-cc-pv[tq]z', bsse_type='cp')
--------------------------------------------------------------------------

    Molecular point group: c1
  Charge       = 0
  Multiplicity = 1
  Basis Set: AUG-CC-PVTZ
    Blend: AUG-CC-PVTZ
  Basis Set: (AUG-CC-PVTZ AUX)
    Blend: AUG-CC-PVTZ-JKFIT
  @DF-RHF Final Energy:   -76.06038448127403
    Total Energy =                        -76.0603844812740277
  Basis Set: (AUG-CC-PVTZ AUX)
    Blend: AUG-CC-PVTZ-RI
	 Reference Energy          =     -76.0603844812740277 [Eh]
	 Singles Energy            =      -0.0000000000000000 [Eh]
	 Same-Spin Energy          =      -0.0683896565763618 [Eh]
	 Opposite-Spin Energy      =      -0.2153115197143401 [Eh]
	 Correlation Energy        =      -0.2837011762907019 [Eh]
	 Total Energy              =     -76.3440856575647331 [Eh]
	 SCS Total Energy          =     -76.3415548571233558 [Eh]
    Molecular point group: c1
  Basis Set: AUG-CC-PVQZ
    Blend: AUG-CC-PVQZ
  Basis Set: (AUG-CC-PVQZ AUX)
    Blend: AUG-CC-PVQZ-JKFIT
  @DF-RHF Final Energy:   -76.06576684702556
    Total Energy =                        -76.0657668470255715
  Basis Set: (AUG-CC-PVQZ AUX)
  @DF-RHF Final Energy:   -76.06038916617328
    Total Energy =                        -76.0603891661732803
  @DF-RHF Final Energy:   -76.06576918339952
    Total Energy =                        -76.0657691833995244
  @DF-RHF Final Energy:  -437.75759778017897
    Total Energy =                       -437.7575977801789691
  @DF-RHF Final Energy:  -437.76424301905831
    Total Energy =                       -437.7642430190583127
  @DF-RHF Final Energy:  -437.75759506769805
    Total Energy =                       -437.7575950676979915
  @DF-RHF Final Energy:  -437.76424124385693
    Total Energy =                       -437.7642412438569295
  Multiplicity = 1
  @DF-RHF Final Energy:  -513.81867812234441
    Total Energy =                       -513.8186781223444086
	 Singles Energy            =      -0.0000000000000000 [Eh]
	 Same-Spin Energy          =      -0.1621575986977610 [Eh]
	 Opposite-Spin Energy      =      -0.5502287471637977 [Eh]
	 Correlation Energy        =      -0.7123863458615587 [Eh]
	 Total Energy              =    -514.5310644682059547 [Eh]
	 SCS Total Energy          =    -514.5330051518402570 [Eh]
    Molecular point group: c1

    Geometry (in Angstrom), charge = 0, multiplicity = 1:

       Center              X                  Y                   Z               Mass
    ------------   -----------------  -----------------  -----------------  -----------------
         C           -1.848820432057     0.932630347388    -0.246753384869    12.000000000000
         S           -1.446310432057    -0.795709652612     0.135016615131    31.972071174400
         H           -0.118030432057    -0.636939652612     0.134036615131     1.007825032230
         H           -1.443350432057     1.226360347388    -1.209713384869     1.007825032230
         H           -1.486740432057     1.600220347388     0.528606615131     1.007825032230
         H           -2.932470432057     0.997960347388    -0.287853384869     1.007825032230
         O            4.069519567943     0.627570347388    -0.033343384869    15.994914619570
         H            4.663649567943     0.336670347388    -0.728413384869     1.007825032230
         H            4.626809567943     0.654020347388     0.747326615131     1.007825032230

  Charge       = 0
  Multiplicity = 1
  Basis Set: AUG-CC-PVQZ
    Blend: AUG-CC-PVQZ
  Basis Set: (AUG-CC-PVQZ AUX)
    Blend: AUG-CC-PVQZ-JKFIT

    Orbital Energies [Eh]
    ---------------------

    Doubly Occupied:

       1A    -91.944541     2A    -20.569073     3A    -11.249836
       4A     -8.946859     5A     -6.628511     6A     -6.627588
       7A     -6.626632     8A     -1.355844     9A     -1.031877
      10A     -0.860843    11A     -0.718712    12A     -0.602830
      13A     -0.589936    14A     -0.586811    15A     -0.521875
      16A     -0.514224    17A     -0.454607    18A     -0.351082

  @DF-RHF Final Energy:  -513.83069713212478

   => Energetics <=

    Nuclear Repulsion Energy =             89.2000455189371309
    One-Electron Energy =                -885.6981106311363874
    Two-Electron Energy =                 282.6673679800744594
    Total Energy =                       -513.8306971321247829

  Dipole Moment: [D]
     X:     2.4542      Y:     1.1531      Z:    -0.1868     Total:     2.7181

  Basis Set: (AUG-CC-PVQZ AUX)
    Blend: AUG-CC-PVQZ-RI
	 Reference Energy          =    -513.8306971321247829 [Eh]
	 Singles Energy            =      -0.0000000000000000 [Eh]
	 Same-Spin Energy          =      -0.1761250935630569 [Eh]
	 Opposite-Spin Energy      =      -0.6237711313848431 [Eh]
	 Correlation Energy        =      -0.7998962249479000 [Eh]
	 Total Energy              =    -514.6305933570727120 [Eh]

	 ================> DF-SCS-MP2 Energies <==================
	-----------------------------------------------------------
	 SCS Same-Spin Scale       =       0.3333333333333333 [-]
	 SCS Opposite-Spin Scale   =       1.2000000000000000 [-]
	 SCS Same-Spin Energy      =      -0.0587083645210190 [Eh]
	 SCS Opposite-Spin Energy  =      -0.7485253576618117 [Eh]
	 SCS Correlation Energy    =      -0.8072337221828307 [Eh]
	 SCS Total Energy          =    -514.6379308543075695 [Eh]
	-----------------------------------------------------------

*** Psi4 exiting successfully. Buy a developer a beer!
