                               Psi4 1.4a2.dev224

  ==> Input File <==

--------------------------------------------------------------------------
#Generated by lconvert.py for cbs job

memory 40 GB

molecule  {
0 1
  C       -3.1102080     1.1449770    -0.6207280
  S       -2.7077030    -0.5833580    -0.2389590
  H       -1.3794220    -0.4245930    -0.2399370
  H       -2.7047400     1.4387070    -1.5836870
  H       -2.7481340     1.8125740     0.1546350
  H       -4.1938590     1.2103140    -0.6618300
--
0 1
  O        0.3837560     0.1078340    -0.3104140
  H        0.9778830    -0.1830600    -1.0054780
  H        0.9410470     0.1342850     0.4702560
units angstrom
no_reorient
symmetry c1
}

set {
scf_type DF
mp2_type DF
e_convergence 7
reference rhf
}

energy('mp2/aug-cc-pv[tq]z', bsse_type='cp')
--------------------------------------------------------------------------

    Molecular point group: c1
  Charge       = 0
  Multiplicity = 1
  Basis Set: AUG-CC-PVTZ
    Blend: AUG-CC-PVTZ
  Basis Set: (AUG-CC-PVTZ AUX)
    Blend: AUG-CC-PVTZ-JKFIT
  @DF-RHF Final Energy:   -76.06038473834030
    Total Energy =                        -76.0603847383403036
  Basis Set: (AUG-CC-PVTZ AUX)
    Blend: AUG-CC-PVTZ-RI
	 Reference Energy          =     -76.0603847383403036 [Eh]
	 Singles Energy            =      -0.0000000000000000 [Eh]
	 Same-Spin Energy          =      -0.0683895942926252 [Eh]
	 Opposite-Spin Energy      =      -0.2153113291203695 [Eh]
	 Correlation Energy        =      -0.2837009234129946 [Eh]
	 Total Energy              =     -76.3440856617532972 [Eh]
	 SCS Total Energy          =     -76.3415548647156186 [Eh]
    Molecular point group: c1
  Basis Set: AUG-CC-PVQZ
    Blend: AUG-CC-PVQZ
  Basis Set: (AUG-CC-PVQZ AUX)
    Blend: AUG-CC-PVQZ-JKFIT
  @DF-RHF Final Energy:   -76.06576712313999
    Total Energy =                        -76.0657671231399917
  Basis Set: (AUG-CC-PVQZ AUX)
  @DF-RHF Final Energy:   -76.06046685272459
    Total Energy =                        -76.0604668527245877
  @DF-RHF Final Energy:   -76.06580421508050
    Total Energy =                        -76.0658042150805045
  @DF-RHF Final Energy:  -437.75761965045814
    Total Energy =                       -437.7576196504581389
  @DF-RHF Final Energy:  -437.76425427494314
    Total Energy =                       -437.7642542749431414
  @DF-RHF Final Energy:  -437.75759503419090
    Total Energy =                       -437.7575950341908992
  @DF-RHF Final Energy:  -437.76424122494842
    Total Energy =                       -437.7642412249484209
  Multiplicity = 1
  @DF-RHF Final Energy:  -513.81405233564965
    Total Energy =                       -513.8140523356496487
	 Singles Energy            =      -0.0000000000000000 [Eh]
	 Same-Spin Energy          =      -0.1653773883755367 [Eh]
	 Opposite-Spin Energy      =      -0.5539195363681206 [Eh]
	 Correlation Energy        =      -0.7192969247436574 [Eh]
	 Total Energy              =    -514.5333492603932655 [Eh]
	 SCS Total Energy          =    -514.5338815754165580 [Eh]
    Molecular point group: c1

    Geometry (in Angstrom), charge = 0, multiplicity = 1:

       Center              X                  Y                   Z               Mass
    ------------   -----------------  -----------------  -----------------  -----------------
         C           -1.187375919000     1.132361616304    -0.273191330620    12.000000000000
         S           -0.784870919000    -0.595973383696     0.108577669380    31.972071174400
         H            0.543410081000    -0.437208383696     0.107599669380     1.007825032230
         H           -0.781907919000     1.426091616304    -1.236150330620     1.007825032230
         H           -0.825301919000     1.799958616304     0.502171669380     1.007825032230
         H           -2.271026919000     1.197698616304    -0.314293330620     1.007825032230
         O            2.306588081000     0.095218616304     0.037122669380    15.994914619570
         H            2.900715081000    -0.195675383696    -0.657941330620     1.007825032230
         H            2.863879081000     0.121669616304     0.817792669380     1.007825032230

  Charge       = 0
  Multiplicity = 1
  Basis Set: AUG-CC-PVQZ
    Blend: AUG-CC-PVQZ
  Basis Set: (AUG-CC-PVQZ AUX)
    Blend: AUG-CC-PVQZ-JKFIT

    Orbital Energies [Eh]
    ---------------------

    Doubly Occupied:

       1A    -91.918850     2A    -20.587545     3A    -11.236543
       4A     -8.922169     5A     -6.603898     6A     -6.603052
       7A     -6.602197     8A     -1.378631     9A     -1.015416
      10A     -0.845668    11A     -0.739401    12A     -0.636303
      13A     -0.578692    14A     -0.573873    15A     -0.542914
      16A     -0.490930    17A     -0.430468    18A     -0.332554

  @DF-RHF Final Energy:  -513.82602469593212

   => Energetics <=

    Nuclear Repulsion Energy =            106.5489341439809863
    One-Electron Energy =                -920.6716923627919869
    Two-Electron Energy =                 300.2967335228789238
    Total Energy =                       -513.8260246959321194

  Dipole Moment: [D]
     X:     3.3738      Y:     1.1753      Z:    -0.1686     Total:     3.5767

  Basis Set: (AUG-CC-PVQZ AUX)
    Blend: AUG-CC-PVQZ-RI
	 Reference Energy          =    -513.8260246959321194 [Eh]
	 Singles Energy            =      -0.0000000000000000 [Eh]
	 Same-Spin Energy          =      -0.1791962841252857 [Eh]
	 Opposite-Spin Energy      =      -0.6267899709700312 [Eh]
	 Correlation Energy        =      -0.8059862550953169 [Eh]
	 Total Energy              =    -514.6320109510273824 [Eh]

	 ================> DF-SCS-MP2 Energies <==================
	-----------------------------------------------------------
	 SCS Same-Spin Scale       =       0.3333333333333333 [-]
	 SCS Opposite-Spin Scale   =       1.2000000000000000 [-]
	 SCS Same-Spin Energy      =      -0.0597320947084286 [Eh]
	 SCS Opposite-Spin Energy  =      -0.7521479651640374 [Eh]
	 SCS Correlation Energy    =      -0.8118800598724659 [Eh]
	 SCS Total Energy          =    -514.6379047558045841 [Eh]
	-----------------------------------------------------------

*** Psi4 exiting successfully. Buy a developer a beer!
