                               Psi4 1.4a2.dev224

  ==> Input File <==

--------------------------------------------------------------------------
#Generated by lconvert.py for cbs job

memory 40 GB

molecule  {
0 1
  C       -3.1102080     1.1449770    -0.6207280
  S       -2.7077030    -0.5833580    -0.2389590
  H       -1.3794220    -0.4245930    -0.2399370
  H       -2.7047400     1.4387070    -1.5836870
  H       -2.7481340     1.8125740     0.1546350
  H       -4.1938590     1.2103140    -0.6618300
--
0 1
  O        0.7143510     0.2076640    -0.3236280
  H        1.3084780    -0.0832300    -1.0186920
  H        1.2716420     0.2341150     0.4570420
units angstrom
no_reorient
symmetry c1
}

set {
scf_type DF
mp2_type DF
e_convergence 7
reference rhf
}

energy('mp2/aug-cc-pv[tq]z', bsse_type='cp')
--------------------------------------------------------------------------

    Molecular point group: c1
  Charge       = 0
  Multiplicity = 1
  Basis Set: AUG-CC-PVTZ
    Blend: AUG-CC-PVTZ
  Basis Set: (AUG-CC-PVTZ AUX)
    Blend: AUG-CC-PVTZ-JKFIT
  @DF-RHF Final Energy:   -76.06038473834442
    Total Energy =                        -76.0603847383444247
  Basis Set: (AUG-CC-PVTZ AUX)
    Blend: AUG-CC-PVTZ-RI
	 Reference Energy          =     -76.0603847383444247 [Eh]
	 Singles Energy            =      -0.0000000000000000 [Eh]
	 Same-Spin Energy          =      -0.0683895942926256 [Eh]
	 Opposite-Spin Energy      =      -0.2153113291203022 [Eh]
	 Correlation Energy        =      -0.2837009234129277 [Eh]
	 Total Energy              =     -76.3440856617573473 [Eh]
	 SCS Total Energy          =     -76.3415548647196687 [Eh]
    Molecular point group: c1
  Basis Set: AUG-CC-PVQZ
    Blend: AUG-CC-PVQZ
  Basis Set: (AUG-CC-PVQZ AUX)
    Blend: AUG-CC-PVQZ-JKFIT
  @DF-RHF Final Energy:   -76.06576712315226
    Total Energy =                        -76.0657671231522698
  Basis Set: (AUG-CC-PVQZ AUX)
  @DF-RHF Final Energy:   -76.06044463119684
    Total Energy =                        -76.0604446311968587
  @DF-RHF Final Energy:   -76.06579652807419
    Total Energy =                        -76.0657965280741735
  @DF-RHF Final Energy:  -437.75761324776204
    Total Energy =                       -437.7576132477620376
  @DF-RHF Final Energy:  -437.76425110771777
    Total Energy =                       -437.7642511077177687
  @DF-RHF Final Energy:  -437.75759503414162
    Total Energy =                       -437.7575950341415592
  @DF-RHF Final Energy:  -437.76424122489669
    Total Energy =                       -437.7642412248966934
  Multiplicity = 1
  @DF-RHF Final Energy:  -513.81910882870545
    Total Energy =                       -513.8191088287055663
	 Singles Energy            =      -0.0000000000000000 [Eh]
	 Same-Spin Energy          =      -0.1638490143010471 [Eh]
	 Opposite-Spin Energy      =      -0.5522971231240636 [Eh]
	 Correlation Energy        =      -0.7161461374251108 [Eh]
	 Total Energy              =    -514.5352549661305375 [Eh]
	 SCS Total Energy          =    -514.5364817145547249 [Eh]
    Molecular point group: c1

    Geometry (in Angstrom), charge = 0, multiplicity = 1:

       Center              X                  Y                   Z               Mass
    ------------   -----------------  -----------------  -----------------  -----------------
         C           -1.277572065354     1.105125023825    -0.269586158498    12.000000000000
         S           -0.875067065354    -0.623209976175     0.112182841502    31.972071174400
         H            0.453213934646    -0.464444976175     0.111204841502     1.007825032230
         H           -0.872104065354     1.398855023825    -1.232545158498     1.007825032230
         H           -0.915498065354     1.772722023825     0.505776841502     1.007825032230
         H           -2.361223065354     1.170462023825    -0.310688158498     1.007825032230
         O            2.546986934646     0.167812023825     0.027513841502    15.994914619570
         H            3.141113934646    -0.123081976175    -0.667550158498     1.007825032230
         H            3.104277934646     0.194263023825     0.808183841502     1.007825032230

  Charge       = 0
  Multiplicity = 1
  Basis Set: AUG-CC-PVQZ
    Blend: AUG-CC-PVQZ
  Basis Set: (AUG-CC-PVQZ AUX)
    Blend: AUG-CC-PVQZ-JKFIT

    Orbital Energies [Eh]
    ---------------------

    Doubly Occupied:

       1A    -91.928979     2A    -20.580234     3A    -11.240661
       4A     -8.931721     5A     -6.613421     6A     -6.612548
       7A     -6.611650     8A     -1.368574     9A     -1.020604
      10A     -0.849818    11A     -0.730659    12A     -0.615276
      13A     -0.585904    14A     -0.577747    15A     -0.531179
      16A     -0.503258    17A     -0.440512    18A     -0.338944

  @DF-RHF Final Energy:  -513.83109412494889

   => Energetics <=

    Nuclear Repulsion Energy =            102.8250848970194511
    One-Electron Energy =                -913.1489677932518134
    Two-Electron Energy =                 296.4927887712835286
    Total Energy =                       -513.8310941249487769

  Dipole Moment: [D]
     X:     2.9911      Y:     1.1693      Z:    -0.1768     Total:     3.2164

  Basis Set: (AUG-CC-PVQZ AUX)
    Blend: AUG-CC-PVQZ-RI
	 Reference Energy          =    -513.8310941249488906 [Eh]
	 Singles Energy            =      -0.0000000000000000 [Eh]
	 Same-Spin Energy          =      -0.1777116621186647 [Eh]
	 Opposite-Spin Energy      =      -0.6253589597970362 [Eh]
	 Correlation Energy        =      -0.8030706219157008 [Eh]
	 Total Energy              =    -514.6341647468645988 [Eh]

	 ================> DF-SCS-MP2 Energies <==================
	-----------------------------------------------------------
	 SCS Same-Spin Scale       =       0.3333333333333333 [-]
	 SCS Opposite-Spin Scale   =       1.2000000000000000 [-]
	 SCS Same-Spin Energy      =      -0.0592372207062215 [Eh]
	 SCS Opposite-Spin Energy  =      -0.7504307517564434 [Eh]
	 SCS Correlation Energy    =      -0.8096679724626649 [Eh]
	 SCS Total Energy          =    -514.6407620974115389 [Eh]
	-----------------------------------------------------------

*** Psi4 exiting successfully. Buy a developer a beer!
