                               Psi4 1.4a2.dev224

  ==> Input File <==

--------------------------------------------------------------------------
#Generated by lconvert.py for cbs job

memory 40 GB

molecule  {
0 1
  C       -3.1102080     1.1449770    -0.6207280
  S       -2.7077030    -0.5833580    -0.2389590
  H       -1.3794220    -0.4245930    -0.2399370
  H       -2.7047400     1.4387070    -1.5836870
  H       -2.7481340     1.8125740     0.1546350
  H       -4.1938590     1.2103140    -0.6618300
--
0 1
  O        0.1633580     0.0412810    -0.3016040
  H        0.7574850    -0.2496130    -0.9966680
  H        0.7206490     0.0677320     0.4790660
units angstrom
no_reorient
symmetry c1
}

set {
scf_type DF
mp2_type DF
e_convergence 7
reference rhf
}

energy('mp2/aug-cc-pv[tq]z', bsse_type='cp')
--------------------------------------------------------------------------

    Molecular point group: c1
  Charge       = 0
  Multiplicity = 1
  Basis Set: AUG-CC-PVTZ
    Blend: AUG-CC-PVTZ
  Basis Set: (AUG-CC-PVTZ AUX)
    Blend: AUG-CC-PVTZ-JKFIT
  @DF-RHF Final Energy:   -76.06038473834498
    Total Energy =                        -76.0603847383449931
  Basis Set: (AUG-CC-PVTZ AUX)
    Blend: AUG-CC-PVTZ-RI
	 Reference Energy          =     -76.0603847383449789 [Eh]
	 Singles Energy            =      -0.0000000000000000 [Eh]
	 Same-Spin Energy          =      -0.0683895942926301 [Eh]
	 Opposite-Spin Energy      =      -0.2153113291203777 [Eh]
	 Correlation Energy        =      -0.2837009234130078 [Eh]
	 Total Energy              =     -76.3440856617579868 [Eh]
	 SCS Total Energy          =     -76.3415548647203082 [Eh]
    Molecular point group: c1
  Basis Set: AUG-CC-PVQZ
    Blend: AUG-CC-PVQZ
  Basis Set: (AUG-CC-PVQZ AUX)
    Blend: AUG-CC-PVQZ-JKFIT
  @DF-RHF Final Energy:   -76.06576712314055
    Total Energy =                        -76.0657671231405459
  Basis Set: (AUG-CC-PVQZ AUX)
  @DF-RHF Final Energy:   -76.06049919312154
    Total Energy =                        -76.0604991931215295
  @DF-RHF Final Energy:   -76.06581364110411
    Total Energy =                        -76.0658136411041141
  @DF-RHF Final Energy:  -437.75762496692676
    Total Energy =                       -437.7576249669267554
  @DF-RHF Final Energy:  -437.76425689868330
    Total Energy =                       -437.7642568986833567
  @DF-RHF Final Energy:  -437.75759503418487
    Total Energy =                       -437.7575950341849307
  @DF-RHF Final Energy:  -437.76424122491568
    Total Energy =                       -437.7642412249156223
  Multiplicity = 1
  @DF-RHF Final Energy:  -513.80456550926158
    Total Energy =                       -513.8045655092615789
	 Singles Energy            =      -0.0000000000000000 [Eh]
	 Same-Spin Energy          =      -0.1671071651764098 [Eh]
	 Opposite-Spin Energy      =      -0.5556141299966206 [Eh]
	 Correlation Energy        =      -0.7227212951730304 [Eh]
	 Total Energy              =    -514.5272868044346524 [Eh]
	 SCS Total Energy          =    -514.5270048536497143 [Eh]
    Molecular point group: c1

    Geometry (in Angstrom), charge = 0, multiplicity = 1:

       Center              X                  Y                   Z               Mass
    ------------   -----------------  -----------------  -----------------  -----------------
         C           -1.127244790991     1.150519253680    -0.275594960589    12.000000000000
         S           -0.724739790991    -0.577815746320     0.106174039411    31.972071174400
         H            0.603541209009    -0.419050746320     0.105196039411     1.007825032230
         H           -0.721776790991     1.444249253680    -1.238553960589     1.007825032230
         H           -0.765170790991     1.818116253680     0.499768039411     1.007825032230
         H           -2.210895790991     1.215856253680    -0.316696960589     1.007825032230
         O            2.146321209009     0.046823253680     0.043529039411    15.994914619570
         H            2.740448209009    -0.244070746320    -0.651534960589     1.007825032230
         H            2.703612209009     0.073274253680     0.824199039411     1.007825032230

  Charge       = 0
  Multiplicity = 1
  Basis Set: AUG-CC-PVQZ
    Blend: AUG-CC-PVQZ
  Basis Set: (AUG-CC-PVQZ AUX)
    Blend: AUG-CC-PVQZ-JKFIT

    Orbital Energies [Eh]
    ---------------------

    Doubly Occupied:

       1A    -91.907243     2A    -20.596497     3A    -11.232453
       4A     -8.911427     5A     -6.593175     6A     -6.592352
       7A     -6.591532     8A     -1.391670     9A     -1.010524
      10A     -0.843168    11A     -0.750205    12A     -0.660739
      13A     -0.572655    14A     -0.570103    15A     -0.555992
      16A     -0.478321    17A     -0.417764    18A     -0.325945

  @DF-RHF Final Energy:  -513.81646939372081

   => Energetics <=

    Nuclear Repulsion Energy =            109.4865319492146227
    One-Electron Energy =                -926.6024582996135450
    Two-Electron Energy =                 303.2994569566781138
    Total Energy =                       -513.8164693937208085

  Dipole Moment: [D]
     X:     3.8108      Y:     1.1826      Z:    -0.1592     Total:     3.9933

  Basis Set: (AUG-CC-PVQZ AUX)
    Blend: AUG-CC-PVQZ-RI
	 Reference Energy          =    -513.8164693937208085 [Eh]
	 Singles Energy            =      -0.0000000000000000 [Eh]
	 Same-Spin Energy          =      -0.1808967723648777 [Eh]
	 Opposite-Spin Energy      =      -0.6283944031693212 [Eh]
	 Correlation Energy        =      -0.8092911755341988 [Eh]
	 Total Energy              =    -514.6257605692550214 [Eh]

	 ================> DF-SCS-MP2 Energies <==================
	-----------------------------------------------------------
	 SCS Same-Spin Scale       =       0.3333333333333333 [-]
	 SCS Opposite-Spin Scale   =       1.2000000000000000 [-]
	 SCS Same-Spin Energy      =      -0.0602989241216259 [Eh]
	 SCS Opposite-Spin Energy  =      -0.7540732838031854 [Eh]
	 SCS Correlation Energy    =      -0.8143722079248112 [Eh]
	 SCS Total Energy          =    -514.6308416016456704 [Eh]
	-----------------------------------------------------------

*** Psi4 exiting successfully. Buy a developer a beer!
