                               Psi4 1.4a2.dev224

  ==> Input File <==

--------------------------------------------------------------------------
#Generated by lconvert.py for cbs job

memory 40 GB

molecule  {
0 1
  C       -3.1102080     1.1449770    -0.6207280
  S       -2.7077030    -0.5833580    -0.2389590
  H       -1.3794220    -0.4245930    -0.2399370
  H       -2.7047400     1.4387070    -1.5836870
  H       -2.7481340     1.8125740     0.1546350
  H       -4.1938590     1.2103140    -0.6618300
--
0 1
  O        1.0449470     0.3074940    -0.3368430
  H        1.6390740     0.0166000    -1.0319070
  H        1.6022380     0.3339450     0.4438270
units angstrom
no_reorient
symmetry c1
}

set {
scf_type DF
mp2_type DF
e_convergence 7
reference rhf
}

energy('mp2/aug-cc-pv[tq]z', bsse_type='cp')
--------------------------------------------------------------------------

    Molecular point group: c1
  Charge       = 0
  Multiplicity = 1
  Basis Set: AUG-CC-PVTZ
    Blend: AUG-CC-PVTZ
  Basis Set: (AUG-CC-PVTZ AUX)
    Blend: AUG-CC-PVTZ-JKFIT
  @DF-RHF Final Energy:   -76.06038473833435
    Total Energy =                        -76.0603847383343350
  Basis Set: (AUG-CC-PVTZ AUX)
    Blend: AUG-CC-PVTZ-RI
	 Reference Energy          =     -76.0603847383343492 [Eh]
	 Singles Energy            =      -0.0000000000000000 [Eh]
	 Same-Spin Energy          =      -0.0683895942926348 [Eh]
	 Opposite-Spin Energy      =      -0.2153113291203569 [Eh]
	 Correlation Energy        =      -0.2837009234129917 [Eh]
	 Total Energy              =     -76.3440856617473429 [Eh]
	 SCS Total Energy          =     -76.3415548647096500 [Eh]
    Molecular point group: c1
  Basis Set: AUG-CC-PVQZ
    Blend: AUG-CC-PVQZ
  Basis Set: (AUG-CC-PVQZ AUX)
    Blend: AUG-CC-PVQZ-JKFIT
  @DF-RHF Final Energy:   -76.06576712313581
    Total Energy =                        -76.0657671231358137
  Basis Set: (AUG-CC-PVQZ AUX)
  @DF-RHF Final Energy:   -76.06042983545031
    Total Energy =                        -76.0604298354503072
  @DF-RHF Final Energy:   -76.06578782253142
    Total Energy =                        -76.0657878225314192
  @DF-RHF Final Energy:  -437.75760902962060
    Total Energy =                       -437.7576090296205393
  @DF-RHF Final Energy:  -437.76424887980909
    Total Energy =                       -437.7642488798090881
  @DF-RHF Final Energy:  -437.75759503415981
    Total Energy =                       -437.7575950341598059
  @DF-RHF Final Energy:  -437.76424122497713
    Total Energy =                       -437.7642412249771269
  Multiplicity = 1
  @DF-RHF Final Energy:  -513.82006026253202
    Total Energy =                       -513.8200602625320244
	 Singles Energy            =      -0.0000000000000000 [Eh]
	 Same-Spin Energy          =      -0.1630624280200904 [Eh]
	 Opposite-Spin Energy      =      -0.5513910975621237 [Eh]
	 Correlation Energy        =      -0.7144535255822141 [Eh]
	 Total Energy              =    -514.5345137881142819 [Eh]
	 SCS Total Energy          =    -514.5360837222799546 [Eh]
    Molecular point group: c1

    Geometry (in Angstrom), charge = 0, multiplicity = 1:

       Center              X                  Y                   Z               Mass
    ------------   -----------------  -----------------  -----------------  -----------------
         C           -1.367768484538     1.077888431347    -0.265980713545    12.000000000000
         S           -0.965263484538    -0.650446568653     0.115788286455    31.972071174400
         H            0.363017515462    -0.491681568653     0.114810286455     1.007825032230
         H           -0.962300484538     1.371618431347    -1.228939713545     1.007825032230
         H           -1.005694484538     1.745485431347     0.509382286455     1.007825032230
         H           -2.451419484538     1.143225431347    -0.307082713545     1.007825032230
         O            2.787386515462     0.240405431347     0.017904286455    15.994914619570
         H            3.381513515462    -0.050488568653    -0.677159713545     1.007825032230
         H            3.344677515462     0.266856431347     0.798574286455     1.007825032230

  Charge       = 0
  Multiplicity = 1
  Basis Set: AUG-CC-PVQZ
    Blend: AUG-CC-PVQZ
  Basis Set: (AUG-CC-PVQZ AUX)
    Blend: AUG-CC-PVQZ-JKFIT

    Orbital Energies [Eh]
    ---------------------

    Doubly Occupied:

       1A    -91.934571     2A    -20.576236     3A    -11.243364
       4A     -8.937090     5A     -6.618772     6A     -6.617880
       7A     -6.616958     8A     -1.363570     9A     -1.024057
      10A     -0.853042    11A     -0.726111    12A     -0.605023
      13A     -0.590686    14A     -0.580353    15A     -0.524667
      16A     -0.510193    17A     -0.445672    18A     -0.342886

  @DF-RHF Final Energy:  -513.83204213923489

   => Energetics <=

    Nuclear Repulsion Energy =             99.7253695570948508
    One-Electron Energy =                -906.8925445346158085
    Two-Electron Energy =                 293.3351328382860288
    Total Energy =                       -513.8320421392349999

  Dipole Moment: [D]
     X:     2.7823      Y:     1.1655      Z:    -0.1812     Total:     3.0220

  Basis Set: (AUG-CC-PVQZ AUX)
    Blend: AUG-CC-PVQZ-RI
	 Reference Energy          =    -513.8320421392348862 [Eh]
	 Singles Energy            =      -0.0000000000000000 [Eh]
	 Same-Spin Energy          =      -0.1769559187341845 [Eh]
	 Opposite-Spin Energy      =      -0.6246077632001410 [Eh]
	 Correlation Energy        =      -0.8015636819343255 [Eh]
	 Total Energy              =    -514.6336058211692261 [Eh]

	 ================> DF-SCS-MP2 Energies <==================
	-----------------------------------------------------------
	 SCS Same-Spin Scale       =       0.3333333333333333 [-]
	 SCS Opposite-Spin Scale   =       1.2000000000000000 [-]
	 SCS Same-Spin Energy      =      -0.0589853062447282 [Eh]
	 SCS Opposite-Spin Energy  =      -0.7495293158401691 [Eh]
	 SCS Correlation Energy    =      -0.8085146220848973 [Eh]
	 SCS Total Energy          =    -514.6405567613197718 [Eh]
	-----------------------------------------------------------

*** Psi4 exiting successfully. Buy a developer a beer!
