                               Psi4 1.4a2.dev224

  ==> Input File <==

--------------------------------------------------------------------------
#Generated by lconvert.py for cbs job

memory 20 GB

molecule  {
0 1
  C      -3.110210    1.144980   -0.620730
  S      -2.707700   -0.583360   -0.238960
  H      -1.379420   -0.424590   -0.239940
  H      -2.704740    1.438710   -1.583690
  H      -2.748130    1.812570    0.154630
  H      -4.193860    1.210310   -0.661830
--
0 1
  O       2.146940    0.640260   -0.380890
  H       2.741060    0.349360   -1.075960
  H       2.704230    0.666710    0.399780
units angstrom
no_reorient
symmetry c1
}

set {
scf_type DF
mp2_type DF
e_convergence 7
reference rhf
}

energy('mp2/aug-cc-pv[tq]z', bsse_type='cp')
--------------------------------------------------------------------------

    Molecular point group: c1
  Charge       = 0
  Multiplicity = 1
  Basis Set: AUG-CC-PVTZ
    Blend: AUG-CC-PVTZ
  Basis Set: (AUG-CC-PVTZ AUX)
    Blend: AUG-CC-PVTZ-JKFIT
  @DF-RHF Final Energy:   -76.06038475015244
    Total Energy =                        -76.0603847501524371
  Basis Set: (AUG-CC-PVTZ AUX)
    Blend: AUG-CC-PVTZ-RI
	 Reference Energy          =     -76.0603847501524371 [Eh]
	 Singles Energy            =      -0.0000000000000000 [Eh]
	 Same-Spin Energy          =      -0.0683895932130970 [Eh]
	 Opposite-Spin Energy      =      -0.2153113296861923 [Eh]
	 Correlation Energy        =      -0.2837009228992893 [Eh]
	 Total Energy              =     -76.3440856730517226 [Eh]
	 SCS Total Energy          =     -76.3415548768468994 [Eh]
    Molecular point group: c1
  Basis Set: AUG-CC-PVQZ
    Blend: AUG-CC-PVQZ
  Basis Set: (AUG-CC-PVQZ AUX)
    Blend: AUG-CC-PVQZ-JKFIT
  @DF-RHF Final Energy:   -76.06576713113911
    Total Energy =                        -76.0657671311391113
  Basis Set: (AUG-CC-PVQZ AUX)
  @DF-RHF Final Energy:   -76.06039289795652
    Total Energy =                        -76.0603928979565183
  @DF-RHF Final Energy:   -76.06577110699314
    Total Energy =                        -76.0657711069931395
  @DF-RHF Final Energy:  -437.75760040005878
    Total Energy =                       -437.7576004000587773
  @DF-RHF Final Energy:  -437.76424426574408
    Total Energy =                       -437.7642442657440824
  @DF-RHF Final Energy:  -437.75759506787870
    Total Energy =                       -437.7575950678786967
  @DF-RHF Final Energy:  -437.76424124401819
    Total Energy =                       -437.7642412440182511
  Multiplicity = 1
  @DF-RHF Final Energy:  -513.81908494218249
    Total Energy =                       -513.8190849421824851
	 Singles Energy            =      -0.0000000000000000 [Eh]
	 Same-Spin Energy          =      -0.1622566067372657 [Eh]
	 Opposite-Spin Energy      =      -0.5503538149229783 [Eh]
	 Correlation Energy        =      -0.7126104216602440 [Eh]
	 Total Energy              =    -514.5316953638426867 [Eh]
	 SCS Total Energy          =    -514.5335950556691387 [Eh]
    Molecular point group: c1

    Geometry (in Angstrom), charge = 0, multiplicity = 1:

       Center              X                  Y                   Z               Mass
    ------------   -----------------  -----------------  -----------------  -----------------
         C           -1.668427986681     0.987103532346    -0.253964274774    12.000000000000
         S           -1.265917986681    -0.741236467654     0.127805725226    31.972071174400
         H            0.062362013319    -0.582466467654     0.126825725226     1.007825032230
         H           -1.262957986681     1.280833532346    -1.216924274774     1.007825032230
         H           -1.306347986681     1.654693532346     0.521395725226     1.007825032230
         H           -2.752077986681     1.052433532346    -0.295064274774     1.007825032230
         O            3.588722013319     0.482383532346    -0.014124274774    15.994914619570
         H            4.182842013319     0.191483532346    -0.709194274774     1.007825032230
         H            4.146012013319     0.508833532346     0.766545725226     1.007825032230

  Charge       = 0
  Multiplicity = 1
  Basis Set: AUG-CC-PVQZ
    Blend: AUG-CC-PVQZ
  Basis Set: (AUG-CC-PVQZ AUX)
    Blend: AUG-CC-PVQZ-JKFIT

    Orbital Energies [Eh]
    ---------------------

    Doubly Occupied:

       1A    -91.942419     2A    -20.570509     3A    -11.248219
       4A     -8.944763     5A     -6.626420     6A     -6.625503
       7A     -6.624552     8A     -1.357301     9A     -1.030022
      10A     -0.858979    11A     -0.720144    12A     -0.601072
      13A     -0.591553    14A     -0.585175    15A     -0.519989
      16A     -0.515632    17A     -0.452678    18A     -0.349203

  @DF-RHF Final Energy:  -513.83109599633781

   => Energetics <=

    Nuclear Repulsion Energy =             92.2967448395367001
    One-Electron Energy =                -891.9274043314464961
    Two-Electron Energy =                 285.7995634955719311
    Total Energy =                       -513.8310959963378082

  Dipole Moment: [D]
     X:     2.5140      Y:     1.1569      Z:    -0.1861     Total:     2.7737

  Basis Set: (AUG-CC-PVQZ AUX)
    Blend: AUG-CC-PVQZ-RI
	 Reference Energy          =    -513.8310959963378082 [Eh]
	 Singles Energy            =      -0.0000000000000000 [Eh]
	 Same-Spin Energy          =      -0.1762142400109057 [Eh]
	 Opposite-Spin Energy      =      -0.6238540971355124 [Eh]
	 Correlation Energy        =      -0.8000683371464181 [Eh]
	 Total Energy              =    -514.6311643334842074 [Eh]

	 ================> DF-SCS-MP2 Energies <==================
	-----------------------------------------------------------
	 SCS Same-Spin Scale       =       0.3333333333333333 [-]
	 SCS Opposite-Spin Scale   =       1.2000000000000000 [-]
	 SCS Same-Spin Energy      =      -0.0587380800036352 [Eh]
	 SCS Opposite-Spin Energy  =      -0.7486249165626149 [Eh]
	 SCS Correlation Energy    =      -0.8073629965662501 [Eh]
	 SCS Total Energy          =    -514.6384589929040203 [Eh]
	-----------------------------------------------------------

*** Psi4 exiting successfully. Buy a developer a beer!
