                               Psi4 1.4a2.dev224

  ==> Input File <==

--------------------------------------------------------------------------
#Generated by lconvert.py for cbs job

memory 40 GB

molecule  {
0 1
  C       -3.1102080     1.1449770    -0.6207280
  S       -2.7077030    -0.5833580    -0.2389590
  H       -1.3794220    -0.4245930    -0.2399370
  H       -2.7047400     1.4387070    -1.5836870
  H       -2.7481340     1.8125740     0.1546350
  H       -4.1938590     1.2103140    -0.6618300
--
0 1
  O        0.6041530     0.1743880    -0.3192230
  H        1.1982800    -0.1165060    -1.0142870
  H        1.1614440     0.2008390     0.4614470
units angstrom
no_reorient
symmetry c1
}

set {
scf_type DF
mp2_type DF
e_convergence 7
reference rhf
}

energy('mp2/aug-cc-pv[tq]z', bsse_type='cp')
--------------------------------------------------------------------------

    Molecular point group: c1
  Charge       = 0
  Multiplicity = 1
  Basis Set: AUG-CC-PVTZ
    Blend: AUG-CC-PVTZ
  Basis Set: (AUG-CC-PVTZ AUX)
    Blend: AUG-CC-PVTZ-JKFIT
  @DF-RHF Final Energy:   -76.06038473834072
    Total Energy =                        -76.0603847383407015
  Basis Set: (AUG-CC-PVTZ AUX)
    Blend: AUG-CC-PVTZ-RI
	 Reference Energy          =     -76.0603847383407157 [Eh]
	 Singles Energy            =      -0.0000000000000000 [Eh]
	 Same-Spin Energy          =      -0.0683895942926549 [Eh]
	 Opposite-Spin Energy      =      -0.2153113291204235 [Eh]
	 Correlation Energy        =      -0.2837009234130783 [Eh]
	 Total Energy              =     -76.3440856617537946 [Eh]
	 SCS Total Energy          =     -76.3415548647161017 [Eh]
    Molecular point group: c1
  Basis Set: AUG-CC-PVQZ
    Blend: AUG-CC-PVQZ
  Basis Set: (AUG-CC-PVQZ AUX)
    Blend: AUG-CC-PVQZ-JKFIT
  @DF-RHF Final Energy:   -76.06576712316628
    Total Energy =                        -76.0657671231662817
  Basis Set: (AUG-CC-PVQZ AUX)
  @DF-RHF Final Energy:   -76.06044854045142
    Total Energy =                        -76.0604485404514321
  @DF-RHF Final Energy:   -76.06579877843089
    Total Energy =                        -76.0657987784308887
  @DF-RHF Final Energy:  -437.75761509045230
    Total Energy =                       -437.7576150904523047
  @DF-RHF Final Energy:  -437.76425208184378
    Total Energy =                       -437.7642520818437220
  @DF-RHF Final Energy:  -437.75759503415912
    Total Energy =                       -437.7575950341590669
  @DF-RHF Final Energy:  -437.76424122490073
    Total Energy =                       -437.7642412249007293
  Multiplicity = 1
  @DF-RHF Final Energy:  -513.81813385009070
    Total Energy =                       -513.8181338500908168
	 Singles Energy            =      -0.0000000000000000 [Eh]
	 Same-Spin Energy          =      -0.1642504721097523 [Eh]
	 Opposite-Spin Energy      =      -0.5527360057067350 [Eh]
	 Correlation Energy        =      -0.7169864778164873 [Eh]
	 Total Energy              =    -514.5351203279071797 [Eh]
	 SCS Total Energy          =    -514.5361672143086480 [Eh]
    Molecular point group: c1

    Geometry (in Angstrom), charge = 0, multiplicity = 1:

       Center              X                  Y                   Z               Mass
    ------------   -----------------  -----------------  -----------------  -----------------
         C           -1.247506774179     1.114203706099    -0.270787973482    12.000000000000
         S           -0.845001774179    -0.614131293901     0.110981026518    31.972071174400
         H            0.483279225821    -0.455366293901     0.110003026518     1.007825032230
         H           -0.842038774179     1.407933706099    -1.233746973482     1.007825032230
         H           -0.885432774179     1.781800706099     0.504575026518     1.007825032230
         H           -2.331157774179     1.179540706099    -0.311889973482     1.007825032230
         O            2.466854225821     0.143614706099     0.030717026518    15.994914619570
         H            3.060981225821    -0.147279293901    -0.664346973482     1.007825032230
         H            3.024145225821     0.170065706099     0.811387026518     1.007825032230

  Charge       = 0
  Multiplicity = 1
  Basis Set: AUG-CC-PVQZ
    Blend: AUG-CC-PVQZ
  Basis Set: (AUG-CC-PVQZ AUX)
    Blend: AUG-CC-PVQZ-JKFIT

    Orbital Energies [Eh]
    ---------------------

    Doubly Occupied:

       1A    -91.926285     2A    -20.582152     3A    -11.239491
       4A     -8.929160     5A     -6.610869     6A     -6.610004
       7A     -6.609118     8A     -1.371126     9A     -1.019112
      10A     -0.848520    11A     -0.732921    12A     -0.620709
      13A     -0.583780    14A     -0.576635    15A     -0.534329
      16A     -0.499899    17A     -0.437933    18A     -0.337166

  @DF-RHF Final Energy:  -513.83012265687512

   => Energetics <=

    Nuclear Repulsion Energy =            103.9878060358445282
    One-Electron Energy =                -915.4974267082470760
    Two-Electron Energy =                 297.6794980155274288
    Total Energy =                       -513.8301226568751190

  Dipole Moment: [D]
     X:     3.0928      Y:     1.1709      Z:    -0.1746     Total:     3.3116

  Basis Set: (AUG-CC-PVQZ AUX)
    Blend: AUG-CC-PVQZ-RI
	 Reference Energy          =    -513.8301226568751190 [Eh]
	 Singles Energy            =      -0.0000000000000000 [Eh]
	 Same-Spin Energy          =      -0.1780997876298214 [Eh]
	 Opposite-Spin Energy      =      -0.6257364478771739 [Eh]
	 Correlation Energy        =      -0.8038362355069952 [Eh]
	 Total Energy              =    -514.6339588923821111 [Eh]

	 ================> DF-SCS-MP2 Energies <==================
	-----------------------------------------------------------
	 SCS Same-Spin Scale       =       0.3333333333333333 [-]
	 SCS Opposite-Spin Scale   =       1.2000000000000000 [-]
	 SCS Same-Spin Energy      =      -0.0593665958766071 [Eh]
	 SCS Opposite-Spin Energy  =      -0.7508837374526086 [Eh]
	 SCS Correlation Energy    =      -0.8102503333292157 [Eh]
	 SCS Total Energy          =    -514.6403729902043551 [Eh]
	-----------------------------------------------------------

*** Psi4 exiting successfully. Buy a developer a beer!
