                               Psi4 1.4a2.dev224

  ==> Input File <==

--------------------------------------------------------------------------
#Generated by lconvert.py for cbs job

memory 20 GB

molecule  {
0 1
  C      -3.110210    1.144980   -0.620730
  S      -2.707700   -0.583360   -0.238960
  H      -1.379420   -0.424590   -0.239940
  H      -2.704740    1.438710   -1.583690
  H      -2.748130    1.812570    0.154630
  H      -4.193860    1.210310   -0.661830
--
0 1
  O       1.485740    0.440600   -0.354460
  H       2.079870    0.149710   -1.049530
  H       2.043030    0.467050    0.426210
units angstrom
no_reorient
symmetry c1
}

set {
scf_type DF
mp2_type DF
e_convergence 7
reference rhf
}

energy('mp2/aug-cc-pv[tq]z', bsse_type='cp')
--------------------------------------------------------------------------

    Molecular point group: c1
  Charge       = 0
  Multiplicity = 1
  Basis Set: AUG-CC-PVTZ
    Blend: AUG-CC-PVTZ
  Basis Set: (AUG-CC-PVTZ AUX)
    Blend: AUG-CC-PVTZ-JKFIT
  @DF-RHF Final Energy:   -76.06038459378281
    Total Energy =                        -76.0603845937828282
  Basis Set: (AUG-CC-PVTZ AUX)
    Blend: AUG-CC-PVTZ-RI
	 Reference Energy          =     -76.0603845937828140 [Eh]
	 Singles Energy            =      -0.0000000000000000 [Eh]
	 Same-Spin Energy          =      -0.0683896295615109 [Eh]
	 Opposite-Spin Energy      =      -0.2153114375740812 [Eh]
	 Correlation Energy        =      -0.2837010671355921 [Eh]
	 Total Energy              =     -76.3440856609184095 [Eh]
	 SCS Total Energy          =     -76.3415548620588851 [Eh]
    Molecular point group: c1
  Basis Set: AUG-CC-PVQZ
    Blend: AUG-CC-PVQZ
  Basis Set: (AUG-CC-PVQZ AUX)
    Blend: AUG-CC-PVQZ-JKFIT
  @DF-RHF Final Energy:   -76.06576696723293
    Total Energy =                        -76.0657669672329320
  Basis Set: (AUG-CC-PVQZ AUX)
  @DF-RHF Final Energy:   -76.06040414343039
    Total Energy =                        -76.0604041434304037
  @DF-RHF Final Energy:   -76.06577825964760
    Total Energy =                        -76.0657782596476011
  @DF-RHF Final Energy:  -437.75760410769385
    Total Energy =                       -437.7576041076938509
  @DF-RHF Final Energy:  -437.76424671692286
    Total Energy =                       -437.7642467169227984
  @DF-RHF Final Energy:  -437.75759506786028
    Total Energy =                       -437.7575950678602226
  @DF-RHF Final Energy:  -437.76424124387307
    Total Energy =                       -437.7642412438730730
  Multiplicity = 1
  @DF-RHF Final Energy:  -513.81975998662278
    Total Energy =                       -513.8197599866227847
	 Singles Energy            =      -0.0000000000000000 [Eh]
	 Same-Spin Energy          =      -0.1625522355924258 [Eh]
	 Opposite-Spin Energy      =      -0.5507459070244363 [Eh]
	 Correlation Energy        =      -0.7132981426168621 [Eh]
	 Total Energy              =    -514.5330581292396346 [Eh]
	 SCS Total Energy          =    -514.5348391535828796 [Eh]
    Molecular point group: c1

    Geometry (in Angstrom), charge = 0, multiplicity = 1:

       Center              X                  Y                   Z               Mass
    ------------   -----------------  -----------------  -----------------  -----------------
         C           -1.488033118344     1.041576564635    -0.261175164679    12.000000000000
         S           -1.085523118344    -0.686763435365     0.120594835321    31.972071174400
         H            0.242756881656    -0.527993435365     0.119614835321     1.007825032230
         H           -1.082563118344     1.335306564635    -1.224135164679     1.007825032230
         H           -1.125953118344     1.709166564635     0.514184835321     1.007825032230
         H           -2.571683118344     1.106906564635    -0.302275164679     1.007825032230
         O            3.107916881656     0.337196564635     0.005094835321    15.994914619570
         H            3.702046881656     0.046306564635    -0.689975164679     1.007825032230
         H            3.665206881656     0.363646564635     0.785764835321     1.007825032230

  Charge       = 0
  Multiplicity = 1
  Basis Set: AUG-CC-PVQZ
    Blend: AUG-CC-PVQZ
  Basis Set: (AUG-CC-PVQZ AUX)
    Blend: AUG-CC-PVQZ-JKFIT

    Orbital Energies [Eh]
    ---------------------

    Doubly Occupied:

       1A    -91.938850     2A    -20.573107     3A    -11.245810
       4A     -8.941253     5A     -6.622921     6A     -6.622015
       7A     -6.621075     8A     -1.360020     9A     -1.027125
      10A     -0.856069    11A     -0.722771    12A     -0.599997
      13A     -0.593288    14A     -0.582761    15A     -0.520178
      16A     -0.514993    17A     -0.449491    18A     -0.346201

  @DF-RHF Final Energy:  -513.83175951216469

   => Energetics <=

    Nuclear Repulsion Energy =             96.3124277109045011
    One-Electron Energy =                -900.0125078358964856
    Two-Electron Energy =                 289.8683206128272332
    Total Energy =                       -513.8317595121646946

  Dipole Moment: [D]
     X:     2.6294      Y:     1.1617      Z:    -0.1842     Total:     2.8805

  Basis Set: (AUG-CC-PVQZ AUX)
    Blend: AUG-CC-PVQZ-RI
	 Reference Energy          =    -513.8317595121646946 [Eh]
	 Singles Energy            =      -0.0000000000000000 [Eh]
	 Same-Spin Energy          =      -0.1764800337707155 [Eh]
	 Opposite-Spin Energy      =      -0.6241188743856108 [Eh]
	 Correlation Energy        =      -0.8005989081563263 [Eh]
	 Total Energy              =    -514.6323584203209975 [Eh]

	 ================> DF-SCS-MP2 Energies <==================
	-----------------------------------------------------------
	 SCS Same-Spin Scale       =       0.3333333333333333 [-]
	 SCS Opposite-Spin Scale   =       1.2000000000000000 [-]
	 SCS Same-Spin Energy      =      -0.0588266779235718 [Eh]
	 SCS Opposite-Spin Energy  =      -0.7489426492627329 [Eh]
	 SCS Correlation Energy    =      -0.8077693271863048 [Eh]
	 SCS Total Energy          =    -514.6395288393509873 [Eh]
	-----------------------------------------------------------

*** Psi4 exiting successfully. Buy a developer a beer!
