                               Psi4 1.4a2.dev224

  ==> Input File <==

--------------------------------------------------------------------------
#Generated by lconvert.py for cbs job

memory 20 GB

molecule  {
0 1
  C       0.794820   -0.002740   -0.413600
  S       0.780280    1.808500   -0.282020
  H       1.198610    1.874300    0.985120
  H       0.053820   -0.448810    0.243540
  H       0.541250   -0.232540   -1.444970
  H       1.782470   -0.400100   -0.203580
--
0 1
  C      -4.860660    0.041950   -0.200900
  S      -4.524450    0.139770    1.579700
  H      -3.512980    1.009900    1.474230
  H      -3.997640   -0.331720   -0.743780
  H      -5.158920    1.007540   -0.596230
  H      -5.682350   -0.658180   -0.323260
units angstrom
no_reorient
symmetry c1
}

set {
scf_type DF
mp2_type DF
e_convergence 7
reference rhf
}

energy('mp2/aug-cc-pv[tq]z', bsse_type='cp')
--------------------------------------------------------------------------

    Molecular point group: c1
  Charge       = 0
  Multiplicity = 1
  Basis Set: AUG-CC-PVTZ
    Blend: AUG-CC-PVTZ
  Basis Set: (AUG-CC-PVTZ AUX)
    Blend: AUG-CC-PVTZ-JKFIT
  @DF-RHF Final Energy:  -437.75749664864384
    Total Energy =                       -437.7574966486438370
  Basis Set: (AUG-CC-PVTZ AUX)
    Blend: AUG-CC-PVTZ-RI
	 Reference Energy          =    -437.7574966486438370 [Eh]
	 Singles Energy            =      -0.0000000000000000 [Eh]
	 Same-Spin Energy          =      -0.0937214609485208 [Eh]
	 Opposite-Spin Energy      =      -0.3348936947561691 [Eh]
	 Correlation Energy        =      -0.4286151557046899 [Eh]
	 Total Energy              =    -438.1861118043485135 [Eh]
	 SCS Total Energy          =    -438.1906095693340717 [Eh]
    Molecular point group: c1
  Basis Set: AUG-CC-PVQZ
    Blend: AUG-CC-PVQZ
  Basis Set: (AUG-CC-PVQZ AUX)
    Blend: AUG-CC-PVQZ-JKFIT
  @DF-RHF Final Energy:  -437.76414240920042
    Total Energy =                       -437.7641424092004172
  Basis Set: (AUG-CC-PVQZ AUX)
  @DF-RHF Final Energy:  -437.75750482238902
    Total Energy =                       -437.7575048223890235
  @DF-RHF Final Energy:  -437.76414774103171
    Total Energy =                       -437.7641477410317066
  @DF-RHF Final Energy:  -437.75763174298947
    Total Energy =                       -437.7576317429894743
  @DF-RHF Final Energy:  -437.76427173891642
    Total Energy =                       -437.7642717389164204
  @DF-RHF Final Energy:  -437.75761973423215
    Total Energy =                       -437.7576197342321507
  @DF-RHF Final Energy:  -437.76426583479031
    Total Energy =                       -437.7642658347903080
  Multiplicity = 1
  @DF-RHF Final Energy:  -875.51560329063796
    Total Energy =                       -875.5156032906379551
	 Singles Energy            =      -0.0000000000000000 [Eh]
	 Same-Spin Energy          =      -0.1877379379710374 [Eh]
	 Opposite-Spin Energy      =      -0.6702481493565804 [Eh]
	 Correlation Energy        =      -0.8579860873276177 [Eh]
	 Total Energy              =    -876.3735893779655726 [Eh]
	 SCS Total Energy          =    -876.3824803825228855 [Eh]
    Molecular point group: c1

    Geometry (in Angstrom), charge = 0, multiplicity = 1:

       Center              X                  Y                   Z               Mass
    ------------   -----------------  -----------------  -----------------  -----------------
         C            2.705001570498    -0.675561303625    -0.762552808054    12.000000000000
         S            2.690461570498     1.135678696375    -0.630972808054    31.972071174400
         H            3.108791570498     1.201478696375     0.636167191946     1.007825032230
         H            1.964001570498    -1.121631303625    -0.105412808054     1.007825032230
         H            2.451431570498    -0.905361303625    -1.793922808054     1.007825032230
         H            3.692651570498    -1.072921303625    -0.552532808054     1.007825032230
         C           -2.950478429502    -0.630871303625    -0.549852808054    12.000000000000
         S           -2.614268429502    -0.533051303625     1.230747191946    31.972071174400
         H           -1.602798429502     0.337078696375     1.125277191946     1.007825032230
         H           -2.087458429502    -1.004541303625    -1.092732808054     1.007825032230
         H           -3.248738429502     0.334718696375    -0.945182808054     1.007825032230
         H           -3.772168429502    -1.331001303625    -0.672212808054     1.007825032230

  Charge       = 0
  Multiplicity = 1
  Basis Set: AUG-CC-PVQZ
    Blend: AUG-CC-PVQZ
  Basis Set: (AUG-CC-PVQZ AUX)
    Blend: AUG-CC-PVQZ-JKFIT

    Orbital Energies [Eh]
    ---------------------

    Doubly Occupied:

       1A    -91.953520     2A    -91.950254     3A    -11.258383
       4A    -11.254917     5A     -8.955859     6A     -8.952548
       7A     -6.637511     8A     -6.636570     9A     -6.635615
      10A     -6.634187    11A     -6.633262    12A     -6.632299
      13A     -1.040581    14A     -1.037470    15A     -0.869582
      16A     -0.865891    17A     -0.611316    18A     -0.608382
      19A     -0.596310    20A     -0.591965    21A     -0.530812
      22A     -0.526313    23A     -0.462637    24A     -0.460756
      25A     -0.360185    26A     -0.356625

  @DF-RHF Final Energy:  -875.52887867712479

   => Energetics <=

    Nuclear Repulsion Energy =            174.8504529821333051
    One-Electron Energy =               -1554.6511574091559851
    Two-Electron Energy =                 504.2718257498979710
    Total Energy =                       -875.5288786771247942

  Dipole Moment: [D]
     X:     0.5856      Y:    -1.0974      Z:    -0.9841     Total:     1.5861

  Basis Set: (AUG-CC-PVQZ AUX)
    Blend: AUG-CC-PVQZ-RI
	 Reference Energy          =    -875.5288786771247942 [Eh]
	 Singles Energy            =      -0.0000000000000000 [Eh]
	 Same-Spin Energy          =      -0.2069841577008214 [Eh]
	 Opposite-Spin Energy      =      -0.7593204600563771 [Eh]
	 Correlation Energy        =      -0.9663046177571986 [Eh]
	 Total Energy              =    -876.4951832948819401 [Eh]

	 ================> DF-SCS-MP2 Energies <==================
	-----------------------------------------------------------
	 SCS Same-Spin Scale       =       0.3333333333333333 [-]
	 SCS Opposite-Spin Scale   =       1.2000000000000000 [-]
	 SCS Same-Spin Energy      =      -0.0689947192336071 [Eh]
	 SCS Opposite-Spin Energy  =      -0.9111845520676525 [Eh]
	 SCS Correlation Energy    =      -0.9801792713012596 [Eh]
	 SCS Total Energy          =    -876.5090579484260616 [Eh]
	-----------------------------------------------------------

*** Psi4 exiting successfully. Buy a developer a beer!
