                               Psi4 1.4a2.dev224

  ==> Input File <==

--------------------------------------------------------------------------
#Generated by lconvert.py for cbs job

memory 40 GB

molecule  {
0 1
  C        0.7948210    -0.0027360    -0.4136000
  S        0.7802790     1.8084980    -0.2820150
  H        1.1986090     1.8743000     0.9851210
  H        0.0538160    -0.4488100     0.2435360
  H        0.5412540    -0.2325420    -1.4449730
  H        1.7824700    -0.4000990    -0.2035800
--
0 1
  C       -2.1192950     0.5976960    -0.8593920
  S       -1.7830850     0.6955230     0.9212090
  H       -0.7716170     1.5656510     0.8157440
  H       -1.2562780     0.2240290    -1.4022650
  H       -2.4175600     1.5632860    -1.2547160
  H       -2.9409900    -0.1024270    -0.9817450
units angstrom
no_reorient
symmetry c1
}

set {
scf_type DF
mp2_type DF
e_convergence 7
reference rhf
}

energy('mp2/aug-cc-pv[tq]z', bsse_type='cp')
--------------------------------------------------------------------------

    Molecular point group: c1
  Charge       = 0
  Multiplicity = 1
  Basis Set: AUG-CC-PVTZ
    Blend: AUG-CC-PVTZ
  Basis Set: (AUG-CC-PVTZ AUX)
    Blend: AUG-CC-PVTZ-JKFIT
  @DF-RHF Final Energy:  -437.75749683312523
    Total Energy =                       -437.7574968331252308
  Basis Set: (AUG-CC-PVTZ AUX)
    Blend: AUG-CC-PVTZ-RI
	 Reference Energy          =    -437.7574968331252308 [Eh]
	 Singles Energy            =      -0.0000000000000000 [Eh]
	 Same-Spin Energy          =      -0.0937214438991915 [Eh]
	 Opposite-Spin Energy      =      -0.3348936048894204 [Eh]
	 Correlation Energy        =      -0.4286150487886119 [Eh]
	 Total Energy              =    -438.1861118819138596 [Eh]
	 SCS Total Energy          =    -438.1906096402922799 [Eh]
    Molecular point group: c1
  Basis Set: AUG-CC-PVQZ
    Blend: AUG-CC-PVQZ
  Basis Set: (AUG-CC-PVQZ AUX)
    Blend: AUG-CC-PVQZ-JKFIT
  @DF-RHF Final Energy:  -437.76414260126154
    Total Energy =                       -437.7641426012615398
  Basis Set: (AUG-CC-PVQZ AUX)
  @DF-RHF Final Energy:  -437.75760264444295
    Total Energy =                       -437.7576026444430113
  @DF-RHF Final Energy:  -437.76418150938656
    Total Energy =                       -437.7641815093866171
  @DF-RHF Final Energy:  -437.75774382317161
    Total Energy =                       -437.7577438231716087
  @DF-RHF Final Energy:  -437.76431027315630
    Total Energy =                       -437.7643102731562976
  @DF-RHF Final Energy:  -437.75761973411261
    Total Energy =                       -437.7576197341125521
  @DF-RHF Final Energy:  -437.76426585544345
    Total Energy =                       -437.7642658554435116
  Multiplicity = 1
  @DF-RHF Final Energy:  -875.46301471536538
    Total Energy =                       -875.4630147153653752
	 Singles Energy            =      -0.0000000000000000 [Eh]
	 Same-Spin Energy          =      -0.2026682564563404 [Eh]
	 Opposite-Spin Energy      =      -0.6887711379953432 [Eh]
	 Correlation Energy        =      -0.8914393944516836 [Eh]
	 Total Energy              =    -876.3544541098170839 [Eh]
	 SCS Total Energy          =    -876.3570961664452170 [Eh]
    Molecular point group: c1

    Geometry (in Angstrom), charge = 0, multiplicity = 1:

       Center              X                  Y                   Z               Mass
    ------------   -----------------  -----------------  -----------------  -----------------
         C            1.334320446485    -0.953432615649    -0.433309016117    12.000000000000
         S            1.319778446485     0.857801384351    -0.301724016117    31.972071174400
         H            1.738108446485     0.923603384351     0.965411983883     1.007825032230
         H            0.593315446485    -1.399506615649     0.223826983883     1.007825032230
         H            1.080753446485    -1.183238615649    -1.464682016117     1.007825032230
         H            2.321969446485    -1.350795615649    -0.223289016117     1.007825032230
         C           -1.579795553515    -0.353000615649    -0.879101016117    12.000000000000
         S           -1.243585553515    -0.255173615649     0.901499983883    31.972071174400
         H           -0.232117553515     0.614954384351     0.796034983883     1.007825032230
         H           -0.716778553515    -0.726667615649    -1.421974016117     1.007825032230
         H           -1.878060553515     0.612589384351    -1.274425016117     1.007825032230
         H           -2.401490553515    -1.053123615649    -1.001454016117     1.007825032230

  Charge       = 0
  Multiplicity = 1
  Basis Set: AUG-CC-PVQZ
    Blend: AUG-CC-PVQZ
  Basis Set: (AUG-CC-PVQZ AUX)
    Blend: AUG-CC-PVQZ-JKFIT

    Orbital Energies [Eh]
    ---------------------

    Doubly Occupied:

       1A    -91.962200     2A    -91.922798     3A    -11.255244
       4A    -11.246446     5A     -8.966414     6A     -8.927921
       7A     -6.647803     8A     -6.646872     9A     -6.646298
      10A     -6.609450    11A     -6.608796    12A     -6.607864
      13A     -1.070325    14A     -1.017580    15A     -0.889307
      16A     -0.856703    17A     -0.641411    18A     -0.618517
      19A     -0.598578    20A     -0.560317    21A     -0.539388
      22A     -0.525155    23A     -0.474817    24A     -0.460952
      25A     -0.346602    26A     -0.339066

  @DF-RHF Final Energy:  -875.47619079674723

   => Energetics <=

    Nuclear Repulsion Energy =            230.5531714295208872
    One-Electron Energy =               -1666.0850743126370617
    Two-Electron Energy =                 560.0557120863688851
    Total Energy =                       -875.4761907967472325

  Dipole Moment: [D]
     X:     1.2152      Y:    -0.8073      Z:    -1.0534     Total:     1.7995

  Basis Set: (AUG-CC-PVQZ AUX)
    Blend: AUG-CC-PVQZ-RI
	 Reference Energy          =    -875.4761907967472325 [Eh]
	 Singles Energy            =      -0.0000000000000000 [Eh]
	 Same-Spin Energy          =      -0.2213088372464059 [Eh]
	 Opposite-Spin Energy      =      -0.7756615627002896 [Eh]
	 Correlation Energy        =      -0.9969703999466955 [Eh]
	 Total Energy              =    -876.4731611966939226 [Eh]

	 ================> DF-SCS-MP2 Energies <==================
	-----------------------------------------------------------
	 SCS Same-Spin Scale       =       0.3333333333333333 [-]
	 SCS Opposite-Spin Scale   =       1.2000000000000000 [-]
	 SCS Same-Spin Energy      =      -0.0737696124154686 [Eh]
	 SCS Opposite-Spin Energy  =      -0.9307938752403475 [Eh]
	 SCS Correlation Energy    =      -1.0045634876558160 [Eh]
	 SCS Total Energy          =    -876.4807542844030195 [Eh]
	-----------------------------------------------------------

*** Psi4 exiting successfully. Buy a developer a beer!
