                               Psi4 1.4a2.dev224

  ==> Input File <==

--------------------------------------------------------------------------
#Generated by lconvert.py for cbs job

memory 40 GB

molecule  {
0 1
  C        0.7948210    -0.0027360    -0.4136000
  S        0.7802790     1.8084980    -0.2820150
  H        1.1986090     1.8743000     0.9851210
  H        0.0538160    -0.4488100     0.2435360
  H        0.5412540    -0.2325420    -1.4449730
  H        1.7824700    -0.4000990    -0.2035800
--
0 1
  C       -2.6753890     0.4849610    -0.7258150
  S       -2.3391790     0.5827880     1.0547860
  H       -1.3277110     1.4529160     0.9493210
  H       -1.8123720     0.1112940    -1.2686880
  H       -2.9736540     1.4505510    -1.1211390
  H       -3.4970840    -0.2151620    -0.8481680
units angstrom
no_reorient
symmetry c1
}

set {
scf_type DF
mp2_type DF
e_convergence 7
reference rhf
}

energy('mp2/aug-cc-pv[tq]z', bsse_type='cp')
--------------------------------------------------------------------------

    Molecular point group: c1
  Charge       = 0
  Multiplicity = 1
  Basis Set: AUG-CC-PVTZ
    Blend: AUG-CC-PVTZ
  Basis Set: (AUG-CC-PVTZ AUX)
    Blend: AUG-CC-PVTZ-JKFIT
  @DF-RHF Final Energy:  -437.75749683319373
    Total Energy =                       -437.7574968331937271
  Basis Set: (AUG-CC-PVTZ AUX)
    Blend: AUG-CC-PVTZ-RI
	 Reference Energy          =    -437.7574968331937271 [Eh]
	 Singles Energy            =      -0.0000000000000000 [Eh]
	 Same-Spin Energy          =      -0.0937214438990324 [Eh]
	 Opposite-Spin Energy      =      -0.3348936048890248 [Eh]
	 Correlation Energy        =      -0.4286150487880571 [Eh]
	 Total Energy              =    -438.1861118819817875 [Eh]
	 SCS Total Energy          =    -438.1906096403602078 [Eh]
    Molecular point group: c1
  Basis Set: AUG-CC-PVQZ
    Blend: AUG-CC-PVQZ
  Basis Set: (AUG-CC-PVQZ AUX)
    Blend: AUG-CC-PVQZ-JKFIT
  @DF-RHF Final Energy:  -437.76414260105514
    Total Energy =                       -437.7641426010551413
  Basis Set: (AUG-CC-PVQZ AUX)
  @DF-RHF Final Energy:  -437.75756281384037
    Total Energy =                       -437.7575628138403658
  @DF-RHF Final Energy:  -437.76416847394268
    Total Energy =                       -437.7641684739426182
  @DF-RHF Final Energy:  -437.75770190507205
    Total Energy =                       -437.7577019050720537
  @DF-RHF Final Energy:  -437.76429489824648
    Total Energy =                       -437.7642948982464759
  @DF-RHF Final Energy:  -437.75761973416490
    Total Energy =                       -437.7576197341649049
  @DF-RHF Final Energy:  -437.76426585558704
    Total Energy =                       -437.7642658555870412
  Multiplicity = 1
  @DF-RHF Final Energy:  -875.50766445061095
    Total Energy =                       -875.5076644506109460
	 Singles Energy            =      -0.0000000000000000 [Eh]
	 Same-Spin Energy          =      -0.1940164145139559 [Eh]
	 Opposite-Spin Energy      =      -0.6784852150542509 [Eh]
	 Correlation Energy        =      -0.8725016295682068 [Eh]
	 Total Energy              =    -876.3801660801791513 [Eh]
	 SCS Total Energy          =    -876.3865188468473661 [Eh]
    Molecular point group: c1

    Geometry (in Angstrom), charge = 0, multiplicity = 1:

       Center              X                  Y                   Z               Mass
    ------------   -----------------  -----------------  -----------------  -----------------
         C            1.612367446485    -0.897065115649    -0.500097516117    12.000000000000
         S            1.597825446485     0.914168884351    -0.368512516117    31.972071174400
         H            2.016155446485     0.979970884351     0.898623483883     1.007825032230
         H            0.871362446485    -1.343139115649     0.157038483883     1.007825032230
         H            1.358800446485    -1.126871115649    -1.531470516117     1.007825032230
         H            2.600016446485    -1.294428115649    -0.290077516117     1.007825032230
         C           -1.857842553515    -0.409368115649    -0.812312516117    12.000000000000
         S           -1.521632553515    -0.311541115649     0.968288483883    31.972071174400
         H           -0.510164553515     0.558586884351     0.862823483883     1.007825032230
         H           -0.994825553515    -0.783035115649    -1.355185516117     1.007825032230
         H           -2.156107553515     0.556221884351    -1.207636516117     1.007825032230
         H           -2.679537553515    -1.109491115649    -0.934665516117     1.007825032230

  Charge       = 0
  Multiplicity = 1
  Basis Set: AUG-CC-PVQZ
    Blend: AUG-CC-PVQZ
  Basis Set: (AUG-CC-PVQZ AUX)
    Blend: AUG-CC-PVQZ-JKFIT

    Orbital Energies [Eh]
    ---------------------

    Doubly Occupied:

       1A    -91.958141     2A    -91.940092     3A    -11.257939
       4A    -11.251213     5A     -8.960959     6A     -8.943129
       7A     -6.642578     8A     -6.641629     9A     -6.640763
      10A     -6.624782    11A     -6.623930    12A     -6.623009
      13A     -1.048980    14A     -1.029958    15A     -0.875111
      16A     -0.861302    17A     -0.621148    18A     -0.612945
      19A     -0.597283    20A     -0.576471    21A     -0.535069
      22A     -0.522630    23A     -0.467914    24A     -0.457641
      25A     -0.362530    26A     -0.350886

  @DF-RHF Final Energy:  -875.52084077279505

   => Energetics <=

    Nuclear Repulsion Energy =            212.9062111258948562
    One-Electron Energy =               -1630.7980151855404074
    Two-Electron Energy =                 542.3709632868503832
    Total Energy =                       -875.5208407727950544

  Dipole Moment: [D]
     X:     0.8603      Y:    -0.9457      Z:    -0.9860     Total:     1.6146

  Basis Set: (AUG-CC-PVQZ AUX)
    Blend: AUG-CC-PVQZ-RI
	 Reference Energy          =    -875.5208407727950544 [Eh]
	 Singles Energy            =      -0.0000000000000000 [Eh]
	 Same-Spin Energy          =      -0.2128514702915741 [Eh]
	 Opposite-Spin Energy      =      -0.7660357338621633 [Eh]
	 Correlation Energy        =      -0.9788872041537374 [Eh]
	 Total Energy              =    -876.4997279769487477 [Eh]

	 ================> DF-SCS-MP2 Energies <==================
	-----------------------------------------------------------
	 SCS Same-Spin Scale       =       0.3333333333333333 [-]
	 SCS Opposite-Spin Scale   =       1.2000000000000000 [-]
	 SCS Same-Spin Energy      =      -0.0709504900971914 [Eh]
	 SCS Opposite-Spin Energy  =      -0.9192428806345959 [Eh]
	 SCS Correlation Energy    =      -0.9901933707317873 [Eh]
	 SCS Total Energy          =    -876.5110341435267856 [Eh]
	-----------------------------------------------------------

*** Psi4 exiting successfully. Buy a developer a beer!
