                               Psi4 1.4a2.dev224

  ==> Input File <==

--------------------------------------------------------------------------
#Generated by lconvert.py for cbs job

memory 40 GB

molecule  {
0 1
  C        0.7948210    -0.0027360    -0.4136000
  S        0.7802790     1.8084980    -0.2820150
  H        1.1986090     1.8743000     0.9851210
  H        0.0538160    -0.4488100     0.2435360
  H        0.5412540    -0.2325420    -1.4449730
  H        1.7824700    -0.4000990    -0.2035800
--
0 1
  C       -3.2547870     0.3675010    -0.5866410
  S       -2.9185770     0.4653280     1.1939600
  H       -1.9071090     1.3354560     1.0884950
  H       -2.3917700    -0.0061660    -1.1295140
  H       -3.5530520     1.3330910    -0.9819650
  H       -4.0764820    -0.3326220    -0.7089940
units angstrom
no_reorient
symmetry c1
}

set {
scf_type DF
mp2_type DF
e_convergence 7
reference rhf
}

energy('mp2/aug-cc-pv[tq]z', bsse_type='cp')
--------------------------------------------------------------------------

    Molecular point group: c1
  Charge       = 0
  Multiplicity = 1
  Basis Set: AUG-CC-PVTZ
    Blend: AUG-CC-PVTZ
  Basis Set: (AUG-CC-PVTZ AUX)
    Blend: AUG-CC-PVTZ-JKFIT
  @DF-RHF Final Energy:  -437.75749683323988
    Total Energy =                       -437.7574968332398839
  Basis Set: (AUG-CC-PVTZ AUX)
    Blend: AUG-CC-PVTZ-RI
	 Reference Energy          =    -437.7574968332398839 [Eh]
	 Singles Energy            =      -0.0000000000000000 [Eh]
	 Same-Spin Energy          =      -0.0937214438989895 [Eh]
	 Opposite-Spin Energy      =      -0.3348936048887972 [Eh]
	 Correlation Energy        =      -0.4286150487877867 [Eh]
	 Total Energy              =    -438.1861118820276602 [Eh]
	 SCS Total Energy          =    -438.1906096404060804 [Eh]
    Molecular point group: c1
  Basis Set: AUG-CC-PVQZ
    Blend: AUG-CC-PVQZ
  Basis Set: (AUG-CC-PVQZ AUX)
    Blend: AUG-CC-PVQZ-JKFIT
  @DF-RHF Final Energy:  -437.76414260101058
    Total Energy =                       -437.7641426010105761
  Basis Set: (AUG-CC-PVQZ AUX)
  @DF-RHF Final Energy:  -437.75753706945835
    Total Energy =                       -437.7575370694583512
  @DF-RHF Final Energy:  -437.76415884403821
    Total Energy =                       -437.7641588440382066
  @DF-RHF Final Energy:  -437.75767761475311
    Total Energy =                       -437.7576776147531064
  @DF-RHF Final Energy:  -437.76428555520539
    Total Energy =                       -437.7642855552054471
  @DF-RHF Final Energy:  -437.75761973412483
    Total Energy =                       -437.7576197341248303
  @DF-RHF Final Energy:  -437.76426585555276
    Total Energy =                       -437.7642658555527078
  Multiplicity = 1
  @DF-RHF Final Energy:  -875.51542376994803
    Total Energy =                       -875.5154237699480291
	 Singles Energy            =      -0.0000000000000000 [Eh]
	 Same-Spin Energy          =      -0.1902241901674148 [Eh]
	 Opposite-Spin Energy      =      -0.6737487711650634 [Eh]
	 Correlation Energy        =      -0.8639729613324781 [Eh]
	 Total Energy              =    -876.3793967312805080 [Eh]
	 SCS Total Energy          =    -876.3873303587351984 [Eh]
    Molecular point group: c1

    Geometry (in Angstrom), charge = 0, multiplicity = 1:

       Center              X                  Y                   Z               Mass
    ------------   -----------------  -----------------  -----------------  -----------------
         C            1.902066446485    -0.838335115649    -0.569684516117    12.000000000000
         S            1.887524446485     0.972898884351    -0.438099516117    31.972071174400
         H            2.305854446485     1.038700884351     0.829036483883     1.007825032230
         H            1.161061446485    -1.284409115649     0.087451483883     1.007825032230
         H            1.648499446485    -1.068141115649    -1.601057516117     1.007825032230
         H            2.889715446485    -1.235698115649    -0.359664516117     1.007825032230
         C           -2.147541553515    -0.468098115649    -0.742725516117    12.000000000000
         S           -1.811331553515    -0.370271115649     1.037875483883    31.972071174400
         H           -0.799863553515     0.499856884351     0.932410483883     1.007825032230
         H           -1.284524553515    -0.841765115649    -1.285598516117     1.007825032230
         H           -2.445806553515     0.497491884351    -1.138049516117     1.007825032230
         H           -2.969236553515    -1.168221115649    -0.865078516117     1.007825032230

  Charge       = 0
  Multiplicity = 1
  Basis Set: AUG-CC-PVQZ
    Blend: AUG-CC-PVQZ
  Basis Set: (AUG-CC-PVQZ AUX)
    Blend: AUG-CC-PVQZ-JKFIT

    Orbital Energies [Eh]
    ---------------------

    Doubly Occupied:

       1A    -91.956367     2A    -91.946602     3A    -11.258892
       4A    -11.253234     5A     -8.958802     6A     -8.949082
       7A     -6.640456     8A     -6.639512     9A     -6.638579
      10A     -6.630736    11A     -6.629834    12A     -6.628892
      13A     -1.043413    14A     -1.034785    15A     -0.871847
      16A     -0.863715    17A     -0.613438    18A     -0.609646
      19A     -0.597629    20A     -0.586614    21A     -0.533042
      22A     -0.523956    23A     -0.465340    24A     -0.458532
      25A     -0.363249    26A     -0.354560

  @DF-RHF Final Energy:  -875.52864239759299

   => Energetics <=

    Nuclear Repulsion Energy =            199.1121513661796314
    One-Electron Energy =               -1603.1800642470661842
    Two-Electron Energy =                 528.5392704832935351
    Total Energy =                       -875.5286423975929893

  Dipole Moment: [D]
     X:     0.7086      Y:    -1.0243      Z:    -0.9792     Total:     1.5843

  Basis Set: (AUG-CC-PVQZ AUX)
    Blend: AUG-CC-PVQZ-RI
	 Reference Energy          =    -875.5286423975929893 [Eh]
	 Singles Energy            =      -0.0000000000000000 [Eh]
	 Same-Spin Energy          =      -0.2092171363042112 [Eh]
	 Opposite-Spin Energy      =      -0.7618968037653242 [Eh]
	 Correlation Energy        =      -0.9711139400695354 [Eh]
	 Total Energy              =    -876.4997563376625749 [Eh]

	 ================> DF-SCS-MP2 Energies <==================
	-----------------------------------------------------------
	 SCS Same-Spin Scale       =       0.3333333333333333 [-]
	 SCS Opposite-Spin Scale   =       1.2000000000000000 [-]
	 SCS Same-Spin Energy      =      -0.0697390454347371 [Eh]
	 SCS Opposite-Spin Energy  =      -0.9142761645183890 [Eh]
	 SCS Correlation Energy    =      -0.9840152099531261 [Eh]
	 SCS Total Energy          =    -876.5126576075460889 [Eh]
	-----------------------------------------------------------

*** Psi4 exiting successfully. Buy a developer a beer!
