                               Psi4 1.4a2.dev224

  ==> Input File <==

--------------------------------------------------------------------------
#Generated by lconvert.py for cbs job

memory 20 GB

molecule  {
0 1
  C       0.794820   -0.002740   -0.413600
  S       0.780280    1.808500   -0.282020
  H       1.198610    1.874300    0.985120
  H       0.053820   -0.448810    0.243540
  H       0.541250   -0.232540   -1.444970
  H       1.782470   -0.400100   -0.203580
--
0 1
  C      -5.705640   -0.129350    0.002060
  S      -5.369430   -0.031530    1.782670
  H      -4.357960    0.838600    1.677200
  H      -4.842620   -0.503020   -0.540810
  H      -6.003900    0.836240   -0.393260
  H      -6.527330   -0.829480   -0.120290
units angstrom
no_reorient
symmetry c1
}

set {
scf_type DF
mp2_type DF
e_convergence 7
reference rhf
}

energy('mp2/aug-cc-pv[tq]z', bsse_type='cp')
--------------------------------------------------------------------------

    Molecular point group: c1
  Charge       = 0
  Multiplicity = 1
  Basis Set: AUG-CC-PVTZ
    Blend: AUG-CC-PVTZ
  Basis Set: (AUG-CC-PVTZ AUX)
    Blend: AUG-CC-PVTZ-JKFIT
  @DF-RHF Final Energy:  -437.75749674628037
    Total Energy =                       -437.7574967462803102
  Basis Set: (AUG-CC-PVTZ AUX)
    Blend: AUG-CC-PVTZ-RI
	 Reference Energy          =    -437.7574967462803670 [Eh]
	 Singles Energy            =      -0.0000000000000000 [Eh]
	 Same-Spin Energy          =      -0.0937214032957979 [Eh]
	 Opposite-Spin Energy      =      -0.3348936657962575 [Eh]
	 Correlation Energy        =      -0.4286150690920553 [Eh]
	 Total Energy              =    -438.1861118153724419 [Eh]
	 SCS Total Energy          =    -438.1906096130011292 [Eh]
    Molecular point group: c1
  Basis Set: AUG-CC-PVQZ
    Blend: AUG-CC-PVQZ
  Basis Set: (AUG-CC-PVQZ AUX)
    Blend: AUG-CC-PVQZ-JKFIT
  @DF-RHF Final Energy:  -437.76414248300102
    Total Energy =                       -437.7641424830010237
  Basis Set: (AUG-CC-PVQZ AUX)
  @DF-RHF Final Energy:  -437.75749957273069
    Total Energy =                       -437.7574995727306373
  @DF-RHF Final Energy:  -437.76414501197110
    Total Energy =                       -437.7641450119710953
  @DF-RHF Final Energy:  -437.75762427405618
    Total Energy =                       -437.7576242740561838
  @DF-RHF Final Energy:  -437.76426864033789
    Total Energy =                       -437.7642686403378320
  @DF-RHF Final Energy:  -437.75761973419469
    Total Energy =                       -437.7576197341946909
  @DF-RHF Final Energy:  -437.76426583489797
    Total Energy =                       -437.7642658348979694
  Multiplicity = 1
  @DF-RHF Final Energy:  -875.51538447482164
    Total Energy =                       -875.5153844748217580
	 Singles Energy            =      -0.0000000000000000 [Eh]
	 Same-Spin Energy          =      -0.1875320951544493 [Eh]
	 Opposite-Spin Energy      =      -0.6699048848556194 [Eh]
	 Correlation Energy        =      -0.8574369800100686 [Eh]
	 Total Energy              =    -876.3728214548317510 [Eh]
	 SCS Total Energy          =    -876.3817810350332138 [Eh]
    Molecular point group: c1

    Geometry (in Angstrom), charge = 0, multiplicity = 1:

       Center              X                  Y                   Z               Mass
    ------------   -----------------  -----------------  -----------------  -----------------
         C            3.127491570498    -0.589911303625    -0.864036558142    12.000000000000
         S            3.112951570498     1.221328696375    -0.732456558142    31.972071174400
         H            3.531281570498     1.287128696375     0.534683441858     1.007825032230
         H            2.386491570498    -1.035981303625    -0.206896558142     1.007825032230
         H            2.873921570498    -0.819711303625    -1.895406558142     1.007825032230
         H            4.115141570498    -0.987271303625    -0.654016558142     1.007825032230
         C           -3.372968429502    -0.716521303625    -0.448376558142    12.000000000000
         S           -3.036758429502    -0.618701303625     1.332233441858    31.972071174400
         H           -2.025288429502     0.251428696375     1.226763441858     1.007825032230
         H           -2.509948429502    -1.090191303625    -0.991246558142     1.007825032230
         H           -3.671228429502     0.249068696375    -0.843696558142     1.007825032230
         H           -4.194658429502    -1.416651303625    -0.570726558142     1.007825032230

  Charge       = 0
  Multiplicity = 1
  Basis Set: AUG-CC-PVQZ
    Blend: AUG-CC-PVQZ
  Basis Set: (AUG-CC-PVQZ AUX)
    Blend: AUG-CC-PVQZ-JKFIT

    Orbital Energies [Eh]
    ---------------------

    Doubly Occupied:

       1A    -91.952784     2A    -91.950670     3A    -11.257955
       4A    -11.255222     5A     -8.955121     6A     -8.952952
       7A     -6.636772     8A     -6.635830     9A     -6.634874
      10A     -6.634589    11A     -6.633661    12A     -6.632696
      13A     -1.039979    14A     -1.037831    15A     -0.869004
      16A     -0.866256    17A     -0.610790    18A     -0.608762
      19A     -0.595861    20A     -0.592303    21A     -0.530216
      22A     -0.526719    23A     -0.461973    24A     -0.461128
      25A     -0.359399    26A     -0.356916

  @DF-RHF Final Energy:  -875.52867036777002

   => Energetics <=

    Nuclear Repulsion Energy =            166.7603706503832655
    One-Electron Energy =               -1538.4775543795485646
    Two-Electron Energy =                 496.1885133613952235
    Total Energy =                       -875.5286703677700189

  Dipole Moment: [D]
     X:     0.5649      Y:    -1.1096      Z:    -0.9853     Total:     1.5878

  Basis Set: (AUG-CC-PVQZ AUX)
    Blend: AUG-CC-PVQZ-RI
	 Reference Energy          =    -875.5286703677700189 [Eh]
	 Singles Energy            =      -0.0000000000000000 [Eh]
	 Same-Spin Energy          =      -0.2068149448300613 [Eh]
	 Opposite-Spin Energy      =      -0.7591169283002678 [Eh]
	 Correlation Energy        =      -0.9659318731303290 [Eh]
	 Total Energy              =    -876.4946022409003490 [Eh]

	 ================> DF-SCS-MP2 Energies <==================
	-----------------------------------------------------------
	 SCS Same-Spin Scale       =       0.3333333333333333 [-]
	 SCS Opposite-Spin Scale   =       1.2000000000000000 [-]
	 SCS Same-Spin Energy      =      -0.0689383149433538 [Eh]
	 SCS Opposite-Spin Energy  =      -0.9109403139603213 [Eh]
	 SCS Correlation Energy    =      -0.9798786289036751 [Eh]
	 SCS Total Energy          =    -876.5085489966736532 [Eh]
	-----------------------------------------------------------

*** Psi4 exiting successfully. Buy a developer a beer!
