                               Psi4 1.4a2.dev224

  ==> Input File <==

--------------------------------------------------------------------------
#Generated by lconvert.py for cbs job

memory 40 GB

molecule  {
0 1
  C        0.7948210    -0.0027360    -0.4136000
  S        0.7802790     1.8084980    -0.2820150
  H        1.1986090     1.8743000     0.9851210
  H        0.0538160    -0.4488100     0.2435360
  H        0.5412540    -0.2325420    -1.4449730
  H        1.7824700    -0.4000990    -0.2035800
--
0 1
  C       -2.8106840     0.4575330    -0.6933170
  S       -2.4744740     0.5553600     1.0872840
  H       -1.4630060     1.4254880     0.9818190
  H       -1.9476670     0.0838660    -1.2361900
  H       -3.1089490     1.4231230    -1.0886410
  H       -3.6323790    -0.2425900    -0.8156700
units angstrom
no_reorient
symmetry c1
}

set {
scf_type DF
mp2_type DF
e_convergence 7
reference rhf
}

energy('mp2/aug-cc-pv[tq]z', bsse_type='cp')
--------------------------------------------------------------------------

    Molecular point group: c1
  Charge       = 0
  Multiplicity = 1
  Basis Set: AUG-CC-PVTZ
    Blend: AUG-CC-PVTZ
  Basis Set: (AUG-CC-PVTZ AUX)
    Blend: AUG-CC-PVTZ-JKFIT
  @DF-RHF Final Energy:  -437.75749683331526
    Total Energy =                       -437.7574968333152583
  Basis Set: (AUG-CC-PVTZ AUX)
    Blend: AUG-CC-PVTZ-RI
	 Reference Energy          =    -437.7574968333152583 [Eh]
	 Singles Energy            =      -0.0000000000000000 [Eh]
	 Same-Spin Energy          =      -0.0937214438993185 [Eh]
	 Opposite-Spin Energy      =      -0.3348936048899265 [Eh]
	 Correlation Energy        =      -0.4286150487892449 [Eh]
	 Total Energy              =    -438.1861118821045125 [Eh]
	 SCS Total Energy          =    -438.1906096404829327 [Eh]
    Molecular point group: c1
  Basis Set: AUG-CC-PVQZ
    Blend: AUG-CC-PVQZ
  Basis Set: (AUG-CC-PVQZ AUX)
    Blend: AUG-CC-PVQZ-JKFIT
  @DF-RHF Final Energy:  -437.76414260117201
    Total Energy =                       -437.7641426011720114
  Basis Set: (AUG-CC-PVQZ AUX)
  @DF-RHF Final Energy:  -437.75755546705608
    Total Energy =                       -437.7575554670560791
  @DF-RHF Final Energy:  -437.76416584507348
    Total Energy =                       -437.7641658450734781
  @DF-RHF Final Energy:  -437.75769559993586
    Total Energy =                       -437.7576955999359143
  @DF-RHF Final Energy:  -437.76429248675913
    Total Energy =                       -437.7642924867591319
  @DF-RHF Final Energy:  -437.75761973410334
    Total Energy =                       -437.7576197341032866
  @DF-RHF Final Energy:  -437.76426585573182
    Total Energy =                       -437.7642658557317645
  Multiplicity = 1
  @DF-RHF Final Energy:  -875.51102223125258
    Total Energy =                       -875.5110222312525821
	 Singles Energy            =      -0.0000000000000000 [Eh]
	 Same-Spin Energy          =      -0.1928064343325046 [Eh]
	 Opposite-Spin Energy      =      -0.6770114127400653 [Eh]
	 Correlation Energy        =      -0.8698178470725699 [Eh]
	 Total Energy              =    -876.3808400783251500 [Eh]
	 SCS Total Energy          =    -876.3877047379847909 [Eh]
    Molecular point group: c1

    Geometry (in Angstrom), charge = 0, multiplicity = 1:

       Center              X                  Y                   Z               Mass
    ------------   -----------------  -----------------  -----------------  -----------------
         C            1.680014946485    -0.883351115649    -0.516346516117    12.000000000000
         S            1.665472946485     0.927882884351    -0.384761516117    31.972071174400
         H            2.083802946485     0.993684884351     0.882374483883     1.007825032230
         H            0.939009946485    -1.329425115649     0.140789483883     1.007825032230
         H            1.426447946485    -1.113157115649    -1.547719516117     1.007825032230
         H            2.667663946485    -1.280714115649    -0.306326516117     1.007825032230
         C           -1.925490053515    -0.423082115649    -0.796063516117    12.000000000000
         S           -1.589280053515    -0.325255115649     0.984537483883    31.972071174400
         H           -0.577812053515     0.544872884351     0.879072483883     1.007825032230
         H           -1.062473053515    -0.796749115649    -1.338936516117     1.007825032230
         H           -2.223755053515     0.542507884351    -1.191387516117     1.007825032230
         H           -2.747185053515    -1.123205115649    -0.918416516117     1.007825032230

  Charge       = 0
  Multiplicity = 1
  Basis Set: AUG-CC-PVQZ
    Blend: AUG-CC-PVQZ
  Basis Set: (AUG-CC-PVQZ AUX)
    Blend: AUG-CC-PVQZ-JKFIT

    Orbital Energies [Eh]
    ---------------------

    Doubly Occupied:

       1A    -91.957650     2A    -91.942290     3A    -11.258298
       4A    -11.251857     5A     -8.960322     6A     -8.945119
       7A     -6.641957     8A     -6.641009     9A     -6.640117
      10A     -6.626775    11A     -6.625905    12A     -6.624978
      13A     -1.046914    14A     -1.031599    15A     -0.873898
      16A     -0.862041    17A     -0.618128    18A     -0.612273
      19A     -0.597402    20A     -0.579611    21A     -0.534421
      22A     -0.522837    23A     -0.467097    24A     -0.457668
      25A     -0.363288    26A     -0.352177

  @DF-RHF Final Energy:  -875.52421136595842

   => Energetics <=

    Nuclear Repulsion Energy =            209.3307671801826189
    One-Electron Energy =               -1623.6386742419604161
    Two-Electron Energy =                 538.7836956958193468
    Total Energy =                       -875.5242113659584220

  Dipole Moment: [D]
     X:     0.8120      Y:    -0.9690      Z:    -0.9820     Total:     1.6009

  Basis Set: (AUG-CC-PVQZ AUX)
    Blend: AUG-CC-PVQZ-RI
	 Reference Energy          =    -875.5242113659584220 [Eh]
	 Singles Energy            =      -0.0000000000000000 [Eh]
	 Same-Spin Energy          =      -0.2116843837797754 [Eh]
	 Opposite-Spin Energy      =      -0.7647072952430874 [Eh]
	 Correlation Energy        =      -0.9763916790228628 [Eh]
	 Total Energy              =    -876.5006030449812897 [Eh]

	 ================> DF-SCS-MP2 Energies <==================
	-----------------------------------------------------------
	 SCS Same-Spin Scale       =       0.3333333333333333 [-]
	 SCS Opposite-Spin Scale   =       1.2000000000000000 [-]
	 SCS Same-Spin Energy      =      -0.0705614612599251 [Eh]
	 SCS Opposite-Spin Energy  =      -0.9176487542917049 [Eh]
	 SCS Correlation Energy    =      -0.9882102155516300 [Eh]
	 SCS Total Energy          =    -876.5124215815100115 [Eh]
	-----------------------------------------------------------

*** Psi4 exiting successfully. Buy a developer a beer!
