                               Psi4 1.4a2.dev224

  ==> Input File <==

--------------------------------------------------------------------------
#Generated by lconvert.py for cbs job

memory 20 GB

molecule  {
0 1
  C       0.794820   -0.002740   -0.413600
  S       0.780280    1.808500   -0.282020
  H       1.198610    1.874300    0.985120
  H       0.053820   -0.448810    0.243540
  H       0.541250   -0.232540   -1.444970
  H       1.782470   -0.400100   -0.203580
--
0 1
  C      -4.015680    0.213250   -0.403870
  S      -3.679470    0.311070    1.376730
  H      -2.668000    1.181200    1.271270
  H      -3.152660   -0.160420   -0.946740
  H      -4.313940    1.178840   -0.799190
  H      -4.837370   -0.486880   -0.526220
units angstrom
no_reorient
symmetry c1
}

set {
scf_type DF
mp2_type DF
e_convergence 7
reference rhf
}

energy('mp2/aug-cc-pv[tq]z', bsse_type='cp')
--------------------------------------------------------------------------

    Molecular point group: c1
  Charge       = 0
  Multiplicity = 1
  Basis Set: AUG-CC-PVTZ
    Blend: AUG-CC-PVTZ
  Basis Set: (AUG-CC-PVTZ AUX)
    Blend: AUG-CC-PVTZ-JKFIT
  @DF-RHF Final Energy:  -437.75749681915249
    Total Energy =                       -437.7574968191524931
  Basis Set: (AUG-CC-PVTZ AUX)
    Blend: AUG-CC-PVTZ-RI
	 Reference Energy          =    -437.7574968191524931 [Eh]
	 Singles Energy            =      -0.0000000000000000 [Eh]
	 Same-Spin Energy          =      -0.0937214542607212 [Eh]
	 Opposite-Spin Energy      =      -0.3348936116220036 [Eh]
	 Correlation Energy        =      -0.4286150658827248 [Eh]
	 Total Energy              =    -438.1861118850352455 [Eh]
	 SCS Total Energy          =    -438.1906096378524467 [Eh]
    Molecular point group: c1
  Basis Set: AUG-CC-PVQZ
    Blend: AUG-CC-PVQZ
  Basis Set: (AUG-CC-PVQZ AUX)
    Blend: AUG-CC-PVQZ-JKFIT
  @DF-RHF Final Energy:  -437.76414258488199
    Total Energy =                       -437.7641425848820518
  Basis Set: (AUG-CC-PVQZ AUX)
  @DF-RHF Final Energy:  -437.75751786467998
    Total Energy =                       -437.7575178646799827
  @DF-RHF Final Energy:  -437.76415230324557
    Total Energy =                       -437.7641523032455098
  @DF-RHF Final Energy:  -437.75765120193699
    Total Energy =                       -437.7576512019369375
  @DF-RHF Final Energy:  -437.76427673738527
    Total Energy =                       -437.7642767373852735
  @DF-RHF Final Energy:  -437.75761973406031
    Total Energy =                       -437.7576197340602562
  @DF-RHF Final Energy:  -437.76426583508947
    Total Energy =                       -437.7642658350894180
  Multiplicity = 1
  @DF-RHF Final Energy:  -875.51599130330578
    Total Energy =                       -875.5159913033057819
	 Singles Energy            =      -0.0000000000000000 [Eh]
	 Same-Spin Energy          =      -0.1883772855146414 [Eh]
	 Opposite-Spin Energy      =      -0.6712167070442605 [Eh]
	 Correlation Energy        =      -0.8595939925589019 [Eh]
	 Total Energy              =    -876.3755852958646528 [Eh]
	 SCS Total Energy          =    -876.3842437802637733 [Eh]
    Molecular point group: c1

    Geometry (in Angstrom), charge = 0, multiplicity = 1:

       Center              X                  Y                   Z               Mass
    ------------   -----------------  -----------------  -----------------  -----------------
         C            2.282511570498    -0.761211303625    -0.661068227952    12.000000000000
         S            2.267971570498     1.050028696375    -0.529488227952    31.972071174400
         H            2.686301570498     1.115828696375     0.737651772048     1.007825032230
         H            1.541511570498    -1.207281303625    -0.003928227952     1.007825032230
         H            2.028941570498    -0.991011303625    -1.692438227952     1.007825032230
         H            3.270161570498    -1.158571303625    -0.451048227952     1.007825032230
         C           -2.527988429502    -0.545221303625    -0.651338227952    12.000000000000
         S           -2.191778429502    -0.447401303625     1.129261772048    31.972071174400
         H           -1.180308429502     0.422728696375     1.023801772048     1.007825032230
         H           -1.664968429502    -0.918891303625    -1.194208227952     1.007825032230
         H           -2.826248429502     0.420368696375    -1.046658227952     1.007825032230
         H           -3.349678429502    -1.245351303625    -0.773688227952     1.007825032230

  Charge       = 0
  Multiplicity = 1
  Basis Set: AUG-CC-PVQZ
    Blend: AUG-CC-PVQZ
  Basis Set: (AUG-CC-PVQZ AUX)
    Blend: AUG-CC-PVQZ-JKFIT

    Orbital Energies [Eh]
    ---------------------

    Doubly Occupied:

       1A    -91.954716     2A    -91.949287     3A    -11.258838
       4A    -11.254345     5A     -8.957065     6A     -8.951615
       7A     -6.638720     8A     -6.637779     9A     -6.636828
      10A     -6.633259    11A     -6.632339    12A     -6.631383
      13A     -1.041521    14A     -1.036712    15A     -0.870454
      16A     -0.865161    17A     -0.612063    18A     -0.607926
      19A     -0.596972    20A     -0.590957    21A     -0.531721
      22A     -0.525479    23A     -0.463697    24A     -0.459970
      25A     -0.361510    26A     -0.356024

  @DF-RHF Final Energy:  -875.52923964847594

   => Energetics <=

    Nuclear Repulsion Energy =            185.6948413386745074
    One-Electron Energy =               -1576.3354732148422954
    Two-Electron Energy =                 515.1113922276919084
    Total Energy =                       -875.5292396484759365

  Dipole Moment: [D]
     X:     0.6264      Y:    -1.0731      Z:    -0.9821     Total:     1.5838

  Basis Set: (AUG-CC-PVQZ AUX)
    Blend: AUG-CC-PVQZ-RI
	 Reference Energy          =    -875.5292396484759365 [Eh]
	 Singles Energy            =      -0.0000000000000000 [Eh]
	 Same-Spin Energy          =      -0.2075308098578962 [Eh]
	 Opposite-Spin Energy      =      -0.7599640840391262 [Eh]
	 Correlation Energy        =      -0.9674948938970224 [Eh]
	 Total Energy              =    -876.4967345423729057 [Eh]

	 ================> DF-SCS-MP2 Energies <==================
	-----------------------------------------------------------
	 SCS Same-Spin Scale       =       0.3333333333333333 [-]
	 SCS Opposite-Spin Scale   =       1.2000000000000000 [-]
	 SCS Same-Spin Energy      =      -0.0691769366192987 [Eh]
	 SCS Opposite-Spin Energy  =      -0.9119569008469514 [Eh]
	 SCS Correlation Energy    =      -0.9811338374662500 [Eh]
	 SCS Total Energy          =    -876.5103734859421820 [Eh]
	-----------------------------------------------------------

*** Psi4 exiting successfully. Buy a developer a beer!
