                               Psi4 1.4a2.dev224

  ==> Input File <==

--------------------------------------------------------------------------
#Generated by lconvert.py for cbs job

memory 40 GB

molecule  {
0 1
  C        0.7948210    -0.0027360    -0.4136000
  S        0.7802790     1.8084980    -0.2820150
  H        1.1986090     1.8743000     0.9851210
  H        0.0538160    -0.4488100     0.2435360
  H        0.5412540    -0.2325420    -1.4449730
  H        1.7824700    -0.4000990    -0.2035800
--
0 1
  C       -3.4523590     0.3274470    -0.5391830
  S       -3.1161490     0.4252740     1.2414180
  H       -2.1046810     1.2954020     1.1359530
  H       -2.5893420    -0.0462200    -1.0820560
  H       -3.7506240     1.2930370    -0.9345070
  H       -4.2740540    -0.3726760    -0.6615360
units angstrom
no_reorient
symmetry c1
}

set {
scf_type DF
mp2_type DF
e_convergence 7
reference rhf
}

energy('mp2/aug-cc-pv[tq]z', bsse_type='cp')
--------------------------------------------------------------------------

    Molecular point group: c1
  Charge       = 0
  Multiplicity = 1
  Basis Set: AUG-CC-PVTZ
    Blend: AUG-CC-PVTZ
  Basis Set: (AUG-CC-PVTZ AUX)
    Blend: AUG-CC-PVTZ-JKFIT
  @DF-RHF Final Energy:  -437.75749683325466
    Total Energy =                       -437.7574968332546632
  Basis Set: (AUG-CC-PVTZ AUX)
    Blend: AUG-CC-PVTZ-RI
	 Reference Energy          =    -437.7574968332546632 [Eh]
	 Singles Energy            =      -0.0000000000000000 [Eh]
	 Same-Spin Energy          =      -0.0937214438994143 [Eh]
	 Opposite-Spin Energy      =      -0.3348936048903950 [Eh]
	 Correlation Energy        =      -0.4286150487898093 [Eh]
	 Total Energy              =    -438.1861118820444858 [Eh]
	 SCS Total Energy          =    -438.1906096404229629 [Eh]
    Molecular point group: c1
  Basis Set: AUG-CC-PVQZ
    Blend: AUG-CC-PVQZ
  Basis Set: (AUG-CC-PVQZ AUX)
    Blend: AUG-CC-PVQZ-JKFIT
  @DF-RHF Final Energy:  -437.76414260127751
    Total Energy =                       -437.7641426012775128
  Basis Set: (AUG-CC-PVQZ AUX)
  @DF-RHF Final Energy:  -437.75753125083872
    Total Energy =                       -437.7575312508387242
  @DF-RHF Final Energy:  -437.76415681026845
    Total Energy =                       -437.7641568102684460
  @DF-RHF Final Energy:  -437.75767057918222
    Total Energy =                       -437.7576705791822178
  @DF-RHF Final Energy:  -437.76428248509382
    Total Energy =                       -437.7642824850938155
  @DF-RHF Final Energy:  -437.75761973417815
    Total Energy =                       -437.7576197341781494
  @DF-RHF Final Energy:  -437.76426585567509
    Total Energy =                       -437.7642658556751485
  Multiplicity = 1
  @DF-RHF Final Energy:  -875.51590678730975
    Total Energy =                       -875.5159067873097456
	 Singles Energy            =      -0.0000000000000000 [Eh]
	 Same-Spin Energy          =      -0.1895283063451834 [Eh]
	 Opposite-Spin Energy      =      -0.6728198012288459 [Eh]
	 Correlation Energy        =      -0.8623481075740292 [Eh]
	 Total Energy              =    -876.3782548948837530 [Eh]
	 SCS Total Energy          =    -876.3864666508993650 [Eh]
    Molecular point group: c1

    Geometry (in Angstrom), charge = 0, multiplicity = 1:

       Center              X                  Y                   Z               Mass
    ------------   -----------------  -----------------  -----------------  -----------------
         C            2.000852446485    -0.818308115649    -0.593413516117    12.000000000000
         S            1.986310446485     0.992925884351    -0.461828516117    31.972071174400
         H            2.404640446485     1.058727884351     0.805307483883     1.007825032230
         H            1.259847446485    -1.264382115649     0.063722483883     1.007825032230
         H            1.747285446485    -1.048114115649    -1.624786516117     1.007825032230
         H            2.988501446485    -1.215671115649    -0.383393516117     1.007825032230
         C           -2.246327553515    -0.488125115649    -0.718996516117    12.000000000000
         S           -1.910117553515    -0.390298115649     1.061604483883    31.972071174400
         H           -0.898649553515     0.479829884351     0.956139483883     1.007825032230
         H           -1.383310553515    -0.861792115649    -1.261869516117     1.007825032230
         H           -2.544592553515     0.477464884351    -1.114320516117     1.007825032230
         H           -3.068022553515    -1.188248115649    -0.841349516117     1.007825032230

  Charge       = 0
  Multiplicity = 1
  Basis Set: AUG-CC-PVQZ
    Blend: AUG-CC-PVQZ
  Basis Set: (AUG-CC-PVQZ AUX)
    Blend: AUG-CC-PVQZ-JKFIT

    Orbital Energies [Eh]
    ---------------------

    Doubly Occupied:

       1A    -91.955881     2A    -91.947648     3A    -11.258961
       4A    -11.253621     5A     -8.958274     6A     -8.950061
       7A     -6.639930     8A     -6.638987     9A     -6.638046
      10A     -6.631712    11A     -6.630802    12A     -6.629856
      13A     -1.042681    14A     -1.035535    15A     -0.871366
      16A     -0.864212    17A     -0.612867    18A     -0.608681
      19A     -0.597538    20A     -0.588417    21A     -0.532624
      22A     -0.524440    23A     -0.464809    24A     -0.458980
      25A     -0.362802    26A     -0.355120

  @DF-RHF Final Energy:  -875.52913342072281

   => Energetics <=

    Nuclear Repulsion Energy =            195.1970643798855747
    One-Electron Energy =               -1595.3446767048853872
    Two-Electron Energy =                 524.6184789042769125
    Total Energy =                       -875.5291334207228147

  Dipole Moment: [D]
     X:     0.6797      Y:    -1.0411      Z:    -0.9798     Total:     1.5830

  Basis Set: (AUG-CC-PVQZ AUX)
    Blend: AUG-CC-PVQZ-RI
	 Reference Energy          =    -875.5291334207228147 [Eh]
	 Singles Energy            =      -0.0000000000000000 [Eh]
	 Same-Spin Energy          =      -0.2085690349034306 [Eh]
	 Opposite-Spin Energy      =      -0.7611583194131446 [Eh]
	 Correlation Energy        =      -0.9697273543165752 [Eh]
	 Total Energy              =    -876.4988607750393612 [Eh]

	 ================> DF-SCS-MP2 Energies <==================
	-----------------------------------------------------------
	 SCS Same-Spin Scale       =       0.3333333333333333 [-]
	 SCS Opposite-Spin Scale   =       1.2000000000000000 [-]
	 SCS Same-Spin Energy      =      -0.0695230116344769 [Eh]
	 SCS Opposite-Spin Energy  =      -0.9133899832957735 [Eh]
	 SCS Correlation Energy    =      -0.9829129949302503 [Eh]
	 SCS Total Energy          =    -876.5120464156531170 [Eh]
	-----------------------------------------------------------

*** Psi4 exiting successfully. Buy a developer a beer!
