                               Psi4 1.4a2.dev224

  ==> Input File <==

--------------------------------------------------------------------------
#Generated by lconvert.py for cbs job

memory 40 GB

molecule  {
0 1
  C        0.7948210    -0.0027360    -0.4136000
  S        0.7802790     1.8084980    -0.2820150
  H        1.1986090     1.8743000     0.9851210
  H        0.0538160    -0.4488100     0.2435360
  H        0.5412540    -0.2325420    -1.4449730
  H        1.7824700    -0.4000990    -0.2035800
--
0 1
  C       -2.4009550     0.5405960    -0.7917360
  S       -2.0647450     0.6384230     0.9888650
  H       -1.0532770     1.5085510     0.8834000
  H       -1.5379380     0.1669290    -1.3346090
  H       -2.6992200     1.5061860    -1.1870600
  H       -3.2226500    -0.1595270    -0.9140890
units angstrom
no_reorient
symmetry c1
}

set {
scf_type DF
mp2_type DF
e_convergence 7
reference rhf
}

energy('mp2/aug-cc-pv[tq]z', bsse_type='cp')
--------------------------------------------------------------------------

    Molecular point group: c1
  Charge       = 0
  Multiplicity = 1
  Basis Set: AUG-CC-PVTZ
    Blend: AUG-CC-PVTZ
  Basis Set: (AUG-CC-PVTZ AUX)
    Blend: AUG-CC-PVTZ-JKFIT
  @DF-RHF Final Energy:  -437.75749683323176
    Total Energy =                       -437.7574968332316985
  Basis Set: (AUG-CC-PVTZ AUX)
    Blend: AUG-CC-PVTZ-RI
	 Reference Energy          =    -437.7574968332317553 [Eh]
	 Singles Energy            =      -0.0000000000000000 [Eh]
	 Same-Spin Energy          =      -0.0937214438997241 [Eh]
	 Opposite-Spin Energy      =      -0.3348936048916342 [Eh]
	 Correlation Energy        =      -0.4286150487913583 [Eh]
	 Total Energy              =    -438.1861118820231127 [Eh]
	 SCS Total Energy          =    -438.1906096404016466 [Eh]
    Molecular point group: c1
  Basis Set: AUG-CC-PVQZ
    Blend: AUG-CC-PVQZ
  Basis Set: (AUG-CC-PVQZ AUX)
    Blend: AUG-CC-PVQZ-JKFIT
  @DF-RHF Final Energy:  -437.76414260122539
    Total Energy =                       -437.7641426012253305
  Basis Set: (AUG-CC-PVQZ AUX)
  @DF-RHF Final Energy:  -437.75758064148954
    Total Energy =                       -437.7575806414895396
  @DF-RHF Final Energy:  -437.76417423940325
    Total Energy =                       -437.7641742394033031
  @DF-RHF Final Energy:  -437.75771764140524
    Total Energy =                       -437.7577176414052360
  @DF-RHF Final Energy:  -437.76430151101601
    Total Energy =                       -437.7643015110160150
  @DF-RHF Final Energy:  -437.75761973417559
    Total Energy =                       -437.7576197341755915
  @DF-RHF Final Energy:  -437.76426585563939
    Total Energy =                       -437.7642658556394508
  Multiplicity = 1
  @DF-RHF Final Energy:  -875.49433006089851
    Total Energy =                       -875.4943300608985055
	 Singles Energy            =      -0.0000000000000000 [Eh]
	 Same-Spin Energy          =      -0.1974013108048470 [Eh]
	 Opposite-Spin Energy      =      -0.6825287281608918 [Eh]
	 Correlation Energy        =      -0.8799300389657388 [Eh]
	 Total Energy              =    -876.3742600998642729 [Eh]
	 SCS Total Energy          =    -876.3791649716265511 [Eh]
    Molecular point group: c1

    Geometry (in Angstrom), charge = 0, multiplicity = 1:

       Center              X                  Y                   Z               Mass
    ------------   -----------------  -----------------  -----------------  -----------------
         C            1.475150446485    -0.924882615649    -0.467137016117    12.000000000000
         S            1.460608446485     0.886351384351    -0.335552016117    31.972071174400
         H            1.878938446485     0.952153384351     0.931583983883     1.007825032230
         H            0.734145446485    -1.370956615649     0.189998983883     1.007825032230
         H            1.221583446485    -1.154688615649    -1.498510016117     1.007825032230
         H            2.462799446485    -1.322245615649    -0.257117016117     1.007825032230
         C           -1.720625553515    -0.381550615649    -0.845273016117    12.000000000000
         S           -1.384415553515    -0.283723615649     0.935327983883    31.972071174400
         H           -0.372947553515     0.586404384351     0.829862983883     1.007825032230
         H           -0.857608553515    -0.755217615649    -1.388146016117     1.007825032230
         H           -2.018890553515     0.584039384351    -1.240597016117     1.007825032230
         H           -2.542320553515    -1.081673615649    -0.967626016117     1.007825032230

  Charge       = 0
  Multiplicity = 1
  Basis Set: AUG-CC-PVQZ
    Blend: AUG-CC-PVQZ
  Basis Set: (AUG-CC-PVQZ AUX)
    Blend: AUG-CC-PVQZ-JKFIT

    Orbital Energies [Eh]
    ---------------------

    Doubly Occupied:

       1A    -91.959521     2A    -91.933554     3A    -11.256862
       4A    -11.249374     5A     -8.962826     6A     -8.937298
       7A     -6.644376     8A     -6.643427     9A     -6.642658
      10A     -6.618922    11A     -6.618133    12A     -6.617220
      13A     -1.056025    14A     -1.025153    15A     -0.879512
      16A     -0.859338    17A     -0.629579    18A     -0.614840
      19A     -0.597301    20A     -0.568581    21A     -0.537013
      22A     -0.522930    23A     -0.470368    24A     -0.458480
      25A     -0.358199    26A     -0.346745

  @DF-RHF Final Energy:  -875.50748362778745

   => Energetics <=

    Nuclear Repulsion Energy =            220.9629312083372383
    One-Electron Energy =               -1646.9243342650820523
    Two-Electron Energy =                 550.4539194289573061
    Total Energy =                       -875.5074836277874510

  Dipole Moment: [D]
     X:     0.9976      Y:    -0.8865      Z:    -1.0051     Total:     1.6708

  Basis Set: (AUG-CC-PVQZ AUX)
    Blend: AUG-CC-PVQZ-RI
	 Reference Energy          =    -875.5074836277874510 [Eh]
	 Singles Energy            =      -0.0000000000000000 [Eh]
	 Same-Spin Energy          =      -0.2161402768140145 [Eh]
	 Opposite-Spin Energy      =      -0.7697698061261582 [Eh]
	 Correlation Energy        =      -0.9859100829401727 [Eh]
	 Total Energy              =    -876.4933937107276734 [Eh]

	 ================> DF-SCS-MP2 Energies <==================
	-----------------------------------------------------------
	 SCS Same-Spin Scale       =       0.3333333333333333 [-]
	 SCS Opposite-Spin Scale   =       1.2000000000000000 [-]
	 SCS Same-Spin Energy      =      -0.0720467589380048 [Eh]
	 SCS Opposite-Spin Energy  =      -0.9237237673513898 [Eh]
	 SCS Correlation Energy    =      -0.9957705262893947 [Eh]
	 SCS Total Energy          =    -876.5032541540768989 [Eh]
	-----------------------------------------------------------

*** Psi4 exiting successfully. Buy a developer a beer!
