                               Psi4 1.4a2.dev224

  ==> Input File <==

--------------------------------------------------------------------------
#Generated by lconvert.py for cbs job

memory 40 GB

molecule  {
0 1
  C        0.7948210    -0.0027360    -0.4136000
  S        0.7802790     1.8084980    -0.2820150
  H        1.1986090     1.8743000     0.9851210
  H        0.0538160    -0.4488100     0.2435360
  H        0.5412540    -0.2325420    -1.4449730
  H        1.7824700    -0.4000990    -0.2035800
--
0 1
  C       -3.0411990     0.4108010    -0.6379460
  S       -2.7049890     0.5086280     1.1426550
  H       -1.6935210     1.3787560     1.0371900
  H       -2.1781820     0.0371340    -1.1808190
  H       -3.3394640     1.3763910    -1.0332700
  H       -3.8628940    -0.2893220    -0.7602990
units angstrom
no_reorient
symmetry c1
}

set {
scf_type DF
mp2_type DF
e_convergence 7
reference rhf
}

energy('mp2/aug-cc-pv[tq]z', bsse_type='cp')
--------------------------------------------------------------------------

    Molecular point group: c1
  Charge       = 0
  Multiplicity = 1
  Basis Set: AUG-CC-PVTZ
    Blend: AUG-CC-PVTZ
  Basis Set: (AUG-CC-PVTZ AUX)
    Blend: AUG-CC-PVTZ-JKFIT
  @DF-RHF Final Energy:  -437.75749683321317
    Total Energy =                       -437.7574968332132244
  Basis Set: (AUG-CC-PVTZ AUX)
    Blend: AUG-CC-PVTZ-RI
	 Reference Energy          =    -437.7574968332131675 [Eh]
	 Singles Energy            =      -0.0000000000000000 [Eh]
	 Same-Spin Energy          =      -0.0937214438988742 [Eh]
	 Opposite-Spin Energy      =      -0.3348936048887404 [Eh]
	 Correlation Energy        =      -0.4286150487876146 [Eh]
	 Total Energy              =    -438.1861118820007732 [Eh]
	 SCS Total Energy          =    -438.1906096403793072 [Eh]
    Molecular point group: c1
  Basis Set: AUG-CC-PVQZ
    Blend: AUG-CC-PVQZ
  Basis Set: (AUG-CC-PVQZ AUX)
    Blend: AUG-CC-PVQZ-JKFIT
  @DF-RHF Final Energy:  -437.76414260124574
    Total Energy =                       -437.7641426012457941
  Basis Set: (AUG-CC-PVQZ AUX)
  @DF-RHF Final Energy:  -437.75754491622217
    Total Energy =                       -437.7575449162221730
  @DF-RHF Final Energy:  -437.76416177301371
    Total Energy =                       -437.7641617730137114
  @DF-RHF Final Energy:  -437.75768593196125
    Total Energy =                       -437.7576859319612481
  @DF-RHF Final Energy:  -437.76428896614118
    Total Energy =                       -437.7642889661411800
  @DF-RHF Final Energy:  -437.75761973409732
    Total Energy =                       -437.7576197340973749
  @DF-RHF Final Energy:  -437.76426585554469
    Total Energy =                       -437.7642658555446928
  Multiplicity = 1
  @DF-RHF Final Energy:  -875.51415168072651
    Total Energy =                       -875.5141516807265134
	 Singles Energy            =      -0.0000000000000000 [Eh]
	 Same-Spin Energy          =      -0.1912496886495555 [Eh]
	 Opposite-Spin Energy      =      -0.6750718885860723 [Eh]
	 Correlation Energy        =      -0.8663215772356277 [Eh]
	 Total Energy              =    -876.3804732579621941 [Eh]
	 SCS Total Energy          =    -876.3879878432462647 [Eh]
    Molecular point group: c1

    Geometry (in Angstrom), charge = 0, multiplicity = 1:

       Center              X                  Y                   Z               Mass
    ------------   -----------------  -----------------  -----------------  -----------------
         C            1.795272446485    -0.859985115649    -0.544032016117    12.000000000000
         S            1.780730446485     0.951248884351    -0.412447016117    31.972071174400
         H            2.199060446485     1.017050884351     0.854688983883     1.007825032230
         H            1.054267446485    -1.306059115649     0.113103983883     1.007825032230
         H            1.541705446485    -1.089791115649    -1.575405016117     1.007825032230
         H            2.782921446485    -1.257348115649    -0.334012016117     1.007825032230
         C           -2.040747553515    -0.446448115649    -0.768378016117    12.000000000000
         S           -1.704537553515    -0.348621115649     1.012222983883    31.972071174400
         H           -0.693069553515     0.521506884351     0.906757983883     1.007825032230
         H           -1.177730553515    -0.820115115649    -1.311251016117     1.007825032230
         H           -2.339012553515     0.519141884351    -1.163702016117     1.007825032230
         H           -2.862442553515    -1.146571115649    -0.890731016117     1.007825032230

  Charge       = 0
  Multiplicity = 1
  Basis Set: AUG-CC-PVQZ
    Blend: AUG-CC-PVQZ
  Basis Set: (AUG-CC-PVQZ AUX)
    Blend: AUG-CC-PVQZ-JKFIT

    Orbital Energies [Eh]
    ---------------------

    Doubly Occupied:

       1A    -91.956942     2A    -91.944963     3A    -11.258701
       4A    -11.252683     5A     -8.959457     6A     -8.947564
       7A     -6.641107     8A     -6.640161     9A     -6.639241
      10A     -6.629221    11A     -6.628331    12A     -6.627395
      13A     -1.044649    14A     -1.033588    15A     -0.872589
      16A     -0.863028    17A     -0.614793    18A     -0.611014
      19A     -0.597584    20A     -0.583828    21A     -0.533602
      22A     -0.523392    23A     -0.466055    24A     -0.458045
      25A     -0.363553    26A     -0.353675

  @DF-RHF Final Energy:  -875.52735853705883

   => Energetics <=

    Nuclear Repulsion Energy =            203.7594351039164167
    One-Electron Energy =               -1612.4832482697968317
    Two-Electron Energy =                 533.1964546288216980
    Total Energy =                       -875.5273585370588307

  Dipole Moment: [D]
     X:     0.7499      Y:    -1.0013      Z:    -0.9793     Total:     1.5887

  Basis Set: (AUG-CC-PVQZ AUX)
    Blend: AUG-CC-PVQZ-RI
	 Reference Energy          =    -875.5273585370588307 [Eh]
	 Singles Energy            =      -0.0000000000000000 [Eh]
	 Same-Spin Energy          =      -0.2101901099585448 [Eh]
	 Opposite-Spin Energy      =      -0.7630045809535178 [Eh]
	 Correlation Energy        =      -0.9731946909120626 [Eh]
	 Total Energy              =    -876.5005532279708405 [Eh]

	 ================> DF-SCS-MP2 Energies <==================
	-----------------------------------------------------------
	 SCS Same-Spin Scale       =       0.3333333333333333 [-]
	 SCS Opposite-Spin Scale   =       1.2000000000000000 [-]
	 SCS Same-Spin Energy      =      -0.0700633699861816 [Eh]
	 SCS Opposite-Spin Energy  =      -0.9156054971442212 [Eh]
	 SCS Correlation Energy    =      -0.9856688671304028 [Eh]
	 SCS Total Energy          =    -876.5130274041891880 [Eh]
	-----------------------------------------------------------

*** Psi4 exiting successfully. Buy a developer a beer!
