                               Psi4 1.4a2.dev224

  ==> Input File <==

--------------------------------------------------------------------------
#Generated by lconvert.py for cbs job

memory 40 GB

molecule  {
0 1
  C       -3.5467760    -0.4819310     0.5915200
  O       -1.6276610     0.1580460    -1.1324060
  S       -2.2639250     0.6910770     0.1151190
  C       -1.1529260     0.2984410     1.4789870
  H       -3.9595760    -0.1939850     1.5555670
  H       -4.3129890    -0.4388730    -0.1780640
  H       -3.1036950    -1.4757200     0.6166030
  H       -1.6275790     0.5662040     2.4201080
  H       -0.9163380    -0.7626630     1.4274980
  H       -0.2507730     0.8853770     1.3279120
--
0 1
  O       -3.7708980     2.4121680     2.6665430
  H       -3.5973550     2.8389950     1.8232490
  H       -4.1890240     3.0978310     3.1915880
units angstrom
no_reorient
symmetry c1
}

set {
scf_type DF
mp2_type DF
e_convergence 7
reference rhf
}

energy('mp2/aug-cc-pv[tq]z', bsse_type='cp')
--------------------------------------------------------------------------

    Molecular point group: c1
  Charge       = 0
  Multiplicity = 1
  Basis Set: AUG-CC-PVTZ
    Blend: AUG-CC-PVTZ
  Basis Set: (AUG-CC-PVTZ AUX)
    Blend: AUG-CC-PVTZ-JKFIT
  @DF-RHF Final Energy:   -76.06035176045255
    Total Energy =                        -76.0603517604525479
  Basis Set: (AUG-CC-PVTZ AUX)
    Blend: AUG-CC-PVTZ-RI
	 Reference Energy          =     -76.0603517604525479 [Eh]
	 Singles Energy            =      -0.0000000000000000 [Eh]
	 Same-Spin Energy          =      -0.0683974052503969 [Eh]
	 Opposite-Spin Energy      =      -0.2153364831421706 [Eh]
	 Correlation Energy        =      -0.2837338883925676 [Eh]
	 Total Energy              =     -76.3440856488451089 [Eh]
	 SCS Total Energy          =     -76.3415546753066252 [Eh]
    Molecular point group: c1
  Basis Set: AUG-CC-PVQZ
    Blend: AUG-CC-PVQZ
  Basis Set: (AUG-CC-PVQZ AUX)
    Blend: AUG-CC-PVQZ-JKFIT
  @DF-RHF Final Energy:   -76.06573040307823
    Total Energy =                        -76.0657304030782200
  Basis Set: (AUG-CC-PVQZ AUX)
  @DF-RHF Final Energy:   -76.06042025244413
    Total Energy =                        -76.0604202524441320
  @DF-RHF Final Energy:   -76.06575952009632
    Total Energy =                        -76.0657595200963215
  @DF-RHF Final Energy:  -551.65358125735747
    Total Energy =                       -551.6535812573574731
  @DF-RHF Final Energy:  -551.67136229158939
    Total Energy =                       -551.6713622915893893
  @DF-RHF Final Energy:  -551.65348969344268
    Total Energy =                       -551.6534896934426797
  @DF-RHF Final Energy:  -551.67133634268669
    Total Energy =                       -551.6713363426865726
  Multiplicity = 1
  @DF-RHF Final Energy:  -627.71775155486534
    Total Energy =                       -627.7177515548653446
	 Singles Energy            =      -0.0000000000000000 [Eh]
	 Same-Spin Energy          =      -0.2802753984966495 [Eh]
	 Opposite-Spin Energy      =      -0.8993656938498529 [Eh]
	 Correlation Energy        =      -1.1796410923465024 [Eh]
	 Total Energy              =    -628.8973926472118592 [Eh]
	 SCS Total Energy          =    -628.8904155203173332 [Eh]
    Molecular point group: c1

    Geometry (in Angstrom), charge = 0, multiplicity = 1:

       Center              X                  Y                   Z               Mass
    ------------   -----------------  -----------------  -----------------  -----------------
         C           -1.075975010091    -1.164633321035    -0.088982075350    12.000000000000
         O            0.843139989909    -0.524656321035    -1.812908075350    15.994914619570
         S            0.206875989909     0.008374678965    -0.565383075350    31.972071174400
         C            1.317874989909    -0.384261321035     0.798484924650    12.000000000000
         H           -1.488775010091    -0.876687321035     0.875064924650     1.007825032230
         H           -1.842188010091    -1.121575321035    -0.858566075350     1.007825032230
         H           -0.632894010091    -2.158422321035    -0.063899075350     1.007825032230
         H            0.843221989909    -0.116498321035     1.739605924650     1.007825032230
         H            1.554462989909    -1.445365321035     0.746995924650     1.007825032230
         H            2.220027989909     0.202674678965     0.647409924650     1.007825032230
         O           -1.300097010091     1.729465678965     1.986040924650    15.994914619570
         H           -1.126554010091     2.156292678965     1.142746924650     1.007825032230
         H           -1.718223010091     2.415128678965     2.511085924650     1.007825032230

  Charge       = 0
  Multiplicity = 1
  Basis Set: AUG-CC-PVQZ
    Blend: AUG-CC-PVQZ
  Basis Set: (AUG-CC-PVQZ AUX)
    Blend: AUG-CC-PVQZ-JKFIT

    Orbital Energies [Eh]
    ---------------------

    Doubly Occupied:

       1A    -92.059531     2A    -20.580746     3A    -20.496069
       4A    -11.252057     5A    -11.252045     6A     -9.047184
       7A     -6.729448     8A     -6.729133     9A     -6.727853
      10A     -1.368234    11A     -1.328024    12A     -1.059592
      13A     -0.968575    14A     -0.809430    15A     -0.732141
      16A     -0.638493    17A     -0.624838    18A     -0.614175
      19A     -0.600663    20A     -0.580034    21A     -0.556717
      22A     -0.538134    23A     -0.526412    24A     -0.509470
      25A     -0.413925    26A     -0.364667

  @DF-RHF Final Energy:  -627.74086816978445

   => Energetics <=

    Nuclear Repulsion Energy =            252.6697690955425628
    One-Electron Energy =               -1366.6060896294443410
    Two-Electron Energy =                 486.1954523641173864
    Total Energy =                       -627.7408681697844486

  Dipole Moment: [D]
     X:    -2.0683      Y:     1.6326      Z:     4.1438     Total:     4.9106

  Basis Set: (AUG-CC-PVQZ AUX)
    Blend: AUG-CC-PVQZ-RI
	 Reference Energy          =    -627.7408681697844486 [Eh]
	 Singles Energy            =      -0.0000000000000000 [Eh]
	 Same-Spin Energy          =      -0.3007668636907597 [Eh]
	 Opposite-Spin Energy      =      -1.0168743871090808 [Eh]
	 Correlation Energy        =      -1.3176412507998405 [Eh]
	 Total Energy              =    -629.0585094205843006 [Eh]

	 ================> DF-SCS-MP2 Energies <==================
	-----------------------------------------------------------
	 SCS Same-Spin Scale       =       0.3333333333333333 [-]
	 SCS Opposite-Spin Scale   =       1.2000000000000000 [-]
	 SCS Same-Spin Energy      =      -0.1002556212302532 [Eh]
	 SCS Opposite-Spin Energy  =      -1.2202492645308969 [Eh]
	 SCS Correlation Energy    =      -1.3205048857611501 [Eh]
	 SCS Total Energy          =    -629.0613730555455732 [Eh]
	-----------------------------------------------------------

*** Psi4 exiting successfully. Buy a developer a beer!
