                               Psi4 1.4a2.dev224

  ==> Input File <==

--------------------------------------------------------------------------
#Generated by lconvert.py for cbs job

memory 40 GB

molecule  {
0 1
  C       -3.5467760    -0.4819310     0.5915200
  O       -1.6276610     0.1580460    -1.1324060
  S       -2.2639250     0.6910770     0.1151190
  C       -1.1529260     0.2984410     1.4789870
  H       -3.9595760    -0.1939850     1.5555670
  H       -4.3129890    -0.4388730    -0.1780640
  H       -3.1036950    -1.4757200     0.6166030
  H       -1.6275790     0.5662040     2.4201080
  H       -0.9163380    -0.7626630     1.4274980
  H       -0.2507730     0.8853770     1.3279120
--
0 1
  O       -3.5640380     2.0403930     2.4354640
  H       -3.3904950     2.4672200     1.5921700
  H       -3.9821640     2.7260560     2.9605090
units angstrom
no_reorient
symmetry c1
}

set {
scf_type DF
mp2_type DF
e_convergence 7
reference rhf
}

energy('mp2/aug-cc-pv[tq]z', bsse_type='cp')
--------------------------------------------------------------------------

    Molecular point group: c1
  Charge       = 0
  Multiplicity = 1
  Basis Set: AUG-CC-PVTZ
    Blend: AUG-CC-PVTZ
  Basis Set: (AUG-CC-PVTZ AUX)
    Blend: AUG-CC-PVTZ-JKFIT
  @DF-RHF Final Energy:   -76.06035176045758
    Total Energy =                        -76.0603517604575643
  Basis Set: (AUG-CC-PVTZ AUX)
    Blend: AUG-CC-PVTZ-RI
	 Reference Energy          =     -76.0603517604575785 [Eh]
	 Singles Energy            =      -0.0000000000000000 [Eh]
	 Same-Spin Energy          =      -0.0683974052503722 [Eh]
	 Opposite-Spin Energy      =      -0.2153364831421213 [Eh]
	 Correlation Energy        =      -0.2837338883924935 [Eh]
	 Total Energy              =     -76.3440856488500685 [Eh]
	 SCS Total Energy          =     -76.3415546753115848 [Eh]
    Molecular point group: c1
  Basis Set: AUG-CC-PVQZ
    Blend: AUG-CC-PVQZ
  Basis Set: (AUG-CC-PVQZ AUX)
    Blend: AUG-CC-PVQZ-JKFIT
  @DF-RHF Final Energy:   -76.06573040307737
    Total Energy =                        -76.0657304030773673
  Basis Set: (AUG-CC-PVQZ AUX)
  @DF-RHF Final Energy:   -76.06047283282433
    Total Energy =                        -76.0604728328243311
  @DF-RHF Final Energy:   -76.06577974704670
    Total Energy =                        -76.0657797470467045
  @DF-RHF Final Energy:  -551.65365608018385
    Total Energy =                       -551.6536560801839641
  @DF-RHF Final Energy:  -551.67138530116961
    Total Energy =                       -551.6713853011696074
  @DF-RHF Final Energy:  -551.65348969339539
    Total Energy =                       -551.6534896933953860
  @DF-RHF Final Energy:  -551.67133634210870
    Total Energy =                       -551.6713363421087024
  Multiplicity = 1
  @DF-RHF Final Energy:  -627.71384084677038
    Total Energy =                       -627.7138408467703812
	 Singles Energy            =      -0.0000000000000000 [Eh]
	 Same-Spin Energy          =      -0.2821120700108353 [Eh]
	 Opposite-Spin Energy      =      -0.9015674727922285 [Eh]
	 Correlation Energy        =      -1.1836795428030638 [Eh]
	 Total Energy              =    -628.8975203895734012 [Eh]
	 SCS Total Energy          =    -628.8897591707913080 [Eh]
    Molecular point group: c1

    Geometry (in Angstrom), charge = 0, multiplicity = 1:

       Center              X                  Y                   Z               Mass
    ------------   -----------------  -----------------  -----------------  -----------------
         C           -1.114774122656    -1.094902391547    -0.045640394346    12.000000000000
         O            0.804340877344    -0.454925391547    -1.769566394346    15.994914619570
         S            0.168076877344     0.078105608453    -0.522041394346    31.972071174400
         C            1.279075877344    -0.314530391547     0.841826605654    12.000000000000
         H           -1.527574122656    -0.806956391547     0.918406605654     1.007825032230
         H           -1.880987122656    -1.051844391547    -0.815224394346     1.007825032230
         H           -0.671693122656    -2.088691391547    -0.020557394346     1.007825032230
         H            0.804422877344    -0.046767391547     1.782947605654     1.007825032230
         H            1.515663877344    -1.375634391547     0.790337605654     1.007825032230
         H            2.181228877344     0.272405608453     0.690751605654     1.007825032230
         O           -1.132036122656     1.427421608453     1.798303605654    15.994914619570
         H           -0.958493122656     1.854248608453     0.955009605654     1.007825032230
         H           -1.550162122656     2.113084608453     2.323348605654     1.007825032230

  Charge       = 0
  Multiplicity = 1
  Basis Set: AUG-CC-PVQZ
    Blend: AUG-CC-PVQZ
  Basis Set: (AUG-CC-PVQZ AUX)
    Blend: AUG-CC-PVQZ-JKFIT

    Orbital Energies [Eh]
    ---------------------

    Doubly Occupied:

       1A    -92.058594     2A    -20.582568     3A    -20.495094
       4A    -11.248723     5A    -11.248711     6A     -9.046462
       7A     -6.728728     8A     -6.728412     9A     -6.727177
      10A     -1.373509    11A     -1.327152    12A     -1.057940
      13A     -0.966130    14A     -0.809397    15A     -0.738650
      16A     -0.638683    17A     -0.629834    18A     -0.612483
      19A     -0.594774    20A     -0.580490    21A     -0.554938
      22A     -0.538442    23A     -0.525431    24A     -0.508228
      25A     -0.412667    26A     -0.364708

  @DF-RHF Final Energy:  -627.73689601096578

   => Energetics <=

    Nuclear Repulsion Energy =            260.7440646673246647
    One-Electron Energy =               -1382.7660617348906271
    Two-Electron Energy =                 494.2851010566001833
    Total Energy =                       -627.7368960109657792

  Dipole Moment: [D]
     X:    -2.1210      Y:     1.6519      Z:     4.2690     Total:     5.0450

  Basis Set: (AUG-CC-PVQZ AUX)
    Blend: AUG-CC-PVQZ-RI
	 Reference Energy          =    -627.7368960109657792 [Eh]
	 Singles Energy            =      -0.0000000000000000 [Eh]
	 Same-Spin Energy          =      -0.3025789019036276 [Eh]
	 Opposite-Spin Energy      =      -1.0188444653463911 [Eh]
	 Correlation Energy        =      -1.3214233672500186 [Eh]
	 Total Energy              =    -629.0583193782157423 [Eh]

	 ================> DF-SCS-MP2 Energies <==================
	-----------------------------------------------------------
	 SCS Same-Spin Scale       =       0.3333333333333333 [-]
	 SCS Opposite-Spin Scale   =       1.2000000000000000 [-]
	 SCS Same-Spin Energy      =      -0.1008596339678759 [Eh]
	 SCS Opposite-Spin Energy  =      -1.2226133584156693 [Eh]
	 SCS Correlation Energy    =      -1.3234729923835451 [Eh]
	 SCS Total Energy          =    -629.0603690033493649 [Eh]
	-----------------------------------------------------------

*** Psi4 exiting successfully. Buy a developer a beer!
