                               Psi4 1.4a2.dev224

  ==> Input File <==

--------------------------------------------------------------------------
#Generated by lconvert.py for cbs job

memory 40 GB

molecule  {
0 1
  C       -3.5467760    -0.4819310     0.5915200
  O       -1.6276610     0.1580460    -1.1324060
  S       -2.2639250     0.6910770     0.1151190
  C       -1.1529260     0.2984410     1.4789870
  H       -3.9595760    -0.1939850     1.5555670
  H       -4.3129890    -0.4388730    -0.1780640
  H       -3.1036950    -1.4757200     0.6166030
  H       -1.6275790     0.5662040     2.4201080
  H       -0.9163380    -0.7626630     1.4274980
  H       -0.2507730     0.8853770     1.3279120
--
0 1
  O       -3.8373100     2.5315250     2.7407310
  H       -3.6637670     2.9583520     1.8974370
  H       -4.2554360     3.2171880     3.2657760
units angstrom
no_reorient
symmetry c1
}

set {
scf_type DF
mp2_type DF
e_convergence 7
reference rhf
}

energy('mp2/aug-cc-pv[tq]z', bsse_type='cp')
--------------------------------------------------------------------------

    Molecular point group: c1
  Charge       = 0
  Multiplicity = 1
  Basis Set: AUG-CC-PVTZ
    Blend: AUG-CC-PVTZ
  Basis Set: (AUG-CC-PVTZ AUX)
    Blend: AUG-CC-PVTZ-JKFIT
  @DF-RHF Final Energy:   -76.06035176045563
    Total Energy =                        -76.0603517604556316
  Basis Set: (AUG-CC-PVTZ AUX)
    Blend: AUG-CC-PVTZ-RI
	 Reference Energy          =     -76.0603517604556316 [Eh]
	 Singles Energy            =      -0.0000000000000000 [Eh]
	 Same-Spin Energy          =      -0.0683974052503827 [Eh]
	 Opposite-Spin Energy      =      -0.2153364831421574 [Eh]
	 Correlation Energy        =      -0.2837338883925400 [Eh]
	 Total Energy              =     -76.3440856488481785 [Eh]
	 SCS Total Energy          =     -76.3415546753096805 [Eh]
    Molecular point group: c1
  Basis Set: AUG-CC-PVQZ
    Blend: AUG-CC-PVQZ
  Basis Set: (AUG-CC-PVQZ AUX)
    Blend: AUG-CC-PVQZ-JKFIT
  @DF-RHF Final Energy:   -76.06573040308903
    Total Energy =                        -76.0657304030890344
  Basis Set: (AUG-CC-PVQZ AUX)
  @DF-RHF Final Energy:   -76.06040558087854
    Total Energy =                        -76.0604055808785375
  @DF-RHF Final Energy:   -76.06575562141101
    Total Energy =                        -76.0657556214110144
  @DF-RHF Final Energy:  -551.65356379076172
    Total Energy =                       -551.6535637907617229
  @DF-RHF Final Energy:  -551.67135712849677
    Total Energy =                       -551.6713571284967657
  @DF-RHF Final Energy:  -551.65348969341187
    Total Energy =                       -551.6534896934117569
  @DF-RHF Final Energy:  -551.67133634277695
    Total Energy =                       -551.6713363427769536
  Multiplicity = 1
  @DF-RHF Final Energy:  -627.71777433866612
    Total Energy =                       -627.7177743386662314
	 Singles Energy            =      -0.0000000000000000 [Eh]
	 Same-Spin Energy          =      -0.2799321522582865 [Eh]
	 Opposite-Spin Energy      =      -0.8989374403654680 [Eh]
	 Correlation Energy        =      -1.1788695926237545 [Eh]
	 Total Energy              =    -628.8966439312898729 [Eh]
	 SCS Total Energy          =    -628.8898099845241632 [Eh]
    Molecular point group: c1

    Geometry (in Angstrom), charge = 0, multiplicity = 1:

       Center              X                  Y                   Z               Mass
    ------------   -----------------  -----------------  -----------------  -----------------
         C           -1.063518630590    -1.187020180159    -0.102896938363    12.000000000000
         O            0.855596369410    -0.547043180159    -1.826822938363    15.994914619570
         S            0.219332369410    -0.014012180159    -0.579297938363    31.972071174400
         C            1.330331369410    -0.406648180159     0.784570061637    12.000000000000
         H           -1.476318630590    -0.899074180159     0.861150061637     1.007825032230
         H           -1.829731630590    -1.143962180159    -0.872480938363     1.007825032230
         H           -0.620437630590    -2.180809180159    -0.077813938363     1.007825032230
         H            0.855678369410    -0.138885180159     1.725691061637     1.007825032230
         H            1.566919369410    -1.467752180159     0.733081061637     1.007825032230
         H            2.232484369410     0.180287819841     0.633495061637     1.007825032230
         O           -1.354052630590     1.826435819841     2.046314061637    15.994914619570
         H           -1.180509630590     2.253262819841     1.203020061637     1.007825032230
         H           -1.772178630590     2.512098819841     2.571359061637     1.007825032230

  Charge       = 0
  Multiplicity = 1
  Basis Set: AUG-CC-PVQZ
    Blend: AUG-CC-PVQZ
  Basis Set: (AUG-CC-PVQZ AUX)
    Blend: AUG-CC-PVQZ-JKFIT

    Orbital Energies [Eh]
    ---------------------

    Doubly Occupied:

       1A    -92.059751     2A    -20.579917     3A    -20.496324
       4A    -11.252823     5A    -11.252811     6A     -9.047383
       7A     -6.729641     8A     -6.729327     9A     -6.728040
      10A     -1.366991    11A     -1.328260    12A     -1.060092
      13A     -0.969221    14A     -0.809716    15A     -0.730683
      16A     -0.638889    17A     -0.624371    18A     -0.614689
      19A     -0.600689    20A     -0.580474    21A     -0.557151
      22A     -0.538483    23A     -0.525638    24A     -0.509734
      25A     -0.414261    26A     -0.364703

  @DF-RHF Final Energy:  -627.74091016357352

   => Energetics <=

    Nuclear Repulsion Energy =            250.4488956873816790
    One-Electron Energy =               -1362.1594816141093816
    Two-Electron Energy =                 483.9696757631541004
    Total Energy =                       -627.7409101635735169

  Dipole Moment: [D]
     X:    -2.0553      Y:     1.6282      Z:     4.1125     Total:     4.8773

  Basis Set: (AUG-CC-PVQZ AUX)
    Blend: AUG-CC-PVQZ-RI
	 Reference Energy          =    -627.7409101635735169 [Eh]
	 Singles Energy            =      -0.0000000000000000 [Eh]
	 Same-Spin Energy          =      -0.3004357132464750 [Eh]
	 Opposite-Spin Energy      =      -1.0165186264938699 [Eh]
	 Correlation Energy        =      -1.3169543397403449 [Eh]
	 Total Energy              =    -629.0578645033139082 [Eh]

	 ================> DF-SCS-MP2 Energies <==================
	-----------------------------------------------------------
	 SCS Same-Spin Scale       =       0.3333333333333333 [-]
	 SCS Opposite-Spin Scale   =       1.2000000000000000 [-]
	 SCS Same-Spin Energy      =      -0.1001452377488250 [Eh]
	 SCS Opposite-Spin Energy  =      -1.2198223517926439 [Eh]
	 SCS Correlation Energy    =      -1.3199675895414689 [Eh]
	 SCS Total Energy          =    -629.0608777531149371 [Eh]
	-----------------------------------------------------------

*** Psi4 exiting successfully. Buy a developer a beer!
