                               Psi4 1.4a2.dev224

  ==> Input File <==

--------------------------------------------------------------------------
#Generated by lconvert.py for cbs job

memory 40 GB

molecule  {
0 1
  C       -3.5467760    -0.4819310     0.5915200
  O       -1.6276610     0.1580460    -1.1324060
  S       -2.2639250     0.6910770     0.1151190
  C       -1.1529260     0.2984410     1.4789870
  H       -3.9595760    -0.1939850     1.5555670
  H       -4.3129890    -0.4388730    -0.1780640
  H       -3.1036950    -1.4757200     0.6166030
  H       -1.6275790     0.5662040     2.4201080
  H       -0.9163380    -0.7626630     1.4274980
  H       -0.2507730     0.8853770     1.3279120
--
0 1
  O       -3.7033930     2.2908460     2.5911350
  H       -3.5298500     2.7176730     1.7478410
  H       -4.1215190     2.9765090     3.1161800
units angstrom
no_reorient
symmetry c1
}

set {
scf_type DF
mp2_type DF
e_convergence 7
reference rhf
}

energy('mp2/aug-cc-pv[tq]z', bsse_type='cp')
--------------------------------------------------------------------------

    Molecular point group: c1
  Charge       = 0
  Multiplicity = 1
  Basis Set: AUG-CC-PVTZ
    Blend: AUG-CC-PVTZ
  Basis Set: (AUG-CC-PVTZ AUX)
    Blend: AUG-CC-PVTZ-JKFIT
  @DF-RHF Final Energy:   -76.06035176046048
    Total Energy =                        -76.0603517604604775
  Basis Set: (AUG-CC-PVTZ AUX)
    Blend: AUG-CC-PVTZ-RI
	 Reference Energy          =     -76.0603517604604775 [Eh]
	 Singles Energy            =      -0.0000000000000000 [Eh]
	 Same-Spin Energy          =      -0.0683974052503788 [Eh]
	 Opposite-Spin Energy      =      -0.2153364831421622 [Eh]
	 Correlation Energy        =      -0.2837338883925409 [Eh]
	 Total Energy              =     -76.3440856488530244 [Eh]
	 SCS Total Energy          =     -76.3415546753145264 [Eh]
    Molecular point group: c1
  Basis Set: AUG-CC-PVQZ
    Blend: AUG-CC-PVQZ
  Basis Set: (AUG-CC-PVQZ AUX)
    Blend: AUG-CC-PVQZ-JKFIT
  @DF-RHF Final Energy:   -76.06573040307032
    Total Energy =                        -76.0657304030703187
  Basis Set: (AUG-CC-PVQZ AUX)
  @DF-RHF Final Energy:   -76.06043653470442
    Total Energy =                        -76.0604365347044364
  @DF-RHF Final Energy:   -76.06576501053071
    Total Energy =                        -76.0657650105307113
  @DF-RHF Final Energy:  -551.65360278992739
    Total Energy =                       -551.6536027899273904
  @DF-RHF Final Energy:  -551.67136906026417
    Total Energy =                       -551.6713690602641691
  @DF-RHF Final Energy:  -551.65348969311447
    Total Energy =                       -551.6534896931144658
  @DF-RHF Final Energy:  -551.67133634266065
    Total Energy =                       -551.6713363426606520
  Multiplicity = 1
  @DF-RHF Final Energy:  -627.71735350805932
    Total Energy =                       -627.7173535080592046
	 Singles Energy            =      -0.0000000000000000 [Eh]
	 Same-Spin Energy          =      -0.2807257496500080 [Eh]
	 Opposite-Spin Energy      =      -0.8999181005182961 [Eh]
	 Correlation Energy        =      -1.1806438501683041 [Eh]
	 Total Energy              =    -628.8979973582275989 [Eh]
	 SCS Total Energy          =    -628.8908304785645669 [Eh]
    Molecular point group: c1

    Geometry (in Angstrom), charge = 0, multiplicity = 1:

       Center              X                  Y                   Z               Mass
    ------------   -----------------  -----------------  -----------------  -----------------
         C           -1.088636395056    -1.141877902227    -0.074838386476    12.000000000000
         O            0.830478604944    -0.501900902227    -1.798764386476    15.994914619570
         S            0.194214604944     0.031130097773    -0.551239386476    31.972071174400
         C            1.305213604944    -0.361505902227     0.812628613524    12.000000000000
         H           -1.501436395056    -0.853931902227     0.889208613524     1.007825032230
         H           -1.854849395056    -1.098819902227    -0.844422386476     1.007825032230
         H           -0.645555395056    -2.135666902227    -0.049755386476     1.007825032230
         H            0.830560604944    -0.093742902227     1.753749613524     1.007825032230
         H            1.541801604944    -1.422609902227     0.761139613524     1.007825032230
         H            2.207366604944     0.225430097773     0.661553613524     1.007825032230
         O           -1.245253395056     1.630899097773     1.924776613524    15.994914619570
         H           -1.071710395056     2.057726097773     1.081482613524     1.007825032230
         H           -1.663379395056     2.316562097773     2.449821613524     1.007825032230

  Charge       = 0
  Multiplicity = 1
  Basis Set: AUG-CC-PVQZ
    Blend: AUG-CC-PVQZ
  Basis Set: (AUG-CC-PVQZ AUX)
    Blend: AUG-CC-PVQZ-JKFIT

    Orbital Energies [Eh]
    ---------------------

    Doubly Occupied:

       1A    -92.059268     2A    -20.581531     3A    -20.495783
       4A    -11.251146     5A    -11.251134     6A     -9.046962
       7A     -6.729232     8A     -6.728915     9A     -6.727645
      10A     -1.369679    11A     -1.327763    12A     -1.059052
      13A     -0.967846    14A     -0.809202    15A     -0.733904
      16A     -0.638150    17A     -0.625915    18A     -0.613620
      19A     -0.599885    20A     -0.579734    21A     -0.556215
      22A     -0.537923    23A     -0.526886    24A     -0.509156
      25A     -0.413549    26A     -0.364651

  @DF-RHF Final Energy:  -627.74044976014056

   => Energetics <=

    Nuclear Repulsion Energy =            255.0991324246247416
    One-Electron Energy =               -1371.4696625543042501
    Two-Electron Energy =                 488.6300803695390300
    Total Energy =                       -627.7404497601405637

  Dipole Moment: [D]
     X:    -2.0834      Y:     1.6379      Z:     4.1798     Total:     4.9491

  Basis Set: (AUG-CC-PVQZ AUX)
    Blend: AUG-CC-PVQZ-RI
	 Reference Energy          =    -627.7404497601405637 [Eh]
	 Singles Energy            =      -0.0000000000000000 [Eh]
	 Same-Spin Energy          =      -0.3012061493190856 [Eh]
	 Opposite-Spin Energy      =      -1.0173513159969867 [Eh]
	 Correlation Energy        =      -1.3185574653160723 [Eh]
	 Total Energy              =    -629.0590072254566394 [Eh]

	 ================> DF-SCS-MP2 Energies <==================
	-----------------------------------------------------------
	 SCS Same-Spin Scale       =       0.3333333333333333 [-]
	 SCS Opposite-Spin Scale   =       1.2000000000000000 [-]
	 SCS Same-Spin Energy      =      -0.1004020497730285 [Eh]
	 SCS Opposite-Spin Energy  =      -1.2208215791963839 [Eh]
	 SCS Correlation Energy    =      -1.3212236289694124 [Eh]
	 SCS Total Energy          =    -629.0616733891099557 [Eh]
	-----------------------------------------------------------

*** Psi4 exiting successfully. Buy a developer a beer!
