                               Psi4 1.4a2.dev224

  ==> Input File <==

--------------------------------------------------------------------------
#Generated by lconvert.py for cbs job

memory 20 GB

molecule  {
0 1
  C      -3.546780   -0.481930    0.591520
  O      -1.627660    0.158050   -1.132410
  S      -2.263920    0.691080    0.115120
  C      -1.152930    0.298440    1.478990
  H      -3.959580   -0.193980    1.555570
  H      -4.312990   -0.438870   -0.178060
  H      -3.103700   -1.475720    0.616600
  H      -1.627580    0.566200    2.420110
  H      -0.916340   -0.762660    1.427500
  H      -0.250770    0.885380    1.327910
--
0 1
  O      -4.559100    3.828760    3.547040
  H      -4.385560    4.255580    2.703740
  H      -4.977230    4.514420    4.072080
units angstrom
no_reorient
symmetry c1
}

set {
scf_type DF
mp2_type DF
e_convergence 7
reference rhf
}

energy('mp2/aug-cc-pv[tq]z', bsse_type='cp')
--------------------------------------------------------------------------

    Molecular point group: c1
  Charge       = 0
  Multiplicity = 1
  Basis Set: AUG-CC-PVTZ
    Blend: AUG-CC-PVTZ
  Basis Set: (AUG-CC-PVTZ AUX)
    Blend: AUG-CC-PVTZ-JKFIT
  @DF-RHF Final Energy:   -76.06035183803007
    Total Energy =                        -76.0603518380300727
  Basis Set: (AUG-CC-PVTZ AUX)
    Blend: AUG-CC-PVTZ-RI
	 Reference Energy          =     -76.0603518380300727 [Eh]
	 Singles Energy            =      -0.0000000000000000 [Eh]
	 Same-Spin Energy          =      -0.0683973856296837 [Eh]
	 Opposite-Spin Energy      =      -0.2153364253945594 [Eh]
	 Correlation Energy        =      -0.2837338110242431 [Eh]
	 Total Energy              =     -76.3440856490543212 [Eh]
	 SCS Total Energy          =     -76.3415546770467728 [Eh]
    Molecular point group: c1
  Basis Set: AUG-CC-PVQZ
    Blend: AUG-CC-PVQZ
  Basis Set: (AUG-CC-PVQZ AUX)
    Blend: AUG-CC-PVQZ-JKFIT
  @DF-RHF Final Energy:   -76.06573048417232
    Total Energy =                        -76.0657304841723203
  Basis Set: (AUG-CC-PVQZ AUX)
  @DF-RHF Final Energy:   -76.06035775255822
    Total Energy =                        -76.0603577525582182
  @DF-RHF Final Energy:   -76.06573537480989
    Total Energy =                        -76.0657353748098899
  @DF-RHF Final Energy:  -551.65349843600234
    Total Energy =                       -551.6534984360023373
  @DF-RHF Final Energy:  -551.67134026507119
    Total Energy =                       -551.6713402650711942
  @DF-RHF Final Energy:  -551.65348948238227
    Total Energy =                       -551.6534894823822697
  @DF-RHF Final Energy:  -551.67133607869391
    Total Energy =                       -551.6713360786939120
  Multiplicity = 1
  @DF-RHF Final Energy:  -627.71534888980875
    Total Energy =                       -627.7153488898086380
	 Singles Energy            =      -0.0000000000000000 [Eh]
	 Same-Spin Energy          =      -0.2788010191578648 [Eh]
	 Opposite-Spin Energy      =      -0.8974651322509951 [Eh]
	 Correlation Energy        =      -1.1762661514088599 [Eh]
	 Total Energy              =    -628.8916150412176194 [Eh]
	 SCS Total Energy          =    -628.8852407215625817 [Eh]
    Molecular point group: c1

    Geometry (in Angstrom), charge = 0, multiplicity = 1:

       Center              X                  Y                   Z               Mass
    ------------   -----------------  -----------------  -----------------  -----------------
         C           -0.928142777843    -1.430333069952    -0.254130001296    12.000000000000
         O            0.990977222157    -0.790353069952    -1.978060001296    15.994914619570
         S            0.354717222157    -0.257323069952    -0.730530001296    31.972071174400
         C            1.465707222157    -0.649963069952     0.633339998704    12.000000000000
         H           -1.340942777843    -1.142383069952     0.709919998704     1.007825032230
         H           -1.694352777843    -1.387273069952    -1.023710001296     1.007825032230
         H           -0.485062777843    -2.424123069952    -0.229050001296     1.007825032230
         H            0.991057222157    -0.382203069952     1.574459998704     1.007825032230
         H            1.702297222157    -1.711063069952     0.581849998704     1.007825032230
         H            2.367867222157    -0.063023069952     0.482259998704     1.007825032230
         O           -1.940462777843     2.880356930048     2.701389998704    15.994914619570
         H           -1.766922777843     3.307176930048     1.858089998704     1.007825032230
         H           -2.358592777843     3.566016930048     3.226429998704     1.007825032230

  Charge       = 0
  Multiplicity = 1
  Basis Set: AUG-CC-PVQZ
    Blend: AUG-CC-PVQZ
  Basis Set: (AUG-CC-PVQZ AUX)
    Blend: AUG-CC-PVQZ-JKFIT

    Orbital Energies [Eh]
    ---------------------

    Doubly Occupied:

       1A    -92.061343     2A    -20.573166     3A    -20.498169
       4A    -11.257053     5A    -11.257040     6A     -9.048984
       7A     -6.731199     8A     -6.730893     9A     -6.729573
      10A     -1.359465    11A     -1.330000    12A     -1.063437
      13A     -0.973160    14A     -0.812328    15A     -0.722856
      16A     -0.642112    17A     -0.627077    18A     -0.618140
      19A     -0.593805    20A     -0.584479    21A     -0.559821
      22A     -0.541644    23A     -0.518319    24A     -0.511584
      25A     -0.416524    26A     -0.365699

  @DF-RHF Final Energy:  -627.73856369306088

   => Energetics <=

    Nuclear Repulsion Energy =            233.7354505897354500
    One-Electron Energy =               -1328.6922755134730778
    Two-Electron Energy =                 467.2182612306768306
    Total Energy =                       -627.7385636930608825

  Dipole Moment: [D]
     X:    -1.9822      Y:     1.6052      Z:     3.9357     Total:     4.6900

  Basis Set: (AUG-CC-PVQZ AUX)
    Blend: AUG-CC-PVQZ-RI
	 Reference Energy          =    -627.7385636930608825 [Eh]
	 Singles Energy            =      -0.0000000000000000 [Eh]
	 Same-Spin Energy          =      -0.2993702925700464 [Eh]
	 Opposite-Spin Energy      =      -1.0154083164051029 [Eh]
	 Correlation Energy        =      -1.3147786089751492 [Eh]
	 Total Energy              =    -629.0533423020360715 [Eh]

	 ================> DF-SCS-MP2 Energies <==================
	-----------------------------------------------------------
	 SCS Same-Spin Scale       =       0.3333333333333333 [-]
	 SCS Opposite-Spin Scale   =       1.2000000000000000 [-]
	 SCS Same-Spin Energy      =      -0.0997900975233488 [Eh]
	 SCS Opposite-Spin Energy  =      -1.2184899796861235 [Eh]
	 SCS Correlation Energy    =      -1.3182800772094723 [Eh]
	 SCS Total Energy          =    -629.0568437702703477 [Eh]
	-----------------------------------------------------------

*** Psi4 exiting successfully. Buy a developer a beer!
