                               Psi4 1.4a2.dev224

  ==> Input File <==

--------------------------------------------------------------------------
#Generated by lconvert.py for cbs job

memory 20 GB

molecule  {
0 1
  C      -3.546780   -0.481930    0.591520
  O      -1.627660    0.158050   -1.132410
  S      -2.263920    0.691080    0.115120
  C      -1.152930    0.298440    1.478990
  H      -3.959580   -0.193980    1.555570
  H      -4.312990   -0.438870   -0.178060
  H      -3.103700   -1.475720    0.616600
  H      -1.627580    0.566200    2.420110
  H      -0.916340   -0.762660    1.427500
  H      -0.250770    0.885380    1.327910
--
0 1
  O      -4.992180    4.607090    4.030820
  H      -4.818640    5.033920    3.187520
  H      -5.410310    5.292760    4.555860
units angstrom
no_reorient
symmetry c1
}

set {
scf_type DF
mp2_type DF
e_convergence 7
reference rhf
}

energy('mp2/aug-cc-pv[tq]z', bsse_type='cp')
--------------------------------------------------------------------------

    Molecular point group: c1
  Charge       = 0
  Multiplicity = 1
  Basis Set: AUG-CC-PVTZ
    Blend: AUG-CC-PVTZ
  Basis Set: (AUG-CC-PVTZ AUX)
    Blend: AUG-CC-PVTZ-JKFIT
  @DF-RHF Final Energy:   -76.06035132709599
    Total Energy =                        -76.0603513270959866
  Basis Set: (AUG-CC-PVTZ AUX)
    Blend: AUG-CC-PVTZ-RI
	 Reference Energy          =     -76.0603513270959866 [Eh]
	 Singles Energy            =      -0.0000000000000000 [Eh]
	 Same-Spin Energy          =      -0.0683975047828742 [Eh]
	 Opposite-Spin Energy      =      -0.2153367832413946 [Eh]
	 Correlation Energy        =      -0.2837342880242688 [Eh]
	 Total Energy              =     -76.3440856151202496 [Eh]
	 SCS Total Energy          =     -76.3415546352466237 [Eh]
    Molecular point group: c1
  Basis Set: AUG-CC-PVQZ
    Blend: AUG-CC-PVQZ
  Basis Set: (AUG-CC-PVQZ AUX)
    Blend: AUG-CC-PVQZ-JKFIT
  @DF-RHF Final Energy:   -76.06572994489891
    Total Energy =                        -76.0657299448988908
  Basis Set: (AUG-CC-PVQZ AUX)
  @DF-RHF Final Energy:   -76.06035393551645
    Total Energy =                        -76.0603539355164457
  @DF-RHF Final Energy:   -76.06573169586589
    Total Energy =                        -76.0657316958659067
  @DF-RHF Final Energy:  -551.65349366634837
    Total Energy =                       -551.6534936663483677
  @DF-RHF Final Energy:  -551.67133892669017
    Total Energy =                       -551.6713389266901686
  @DF-RHF Final Energy:  -551.65348948239557
    Total Energy =                       -551.6534894823955710
  @DF-RHF Final Energy:  -551.67133607837138
    Total Energy =                       -551.6713360783712687
  Multiplicity = 1
  @DF-RHF Final Energy:  -627.71473206399196
    Total Energy =                       -627.7147320639919599
	 Singles Energy            =      -0.0000000000000000 [Eh]
	 Same-Spin Energy          =      -0.2787247729804659 [Eh]
	 Opposite-Spin Energy      =      -0.8973638625652438 [Eh]
	 Correlation Energy        =      -1.1760886355457099 [Eh]
	 Total Energy              =    -628.8908206995376986 [Eh]
	 SCS Total Energy          =    -628.8844769567303956 [Eh]
    Molecular point group: c1

    Geometry (in Angstrom), charge = 0, multiplicity = 1:

       Center              X                  Y                   Z               Mass
    ------------   -----------------  -----------------  -----------------  -----------------
         C           -0.846913348907    -1.576318551459    -0.344868832760    12.000000000000
         O            1.072206651093    -0.936338551459    -2.068798832760    15.994914619570
         S            0.435946651093    -0.403308551459    -0.821268832760    31.972071174400
         C            1.546936651093    -0.795948551459     0.542601167240    12.000000000000
         H           -1.259713348907    -1.288368551459     0.619181167240     1.007825032230
         H           -1.613123348907    -1.533258551459    -1.114448832760     1.007825032230
         H           -0.403833348907    -2.570108551459    -0.319788832760     1.007825032230
         H            1.072286651093    -0.528188551459     1.483721167240     1.007825032230
         H            1.783526651093    -1.857048551459     0.491111167240     1.007825032230
         H            2.449096651093    -0.209008551459     0.391521167240     1.007825032230
         O           -2.292313348907     3.512701448541     3.094431167240    15.994914619570
         H           -2.118773348907     3.939531448541     2.251131167240     1.007825032230
         H           -2.710443348907     4.198371448541     3.619471167240     1.007825032230

  Charge       = 0
  Multiplicity = 1
  Basis Set: AUG-CC-PVQZ
    Blend: AUG-CC-PVQZ
  Basis Set: (AUG-CC-PVQZ AUX)
    Blend: AUG-CC-PVQZ-JKFIT

    Orbital Energies [Eh]
    ---------------------

    Doubly Occupied:

       1A    -92.062038     2A    -20.571124     3A    -20.498845
       4A    -11.258160     5A    -11.258148     6A     -9.049684
       7A     -6.731893     8A     -6.731588     9A     -6.730262
      10A     -1.357386    11A     -1.330651    12A     -1.064425
      13A     -0.974246    14A     -0.813220    15A     -0.720789
      16A     -0.643120    17A     -0.628198    18A     -0.619158
      19A     -0.591487    20A     -0.585636    21A     -0.560628
      22A     -0.542602    23A     -0.516174    24A     -0.512278
      25A     -0.417268    26A     -0.366308

  @DF-RHF Final Energy:  -627.73795210287517

   => Energetics <=

    Nuclear Repulsion Energy =            227.6414819566194865
    One-Electron Energy =               -1316.4882254003609887
    Two-Electron Energy =                 461.1087913408663894
    Total Energy =                       -627.7379521028751697

  Dipole Moment: [D]
     X:    -1.9647      Y:     1.5974      Z:     3.8954     Total:     4.6461

  Basis Set: (AUG-CC-PVQZ AUX)
    Blend: AUG-CC-PVQZ-RI
	 Reference Energy          =    -627.7379521028751697 [Eh]
	 Singles Energy            =      -0.0000000000000000 [Eh]
	 Same-Spin Energy          =      -0.2993021043672193 [Eh]
	 Opposite-Spin Energy      =      -1.0153526924105836 [Eh]
	 Correlation Energy        =      -1.3146547967778028 [Eh]
	 Total Energy              =    -629.0526068996530284 [Eh]

	 ================> DF-SCS-MP2 Energies <==================
	-----------------------------------------------------------
	 SCS Same-Spin Scale       =       0.3333333333333333 [-]
	 SCS Opposite-Spin Scale   =       1.2000000000000000 [-]
	 SCS Same-Spin Energy      =      -0.0997673681224064 [Eh]
	 SCS Opposite-Spin Energy  =      -1.2184232308927003 [Eh]
	 SCS Correlation Energy    =      -1.3181905990151068 [Eh]
	 SCS Total Energy          =    -629.0561427018902805 [Eh]
	-----------------------------------------------------------

*** Psi4 exiting successfully. Buy a developer a beer!
