                               Psi4 1.4a2.dev224

  ==> Input File <==

--------------------------------------------------------------------------
#Generated by lconvert.py for cbs job

memory 40 GB

molecule  {
0 1
  C       -3.5467760    -0.4819310     0.5915200
  O       -1.6276610     0.1580460    -1.1324060
  S       -2.2639250     0.6910770     0.1151190
  C       -1.1529260     0.2984410     1.4789870
  H       -3.9595760    -0.1939850     1.5555670
  H       -4.3129890    -0.4388730    -0.1780640
  H       -3.1036950    -1.4757200     0.6166030
  H       -1.6275790     0.5662040     2.4201080
  H       -0.9163380    -0.7626630     1.4274980
  H       -0.2507730     0.8853770     1.3279120
--
0 1
  O       -3.2716070     1.5148270     2.1087940
  H       -3.0980640     1.9416540     1.2655000
  H       -3.6897330     2.2004900     2.6338390
units angstrom
no_reorient
symmetry c1
}

set {
scf_type DF
mp2_type DF
e_convergence 7
reference rhf
}

energy('mp2/aug-cc-pv[tq]z', bsse_type='cp')
--------------------------------------------------------------------------

    Molecular point group: c1
  Charge       = 0
  Multiplicity = 1
  Basis Set: AUG-CC-PVTZ
    Blend: AUG-CC-PVTZ
  Basis Set: (AUG-CC-PVTZ AUX)
    Blend: AUG-CC-PVTZ-JKFIT
  @DF-RHF Final Energy:   -76.06035176045280
    Total Energy =                        -76.0603517604528037
  Basis Set: (AUG-CC-PVTZ AUX)
    Blend: AUG-CC-PVTZ-RI
	 Reference Energy          =     -76.0603517604528037 [Eh]
	 Singles Energy            =      -0.0000000000000000 [Eh]
	 Same-Spin Energy          =      -0.0683974052503949 [Eh]
	 Opposite-Spin Energy      =      -0.2153364831421908 [Eh]
	 Correlation Energy        =      -0.2837338883925857 [Eh]
	 Total Energy              =     -76.3440856488453932 [Eh]
	 SCS Total Energy          =     -76.3415546753068952 [Eh]
    Molecular point group: c1
  Basis Set: AUG-CC-PVQZ
    Blend: AUG-CC-PVQZ
  Basis Set: (AUG-CC-PVQZ AUX)
    Blend: AUG-CC-PVQZ-JKFIT
  @DF-RHF Final Energy:   -76.06573040309701
    Total Energy =                        -76.0657304030970067
  Basis Set: (AUG-CC-PVQZ AUX)
  @DF-RHF Final Energy:   -76.06056541275838
    Total Energy =                        -76.0605654127583648
  @DF-RHF Final Energy:   -76.06580765195407
    Total Energy =                        -76.0658076519540742
  @DF-RHF Final Energy:  -551.65380852935596
    Total Energy =                       -551.6538085293559561
  @DF-RHF Final Energy:  -551.67142977331798
    Total Energy =                       -551.6714297733180956
  @DF-RHF Final Energy:  -551.65348969306126
    Total Energy =                       -551.6534896930612604
  @DF-RHF Final Energy:  -551.67133634243328
    Total Energy =                       -551.6713363424332783
  Multiplicity = 1
  @DF-RHF Final Energy:  -627.66034893634014
    Total Energy =                       -627.6603489363401422
	 Singles Energy            =      -0.0000000000000000 [Eh]
	 Same-Spin Energy          =      -0.2888098820663693 [Eh]
	 Opposite-Spin Energy      =      -0.9095461800449092 [Eh]
	 Correlation Energy        =      -1.1983560621112783 [Eh]
	 Total Energy              =    -628.8587049984514579 [Eh]
	 SCS Total Energy          =    -628.8480743130828614 [Eh]
    Molecular point group: c1

    Geometry (in Angstrom), charge = 0, multiplicity = 1:

       Center              X                  Y                   Z               Mass
    ------------   -----------------  -----------------  -----------------  -----------------
         C           -1.169623118530    -0.996326086827     0.015630543011    12.000000000000
         O            0.749491881470    -0.356349086827    -1.708295456989    15.994914619570
         S            0.113227881470     0.176681913173    -0.460770456989    31.972071174400
         C            1.224226881470    -0.215954086827     0.903097543011    12.000000000000
         H           -1.582423118530    -0.708380086827     0.979677543011     1.007825032230
         H           -1.935836118530    -0.953268086827    -0.753953456989     1.007825032230
         H           -0.726542118530    -1.990115086827     0.040713543011     1.007825032230
         H            0.749573881470     0.051808913173     1.844218543011     1.007825032230
         H            1.460814881470    -1.277058086827     0.851608543011     1.007825032230
         H            2.126379881470     0.370981913173     0.752022543011     1.007825032230
         O           -0.894454118530     1.000431913173     1.532904543011    15.994914619570
         H           -0.720911118530     1.427258913173     0.689610543011     1.007825032230
         H           -1.312580118530     1.686094913173     2.057949543011     1.007825032230

  Charge       = 0
  Multiplicity = 1
  Basis Set: AUG-CC-PVQZ
    Blend: AUG-CC-PVQZ
  Basis Set: (AUG-CC-PVQZ AUX)
    Blend: AUG-CC-PVQZ-JKFIT

    Orbital Energies [Eh]
    ---------------------

    Doubly Occupied:

       1A    -92.057831     2A    -20.575479     3A    -20.492984
       4A    -11.240613     5A    -11.240602     6A     -9.046906
       7A     -6.728855     8A     -6.728776     9A     -6.727620
      10A     -1.392623    11A     -1.325324    12A     -1.058265
      13A     -0.963603    14A     -0.827997    15A     -0.747955
      16A     -0.664427    17A     -0.628829    18A     -0.617496
      19A     -0.598489    20A     -0.564056    21A     -0.550122
      22A     -0.539865    23A     -0.501390    24A     -0.500258
      25A     -0.410818    26A     -0.365956

  @DF-RHF Final Energy:  -627.68351454972094

   => Energetics <=

    Nuclear Repulsion Energy =            276.1685762486045519
    One-Electron Energy =               -1413.5099008779066025
    Two-Electron Energy =                 509.6578100795812247
    Total Energy =                       -627.6835145497209396

  Dipole Moment: [D]
     X:    -2.2275      Y:     1.6891      Z:     4.5234     Total:     5.3175

  Basis Set: (AUG-CC-PVQZ AUX)
    Blend: AUG-CC-PVQZ-RI
	 Reference Energy          =    -627.6835145497209396 [Eh]
	 Singles Energy            =      -0.0000000000000000 [Eh]
	 Same-Spin Energy          =      -0.3093110144728237 [Eh]
	 Opposite-Spin Energy      =      -1.0262217749857241 [Eh]
	 Correlation Energy        =      -1.3355327894585478 [Eh]
	 Total Energy              =    -629.0190473391794512 [Eh]

	 ================> DF-SCS-MP2 Energies <==================
	-----------------------------------------------------------
	 SCS Same-Spin Scale       =       0.3333333333333333 [-]
	 SCS Opposite-Spin Scale   =       1.2000000000000000 [-]
	 SCS Same-Spin Energy      =      -0.1031036714909412 [Eh]
	 SCS Opposite-Spin Energy  =      -1.2314661299828689 [Eh]
	 SCS Correlation Energy    =      -1.3345698014738101 [Eh]
	 SCS Total Energy          =    -629.0180843511947160 [Eh]
	-----------------------------------------------------------

*** Psi4 exiting successfully. Buy a developer a beer!
