                               Psi4 1.4a2.dev224

  ==> Input File <==

--------------------------------------------------------------------------
#Generated by lconvert.py for cbs job

memory 40 GB

molecule  {
0 1
  C       -3.5467760    -0.4819310     0.5915200
  O       -1.6276610     0.1580460    -1.1324060
  S       -2.2639250     0.6910770     0.1151190
  C       -1.1529260     0.2984410     1.4789870
  H       -3.9595760    -0.1939850     1.5555670
  H       -4.3129890    -0.4388730    -0.1780640
  H       -3.1036950    -1.4757200     0.6166030
  H       -1.6275790     0.5662040     2.4201080
  H       -0.9163380    -0.7626630     1.4274980
  H       -0.2507730     0.8853770     1.3279120
--
0 1
  O       -3.4159660     1.7742730     2.2700550
  H       -3.2424230     2.2011000     1.4267610
  H       -3.8340920     2.4599360     2.7951000
units angstrom
no_reorient
symmetry c1
}

set {
scf_type DF
mp2_type DF
e_convergence 7
reference rhf
}

energy('mp2/aug-cc-pv[tq]z', bsse_type='cp')
--------------------------------------------------------------------------

    Molecular point group: c1
  Charge       = 0
  Multiplicity = 1
  Basis Set: AUG-CC-PVTZ
    Blend: AUG-CC-PVTZ
  Basis Set: (AUG-CC-PVTZ AUX)
    Blend: AUG-CC-PVTZ-JKFIT
  @DF-RHF Final Energy:   -76.06035176046180
    Total Energy =                        -76.0603517604617991
  Basis Set: (AUG-CC-PVTZ AUX)
    Blend: AUG-CC-PVTZ-RI
	 Reference Energy          =     -76.0603517604617991 [Eh]
	 Singles Energy            =      -0.0000000000000000 [Eh]
	 Same-Spin Energy          =      -0.0683974052503802 [Eh]
	 Opposite-Spin Energy      =      -0.2153364831421344 [Eh]
	 Correlation Energy        =      -0.2837338883925146 [Eh]
	 Total Energy              =     -76.3440856488543176 [Eh]
	 SCS Total Energy          =     -76.3415546753158196 [Eh]
    Molecular point group: c1
  Basis Set: AUG-CC-PVQZ
    Blend: AUG-CC-PVQZ
  Basis Set: (AUG-CC-PVQZ AUX)
    Blend: AUG-CC-PVQZ-JKFIT
  @DF-RHF Final Energy:   -76.06573040307651
    Total Energy =                        -76.0657304030765005
  Basis Set: (AUG-CC-PVQZ AUX)
  @DF-RHF Final Energy:   -76.06051829110089
    Total Energy =                        -76.0605182911008910
  @DF-RHF Final Energy:   -76.06579565720372
    Total Energy =                        -76.0657956572037222
  @DF-RHF Final Energy:  -551.65370736993850
    Total Energy =                       -551.6537073699385019
  @DF-RHF Final Energy:  -551.67139968469473
    Total Energy =                       -551.6713996846947339
  @DF-RHF Final Energy:  -551.65348969322804
    Total Energy =                       -551.6534896932280390
  @DF-RHF Final Energy:  -551.67133634236461
    Total Energy =                       -551.6713363423646115
  Multiplicity = 1
  @DF-RHF Final Energy:  -627.70000613856337
    Total Energy =                       -627.7000061385633671
	 Singles Energy            =      -0.0000000000000000 [Eh]
	 Same-Spin Energy          =      -0.2846297516676586 [Eh]
	 Opposite-Spin Energy      =      -0.9045107801263894 [Eh]
	 Correlation Energy        =      -1.1891405317940480 [Eh]
	 Total Energy              =    -628.8891466703573769 [Eh]
	 SCS Total Energy          =    -628.8802956586042683 [Eh]
    Molecular point group: c1

    Geometry (in Angstrom), charge = 0, multiplicity = 1:

       Center              X                  Y                   Z               Mass
    ------------   -----------------  -----------------  -----------------  -----------------
         C           -1.142546829781    -1.044988344192    -0.014615921706    12.000000000000
         O            0.776568170219    -0.405011344192    -1.738541921706    15.994914619570
         S            0.140304170219     0.128019655808    -0.491016921706    31.972071174400
         C            1.251303170219    -0.264616344192     0.872851078294    12.000000000000
         H           -1.555346829781    -0.757042344192     0.949431078294     1.007825032230
         H           -1.908759829781    -1.001930344192    -0.784199921706     1.007825032230
         H           -0.699465829781    -2.038777344192     0.010467078294     1.007825032230
         H            0.776650170219     0.003146655808     1.813972078294     1.007825032230
         H            1.487891170219    -1.325720344192     0.821362078294     1.007825032230
         H            2.153456170219     0.322319655808     0.721776078294     1.007825032230
         O           -1.011736829781     1.211215655808     1.663919078294    15.994914619570
         H           -0.838193829781     1.638042655808     0.820625078294     1.007825032230
         H           -1.429862829781     1.896878655808     2.188964078294     1.007825032230

  Charge       = 0
  Multiplicity = 1
  Basis Set: AUG-CC-PVQZ
    Blend: AUG-CC-PVQZ
  Basis Set: (AUG-CC-PVQZ AUX)
    Blend: AUG-CC-PVQZ-JKFIT

    Orbital Energies [Eh]
    ---------------------

    Doubly Occupied:

       1A    -92.057801     2A    -20.581404     3A    -20.494176
       4A    -11.245136     5A    -11.245125     6A     -9.046097
       7A     -6.728290     8A     -6.728010     9A     -6.726837
      10A     -1.379973    11A     -1.326370    12A     -1.057261
      13A     -0.964290    14A     -0.813128    15A     -0.744835
      16A     -0.647160    17A     -0.631035    18A     -0.612065
      19A     -0.586431    20A     -0.582878    21A     -0.553081
      22A     -0.539630    23A     -0.517602    24A     -0.506214
      25A     -0.411651    26A     -0.364999

  @DF-RHF Final Energy:  -627.72305866934323

   => Energetics <=

    Nuclear Repulsion Energy =            267.8577900890243768
    One-Electron Energy =               -1396.9787482867434392
    Two-Electron Energy =                 501.3978995283758877
    Total Energy =                       -627.7230586693432315

  Dipole Moment: [D]
     X:    -2.1707      Y:     1.6702      Z:     4.3869     Total:     5.1716

  Basis Set: (AUG-CC-PVQZ AUX)
    Blend: AUG-CC-PVQZ-RI
	 Reference Energy          =    -627.7230586693432315 [Eh]
	 Singles Energy            =      -0.0000000000000000 [Eh]
	 Same-Spin Energy          =      -0.3051075132899818 [Eh]
	 Opposite-Spin Energy      =      -1.0215754261019350 [Eh]
	 Correlation Energy        =      -1.3266829393919166 [Eh]
	 Total Energy              =    -629.0497416087351894 [Eh]

	 ================> DF-SCS-MP2 Energies <==================
	-----------------------------------------------------------
	 SCS Same-Spin Scale       =       0.3333333333333333 [-]
	 SCS Opposite-Spin Scale   =       1.2000000000000000 [-]
	 SCS Same-Spin Energy      =      -0.1017025044299939 [Eh]
	 SCS Opposite-Spin Energy  =      -1.2258905113223220 [Eh]
	 SCS Correlation Energy    =      -1.3275930157523159 [Eh]
	 SCS Total Energy          =    -629.0506516850955450 [Eh]
	-----------------------------------------------------------

*** Psi4 exiting successfully. Buy a developer a beer!
