                               Psi4 1.4a2.dev224

  ==> Input File <==

--------------------------------------------------------------------------
#Generated by lconvert.py for cbs job

memory 20 GB

molecule  {
0 1
  C      -3.546780   -0.481930    0.591520
  O      -1.627660    0.158050   -1.132410
  S      -2.263920    0.691080    0.115120
  C      -1.152930    0.298440    1.478990
  H      -3.959580   -0.193980    1.555570
  H      -4.312990   -0.438870   -0.178060
  H      -3.103700   -1.475720    0.616600
  H      -1.627580    0.566200    2.420110
  H      -0.916340   -0.762660    1.427500
  H      -0.250770    0.885380    1.327910
--
0 1
  O      -4.126030    3.050420    3.063250
  H      -3.952480    3.477240    2.219960
  H      -4.544150    3.736080    3.588300
units angstrom
no_reorient
symmetry c1
}

set {
scf_type DF
mp2_type DF
e_convergence 7
reference rhf
}

energy('mp2/aug-cc-pv[tq]z', bsse_type='cp')
--------------------------------------------------------------------------

    Molecular point group: c1
  Charge       = 0
  Multiplicity = 1
  Basis Set: AUG-CC-PVTZ
    Blend: AUG-CC-PVTZ
  Basis Set: (AUG-CC-PVTZ AUX)
    Blend: AUG-CC-PVTZ-JKFIT
  @DF-RHF Final Energy:   -76.06035210978121
    Total Energy =                        -76.0603521097812063
  Basis Set: (AUG-CC-PVTZ AUX)
    Blend: AUG-CC-PVTZ-RI
	 Reference Energy          =     -76.0603521097812063 [Eh]
	 Singles Energy            =      -0.0000000000000000 [Eh]
	 Same-Spin Energy          =      -0.0683973255150844 [Eh]
	 Opposite-Spin Energy      =      -0.2153362444611396 [Eh]
	 Correlation Energy        =      -0.2837335699762241 [Eh]
	 Total Energy              =     -76.3440856797574270 [Eh]
	 SCS Total Energy          =     -76.3415547116396027 [Eh]
    Molecular point group: c1
  Basis Set: AUG-CC-PVQZ
    Blend: AUG-CC-PVQZ
  Basis Set: (AUG-CC-PVQZ AUX)
    Blend: AUG-CC-PVQZ-JKFIT
  @DF-RHF Final Energy:   -76.06573077021042
    Total Energy =                        -76.0657307702104220
  Basis Set: (AUG-CC-PVQZ AUX)
  @DF-RHF Final Energy:   -76.06037122141167
    Total Energy =                        -76.0603712214116712
  @DF-RHF Final Energy:   -76.06574414091996
    Total Energy =                        -76.0657441409199748
  @DF-RHF Final Energy:  -551.65352201060227
    Total Energy =                       -551.6535220106022734
  @DF-RHF Final Energy:  -551.67134584736664
    Total Energy =                       -551.6713458473666378
  @DF-RHF Final Energy:  -551.65348948207657
    Total Energy =                       -551.6534894820765658
  @DF-RHF Final Energy:  -551.67133607778737
    Total Energy =                       -551.6713360777873731
  Multiplicity = 1
  @DF-RHF Final Energy:  -627.71667244595233
    Total Energy =                       -627.7166724459523266
	 Singles Energy            =      -0.0000000000000000 [Eh]
	 Same-Spin Energy          =      -0.2791351033188438 [Eh]
	 Opposite-Spin Energy      =      -0.8979149448670047 [Eh]
	 Correlation Energy        =      -1.1770500481858486 [Eh]
	 Total Energy              =    -628.8937224941381601 [Eh]
	 SCS Total Energy          =    -628.8872154142324007 [Eh]
    Molecular point group: c1

    Geometry (in Angstrom), charge = 0, multiplicity = 1:

       Center              X                  Y                   Z               Mass
    ------------   -----------------  -----------------  -----------------  -----------------
         C           -1.009370541066    -1.284345922732    -0.163389504120    12.000000000000
         O            0.909749458934    -0.644365922732    -1.887319504120    15.994914619570
         S            0.273489458934    -0.111335922732    -0.639789504120    31.972071174400
         C            1.384479458934    -0.503975922732     0.724080495880    12.000000000000
         H           -1.422170541066    -0.996395922732     0.800660495880     1.007825032230
         H           -1.775580541066    -1.241285922732    -0.932969504120     1.007825032230
         H           -0.566290541066    -2.278135922732    -0.138309504120     1.007825032230
         H            0.909829458934    -0.236215922732     1.665200495880     1.007825032230
         H            1.621069458934    -1.565075922732     0.672590495880     1.007825032230
         H            2.286639458934     0.082964077268     0.573000495880     1.007825032230
         O           -1.588620541066     2.248004077268     2.308340495880    15.994914619570
         H           -1.415070541066     2.674824077268     1.465050495880     1.007825032230
         H           -2.006740541066     2.933664077268     2.833390495880     1.007825032230

  Charge       = 0
  Multiplicity = 1
  Basis Set: AUG-CC-PVQZ
    Blend: AUG-CC-PVQZ
  Basis Set: (AUG-CC-PVQZ AUX)
    Blend: AUG-CC-PVQZ-JKFIT

    Orbital Energies [Eh]
    ---------------------

    Doubly Occupied:

       1A    -92.060476     2A    -20.576560     3A    -20.497218
       4A    -11.255141     5A    -11.255129     6A     -9.048104
       7A     -6.730335     8A     -6.730027     9A     -6.728720
      10A     -1.362997    11A     -1.329095    12A     -1.061826
      13A     -0.971321    14A     -0.810971    15A     -0.726386
      16A     -0.640491    17A     -0.625225    18A     -0.616473
      19A     -0.597756    20A     -0.582495    21A     -0.558546
      22A     -0.540079    23A     -0.521972    24A     -0.510622
      25A     -0.415401    26A     -0.365027

  @DF-RHF Final Energy:  -627.73985811271211

   => Energetics <=

    Nuclear Repulsion Energy =            242.3892079487760896
    One-Electron Energy =               -1346.0213359273450351
    Two-Electron Energy =                 475.8922698658566901
    Total Energy =                       -627.7398581127122270

  Dipole Moment: [D]
     X:    -2.0148      Y:     1.6158      Z:     4.0144     Total:     4.7734

  Basis Set: (AUG-CC-PVQZ AUX)
    Blend: AUG-CC-PVQZ-RI
	 Reference Energy          =    -627.7398581127121133 [Eh]
	 Singles Energy            =      -0.0000000000000000 [Eh]
	 Same-Spin Energy          =      -0.2996795353629219 [Eh]
	 Opposite-Spin Energy      =      -1.0157215696667481 [Eh]
	 Correlation Energy        =      -1.3154011050296699 [Eh]
	 Total Energy              =    -629.0552592177417637 [Eh]

	 ================> DF-SCS-MP2 Energies <==================
	-----------------------------------------------------------
	 SCS Same-Spin Scale       =       0.3333333333333333 [-]
	 SCS Opposite-Spin Scale   =       1.2000000000000000 [-]
	 SCS Same-Spin Energy      =      -0.0998931784543073 [Eh]
	 SCS Opposite-Spin Energy  =      -1.2188658836000976 [Eh]
	 SCS Correlation Energy    =      -1.3187590620544050 [Eh]
	 SCS Total Energy          =    -629.0586171747664821 [Eh]
	-----------------------------------------------------------

*** Psi4 exiting successfully. Buy a developer a beer!
