                               Psi4 1.4a2.dev224

  ==> Input File <==

--------------------------------------------------------------------------
#Generated by lconvert.py for cbs job

memory 40 GB

molecule  {
0 1
  C       -3.5467760    -0.4819310     0.5915200
  O       -1.6276610     0.1580460    -1.1324060
  S       -2.2639250     0.6910770     0.1151190
  C       -1.1529260     0.2984410     1.4789870
  H       -3.9595760    -0.1939850     1.5555670
  H       -4.3129890    -0.4388730    -0.1780640
  H       -3.1036950    -1.4757200     0.6166030
  H       -1.6275790     0.5662040     2.4201080
  H       -0.9163380    -0.7626630     1.4274980
  H       -0.2507730     0.8853770     1.3279120
--
0 1
  O       -3.6345550     2.1671290     2.5142380
  H       -3.4610120     2.5939560     1.6709440
  H       -4.0526810     2.8527920     3.0392830
units angstrom
no_reorient
symmetry c1
}

set {
scf_type DF
mp2_type DF
e_convergence 7
reference rhf
}

energy('mp2/aug-cc-pv[tq]z', bsse_type='cp')
--------------------------------------------------------------------------

    Molecular point group: c1
  Charge       = 0
  Multiplicity = 1
  Basis Set: AUG-CC-PVTZ
    Blend: AUG-CC-PVTZ
  Basis Set: (AUG-CC-PVTZ AUX)
    Blend: AUG-CC-PVTZ-JKFIT
  @DF-RHF Final Energy:   -76.06035176044250
    Total Energy =                        -76.0603517604425008
  Basis Set: (AUG-CC-PVTZ AUX)
    Blend: AUG-CC-PVTZ-RI
	 Reference Energy          =     -76.0603517604425008 [Eh]
	 Singles Energy            =      -0.0000000000000000 [Eh]
	 Same-Spin Energy          =      -0.0683974052503874 [Eh]
	 Opposite-Spin Energy      =      -0.2153364831421935 [Eh]
	 Correlation Energy        =      -0.2837338883925808 [Eh]
	 Total Energy              =     -76.3440856488350761 [Eh]
	 SCS Total Energy          =     -76.3415546752965923 [Eh]
    Molecular point group: c1
  Basis Set: AUG-CC-PVQZ
    Blend: AUG-CC-PVQZ
  Basis Set: (AUG-CC-PVQZ AUX)
    Blend: AUG-CC-PVQZ-JKFIT
  @DF-RHF Final Energy:   -76.06573040306706
    Total Energy =                        -76.0657304030670645
  Basis Set: (AUG-CC-PVQZ AUX)
  @DF-RHF Final Energy:   -76.06045401569988
    Total Energy =                        -76.0604540156998752
  @DF-RHF Final Energy:   -76.06577199549450
    Total Energy =                        -76.0657719954945009
  @DF-RHF Final Energy:  -551.65362815307208
    Total Energy =                       -551.6536281530720771
  @DF-RHF Final Energy:  -551.67137697452085
    Total Energy =                       -551.6713769745208538
  @DF-RHF Final Energy:  -551.65348969296588
    Total Energy =                       -551.6534896929658771
  @DF-RHF Final Energy:  -551.67133634236438
    Total Energy =                       -551.6713363423643841
  Multiplicity = 1
  @DF-RHF Final Energy:  -627.71624763297723
    Total Energy =                       -627.7162476329772289
	 Singles Energy            =      -0.0000000000000000 [Eh]
	 Same-Spin Energy          =      -0.2813203732511296 [Eh]
	 Opposite-Spin Energy      =      -0.9006333311737229 [Eh]
	 Correlation Energy        =      -1.1819537044248525 [Eh]
	 Total Energy              =    -628.8982013374020426 [Eh]
	 SCS Total Energy          =    -628.8907810881361229 [Eh]
    Molecular point group: c1

    Geometry (in Angstrom), charge = 0, multiplicity = 1:

       Center              X                  Y                   Z               Mass
    ------------   -----------------  -----------------  -----------------  -----------------
         C           -1.101547800406    -1.118673271998    -0.060415417517    12.000000000000
         O            0.817567199594    -0.478696271998    -1.784341417517    15.994914619570
         S            0.181303199594     0.054334728002    -0.536816417517    31.972071174400
         C            1.292302199594    -0.338301271998     0.827051582483    12.000000000000
         H           -1.514347800406    -0.830727271998     0.903631582483     1.007825032230
         H           -1.867760800406    -1.075615271998    -0.829999417517     1.007825032230
         H           -0.658466800406    -2.112462271998    -0.035332417517     1.007825032230
         H            0.817649199594    -0.070538271998     1.768172582483     1.007825032230
         H            1.528890199594    -1.399405271998     0.775562582483     1.007825032230
         H            2.194455199594     0.248634728002     0.675976582483     1.007825032230
         O           -1.189326800406     1.530386728002     1.862302582483    15.994914619570
         H           -1.015783800406     1.957213728002     1.019008582483     1.007825032230
         H           -1.607452800406     2.216049728002     2.387347582483     1.007825032230

  Charge       = 0
  Multiplicity = 1
  Basis Set: AUG-CC-PVQZ
    Blend: AUG-CC-PVQZ
  Basis Set: (AUG-CC-PVQZ AUX)
    Blend: AUG-CC-PVQZ-JKFIT

    Orbital Energies [Eh]
    ---------------------

    Doubly Occupied:

       1A    -92.058957     2A    -20.582187     3A    -20.495461
       4A    -11.250050     5A    -11.250038     6A     -9.046718
       7A     -6.728990     8A     -6.728672     9A     -6.727417
      10A     -1.371398    11A     -1.327474    12A     -1.058488
      13A     -0.967028    14A     -0.809125    15A     -0.736052
      16A     -0.638027    17A     -0.627699    18A     -0.613041
      19A     -0.598023    20A     -0.579769    21A     -0.555629
      22A     -0.538000    23A     -0.526709    24A     -0.508761
      25A     -0.413130    26A     -0.364662

  @DF-RHF Final Energy:  -627.73932288351648

   => Energetics <=

    Nuclear Repulsion Energy =            257.7740744156631081
    One-Electron Energy =               -1376.8237749539191555
    Two-Electron Energy =                 491.3103776547395114
    Total Energy =                       -627.7393228835164791

  Dipole Moment: [D]
     X:    -2.1008      Y:     1.6443      Z:     4.2212     Total:     4.9936

  Basis Set: (AUG-CC-PVQZ AUX)
    Blend: AUG-CC-PVQZ-RI
	 Reference Energy          =    -627.7393228835164791 [Eh]
	 Singles Energy            =      -0.0000000000000000 [Eh]
	 Same-Spin Energy          =      -0.3017923596077434 [Eh]
	 Opposite-Spin Energy      =      -1.0179904057402045 [Eh]
	 Correlation Energy        =      -1.3197827653479479 [Eh]
	 Total Energy              =    -629.0591056488643744 [Eh]

	 ================> DF-SCS-MP2 Energies <==================
	-----------------------------------------------------------
	 SCS Same-Spin Scale       =       0.3333333333333333 [-]
	 SCS Opposite-Spin Scale   =       1.2000000000000000 [-]
	 SCS Same-Spin Energy      =      -0.1005974532025811 [Eh]
	 SCS Opposite-Spin Energy  =      -1.2215884868882454 [Eh]
	 SCS Correlation Energy    =      -1.3221859400908265 [Eh]
	 SCS Total Energy          =    -629.0615088236072552 [Eh]
	-----------------------------------------------------------

*** Psi4 exiting successfully. Buy a developer a beer!
