                               Psi4 1.4a2.dev224

  ==> Input File <==

--------------------------------------------------------------------------
#Generated by lconvert.py for cbs job

memory 20 GB

molecule  {
0 1
  C      -3.228950   -0.562410    0.903880
  O      -1.614570    1.539640    0.825440
  S      -2.022170    0.445430    1.779810
  C      -0.684770   -0.757880    1.728830
  H      -3.489850   -1.426690    1.511490
  H      -4.097340    0.069480    0.736340
  H      -2.798720   -0.860590   -0.050250
  H      -0.966690   -1.647620    2.288310
  H      -0.479520   -0.990640    0.685940
  H       0.182770   -0.287970    2.183830
--
0 1
  O      -4.619800    2.561780   -0.442800
  H      -3.688600    2.489490   -0.180490
  H      -4.761650    3.503560   -0.546770
units angstrom
no_reorient
symmetry c1
}

set {
scf_type DF
mp2_type DF
e_convergence 7
reference rhf
}

energy('mp2/aug-cc-pv[tq]z', bsse_type='cp')
--------------------------------------------------------------------------

    Molecular point group: c1
  Charge       = 0
  Multiplicity = 1
  Basis Set: AUG-CC-PVTZ
    Blend: AUG-CC-PVTZ
  Basis Set: (AUG-CC-PVTZ AUX)
    Blend: AUG-CC-PVTZ-JKFIT
  @DF-RHF Final Energy:   -76.05997601480348
    Total Energy =                        -76.0599760148034676
  Basis Set: (AUG-CC-PVTZ AUX)
    Blend: AUG-CC-PVTZ-RI
	 Reference Energy          =     -76.0599760148034818 [Eh]
	 Singles Energy            =      -0.0000000000000000 [Eh]
	 Same-Spin Energy          =      -0.0684605330897793 [Eh]
	 Opposite-Spin Energy      =      -0.2155326332353351 [Eh]
	 Correlation Energy        =      -0.2839931663251144 [Eh]
	 Total Energy              =     -76.3439691811285996 [Eh]
	 SCS Total Energy          =     -76.3414353523824758 [Eh]
    Molecular point group: c1
  Basis Set: AUG-CC-PVQZ
    Blend: AUG-CC-PVQZ
  Basis Set: (AUG-CC-PVQZ AUX)
    Blend: AUG-CC-PVQZ-JKFIT
  @DF-RHF Final Energy:   -76.06533530660305
    Total Energy =                        -76.0653353066030462
  Basis Set: (AUG-CC-PVQZ AUX)
  @DF-RHF Final Energy:   -76.06002574954491
    Total Energy =                        -76.0600257495449057
  @DF-RHF Final Energy:   -76.06535543816591
    Total Energy =                        -76.0653554381659092
  @DF-RHF Final Energy:  -551.65325152580476
    Total Energy =                       -551.6532515258047624
  @DF-RHF Final Energy:  -551.67090520485306
    Total Energy =                       -551.6709052048531703
  @DF-RHF Final Energy:  -551.65319230832790
    Total Energy =                       -551.6531923083279025
  @DF-RHF Final Energy:  -551.67088053799000
    Total Energy =                       -551.6708805379900014
  Multiplicity = 1
  @DF-RHF Final Energy:  -627.72142368534924
    Total Energy =                       -627.7214236853492366
	 Singles Energy            =      -0.0000000000000000 [Eh]
	 Same-Spin Energy          =      -0.2798369060027530 [Eh]
	 Opposite-Spin Energy      =      -0.8990316436224266 [Eh]
	 Correlation Energy        =      -1.1788685496251796 [Eh]
	 Total Energy              =    -628.9002922349744722 [Eh]
	 SCS Total Energy          =    -628.8935406263636878 [Eh]
    Molecular point group: c1

    Geometry (in Angstrom), charge = 0, multiplicity = 1:

       Center              X                  Y                   Z               Mass
    ------------   -----------------  -----------------  -----------------  -----------------
         C           -0.817141582126    -1.237814355530    -0.151030911927    12.000000000000
         O            0.797238417874     0.864235644470    -0.229470911927    15.994914619570
         S            0.389638417874    -0.229974355530     0.724899088073    31.972071174400
         C            1.727038417874    -1.433284355530     0.673919088073    12.000000000000
         H           -1.078041582126    -2.102094355530     0.456579088073     1.007825032230
         H           -1.685531582126    -0.605924355530    -0.318570911927     1.007825032230
         H           -0.386911582126    -1.535994355530    -1.105160911927     1.007825032230
         H            1.445118417874    -2.323024355530     1.233399088073     1.007825032230
         H            1.932288417874    -1.666044355530    -0.368970911927     1.007825032230
         H            2.594578417874    -0.963374355530     1.128919088073     1.007825032230
         O           -2.207991582126     1.886375644470    -1.497710911927    15.994914619570
         H           -1.276791582126     1.814085644470    -1.235400911927     1.007825032230
         H           -2.349841582126     2.828155644470    -1.601680911927     1.007825032230

  Charge       = 0
  Multiplicity = 1
  Basis Set: AUG-CC-PVQZ
    Blend: AUG-CC-PVQZ
  Basis Set: (AUG-CC-PVQZ AUX)
    Blend: AUG-CC-PVQZ-JKFIT

    Orbital Energies [Eh]
    ---------------------

    Doubly Occupied:

       1A    -92.069411     2A    -20.546167     3A    -20.508345
       4A    -11.264640     5A    -11.260745     6A     -9.057320
       7A     -6.739473     8A     -6.739183     9A     -6.737863
      10A     -1.336508    11A     -1.330881    12A     -1.070302
      13A     -0.979604    14A     -0.820736    15A     -0.696086
      16A     -0.647884    17A     -0.632748    18A     -0.625580
      19A     -0.589549    20A     -0.569356    21A     -0.566516
      22A     -0.546382    23A     -0.518853    24A     -0.492187
      25A     -0.427079    26A     -0.376330

  @DF-RHF Final Energy:  -627.74437656257737

   => Energetics <=

    Nuclear Repulsion Energy =            248.6499412443814663
    One-Electron Energy =               -1358.4891719636202652
    Two-Electron Energy =                 482.0948541566615404
    Total Energy =                       -627.7443765625773722

  Dipole Moment: [D]
     X:     0.6460      Y:    -3.2008      Z:     1.5921     Total:     3.6328

  Basis Set: (AUG-CC-PVQZ AUX)
    Blend: AUG-CC-PVQZ-RI
	 Reference Energy          =    -627.7443765625773722 [Eh]
	 Singles Energy            =      -0.0000000000000000 [Eh]
	 Same-Spin Energy          =      -0.3003330003203975 [Eh]
	 Opposite-Spin Energy      =      -1.0164412452151512 [Eh]
	 Correlation Energy        =      -1.3167742455355487 [Eh]
	 Total Energy              =    -629.0611508081128704 [Eh]

	 ================> DF-SCS-MP2 Energies <==================
	-----------------------------------------------------------
	 SCS Same-Spin Scale       =       0.3333333333333333 [-]
	 SCS Opposite-Spin Scale   =       1.2000000000000000 [-]
	 SCS Same-Spin Energy      =      -0.1001110001067992 [Eh]
	 SCS Opposite-Spin Energy  =      -1.2197294942581813 [Eh]
	 SCS Correlation Energy    =      -1.3198404943649804 [Eh]
	 SCS Total Energy          =    -629.0642170569423115 [Eh]
	-----------------------------------------------------------

*** Psi4 exiting successfully. Buy a developer a beer!
