                               Psi4 1.4a2.dev224

  ==> Input File <==

--------------------------------------------------------------------------
#Generated by lconvert.py for cbs job

memory 40 GB

molecule  {
0 1
  C       -3.2289460    -0.5624140     0.9038820
  O       -1.6145690     1.5396420     0.8254430
  S       -2.0221710     0.4454340     1.7798090
  C       -0.6847700    -0.7578760     1.7288330
  H       -3.4898540    -1.4266920     1.5114930
  H       -4.0973420     0.0694820     0.7363400
  H       -2.7987240    -0.8605900    -0.0502470
  H       -0.9666940    -1.6476190     2.2883110
  H       -0.4795180    -0.9906350     0.6859440
  H        0.1827710    -0.2879750     2.1838340
--
0 1
  O       -4.1411800     2.3425810    -0.2106600
  H       -3.2099800     2.2702960     0.0516510
  H       -4.2830230     3.2843670    -0.3146330
units angstrom
no_reorient
symmetry c1
}

set {
scf_type DF
mp2_type DF
e_convergence 7
reference rhf
}

energy('mp2/aug-cc-pv[tq]z', bsse_type='cp')
--------------------------------------------------------------------------

    Molecular point group: c1
  Charge       = 0
  Multiplicity = 1
  Basis Set: AUG-CC-PVTZ
    Blend: AUG-CC-PVTZ
  Basis Set: (AUG-CC-PVTZ AUX)
    Blend: AUG-CC-PVTZ-JKFIT
  @DF-RHF Final Energy:   -76.05997579706732
    Total Energy =                        -76.0599757970673096
  Basis Set: (AUG-CC-PVTZ AUX)
    Blend: AUG-CC-PVTZ-RI
	 Reference Energy          =     -76.0599757970673238 [Eh]
	 Singles Energy            =      -0.0000000000000000 [Eh]
	 Same-Spin Energy          =      -0.0684605921794396 [Eh]
	 Opposite-Spin Energy      =      -0.2155328083287217 [Eh]
	 Correlation Energy        =      -0.2839934005081612 [Eh]
	 Total Energy              =     -76.3439691975754897 [Eh]
	 SCS Total Energy          =     -76.3414353644549379 [Eh]
    Molecular point group: c1
  Basis Set: AUG-CC-PVQZ
    Blend: AUG-CC-PVQZ
  Basis Set: (AUG-CC-PVQZ AUX)
    Blend: AUG-CC-PVQZ-JKFIT
  @DF-RHF Final Energy:   -76.06533507660635
    Total Energy =                        -76.0653350766063454
  Basis Set: (AUG-CC-PVQZ AUX)
  @DF-RHF Final Energy:   -76.06005985282926
    Total Energy =                        -76.0600598528292551
  @DF-RHF Final Energy:   -76.06536826740970
    Total Energy =                        -76.0653682674097098
  @DF-RHF Final Energy:  -551.65327951365168
    Total Energy =                       -551.6532795136517962
  @DF-RHF Final Energy:  -551.67092042841864
    Total Energy =                       -551.6709204284186399
  @DF-RHF Final Energy:  -551.65319247073921
    Total Energy =                       -551.6531924707392136
  @DF-RHF Final Energy:  -551.67088075952984
    Total Energy =                       -551.6708807595298367
  Multiplicity = 1
  @DF-RHF Final Energy:  -627.72348028080205
    Total Energy =                       -627.7234802808020504
	 Singles Energy            =      -0.0000000000000000 [Eh]
	 Same-Spin Energy          =      -0.2813223804043343 [Eh]
	 Opposite-Spin Energy      =      -0.9006111779093785 [Eh]
	 Correlation Energy        =      -1.1819335583137129 [Eh]
	 Total Energy              =    -628.9054138391157949 [Eh]
	 SCS Total Energy          =    -628.8979878210947163 [Eh]
    Molecular point group: c1

    Geometry (in Angstrom), charge = 0, multiplicity = 1:

       Center              X                  Y                   Z               Mass
    ------------   -----------------  -----------------  -----------------  -----------------
         C           -0.906908884245    -1.196706704144    -0.194570524442    12.000000000000
         O            0.707468115755     0.905349295856    -0.273009524442    15.994914619570
         S            0.299866115755    -0.188858704144     0.681356475558    31.972071174400
         C            1.637267115755    -1.392168704144     0.630380475558    12.000000000000
         H           -1.167816884245    -2.060984704144     0.413040475558     1.007825032230
         H           -1.775304884245    -0.564810704144    -0.362112524442     1.007825032230
         H           -0.476686884245    -1.494882704144    -1.148699524442     1.007825032230
         H            1.355343115755    -2.281911704144     1.189858475558     1.007825032230
         H            1.842519115755    -1.624927704144    -0.412508524442     1.007825032230
         H            2.504808115755    -0.922267704144     1.085381475558     1.007825032230
         O           -1.819142884245     1.708288295856    -1.309112524442    15.994914619570
         H           -0.887942884245     1.636003295856    -1.046801524442     1.007825032230
         H           -1.960985884245     2.650074295856    -1.413085524442     1.007825032230

  Charge       = 0
  Multiplicity = 1
  Basis Set: AUG-CC-PVQZ
    Blend: AUG-CC-PVQZ
  Basis Set: (AUG-CC-PVQZ AUX)
    Blend: AUG-CC-PVQZ-JKFIT

    Orbital Energies [Eh]
    ---------------------

    Doubly Occupied:

       1A    -92.071760     2A    -20.529655     3A    -20.512894
       4A    -11.266689     5A    -11.258650     6A     -9.059870
       7A     -6.741979     8A     -6.741726     9A     -6.740415
      10A     -1.344497    11A     -1.317195    12A     -1.072313
      13A     -0.979724    14A     -0.823426    15A     -0.690030
      16A     -0.648833    17A     -0.635525    18A     -0.623393
      19A     -0.589596    20A     -0.571430    21A     -0.564956
      22A     -0.539916    23A     -0.522182    24A     -0.478999
      25A     -0.432082    26A     -0.380429

  @DF-RHF Final Energy:  -627.74642873160906

   => Energetics <=

    Nuclear Repulsion Energy =            257.1792871030480683
    One-Electron Energy =               -1375.5750907587632810
    Two-Electron Energy =                 490.6493749241060414
    Total Energy =                       -627.7464287316090576

  Dipole Moment: [D]
     X:     0.7897      Y:    -3.3557      Z:     1.6985     Total:     3.8431

  Basis Set: (AUG-CC-PVQZ AUX)
    Blend: AUG-CC-PVQZ-RI
	 Reference Energy          =    -627.7464287316090576 [Eh]
	 Singles Energy            =      -0.0000000000000000 [Eh]
	 Same-Spin Energy          =      -0.3017946284861315 [Eh]
	 Opposite-Spin Energy      =      -1.0176203742018357 [Eh]
	 Correlation Energy        =      -1.3194150026879672 [Eh]
	 Total Energy              =    -629.0658437342970046 [Eh]

	 ================> DF-SCS-MP2 Energies <==================
	-----------------------------------------------------------
	 SCS Same-Spin Scale       =       0.3333333333333333 [-]
	 SCS Opposite-Spin Scale   =       1.2000000000000000 [-]
	 SCS Same-Spin Energy      =      -0.1005982094953772 [Eh]
	 SCS Opposite-Spin Energy  =      -1.2211444490422028 [Eh]
	 SCS Correlation Energy    =      -1.3217426585375800 [Eh]
	 SCS Total Energy          =    -629.0681713901466310 [Eh]
	-----------------------------------------------------------

*** Psi4 exiting successfully. Buy a developer a beer!
