                               Psi4 1.4a2.dev224

  ==> Input File <==

--------------------------------------------------------------------------
#Generated by lconvert.py for cbs job

memory 40 GB

molecule  {
0 1
  C       -3.2289460    -0.5624140     0.9038820
  O       -1.6145690     1.5396420     0.8254430
  S       -2.0221710     0.4454340     1.7798090
  C       -0.6847700    -0.7578760     1.7288330
  H       -3.4898540    -1.4266920     1.5114930
  H       -4.0973420     0.0694820     0.7363400
  H       -2.7987240    -0.8605900    -0.0502470
  H       -0.9666940    -1.6476190     2.2883110
  H       -0.4795180    -0.9906350     0.6859440
  H        0.1827710    -0.2879750     2.1838340
--
0 1
  O       -3.6625570     2.1233850     0.0214780
  H       -2.7313570     2.0511000     0.2837890
  H       -3.8044000     3.0651710    -0.0824950
units angstrom
no_reorient
symmetry c1
}

set {
scf_type DF
mp2_type DF
e_convergence 7
reference rhf
}

energy('mp2/aug-cc-pv[tq]z', bsse_type='cp')
--------------------------------------------------------------------------

    Molecular point group: c1
  Charge       = 0
  Multiplicity = 1
  Basis Set: AUG-CC-PVTZ
    Blend: AUG-CC-PVTZ
  Basis Set: (AUG-CC-PVTZ AUX)
    Blend: AUG-CC-PVTZ-JKFIT
  @DF-RHF Final Energy:   -76.05997579706151
    Total Energy =                        -76.0599757970615116
  Basis Set: (AUG-CC-PVTZ AUX)
    Blend: AUG-CC-PVTZ-RI
	 Reference Energy          =     -76.0599757970615116 [Eh]
	 Singles Energy            =      -0.0000000000000000 [Eh]
	 Same-Spin Energy          =      -0.0684605921794331 [Eh]
	 Opposite-Spin Energy      =      -0.2155328083286911 [Eh]
	 Correlation Energy        =      -0.2839934005081242 [Eh]
	 Total Energy              =     -76.3439691975696348 [Eh]
	 SCS Total Energy          =     -76.3414353644490831 [Eh]
    Molecular point group: c1
  Basis Set: AUG-CC-PVQZ
    Blend: AUG-CC-PVQZ
  Basis Set: (AUG-CC-PVQZ AUX)
    Blend: AUG-CC-PVQZ-JKFIT
  @DF-RHF Final Energy:   -76.06533507660323
    Total Energy =                        -76.0653350766032332
  Basis Set: (AUG-CC-PVQZ AUX)
  @DF-RHF Final Energy:   -76.06012160675586
    Total Energy =                        -76.0601216067558710
  @DF-RHF Final Energy:   -76.06538669705932
    Total Energy =                        -76.0653866970593242
  @DF-RHF Final Energy:  -551.65337494517962
    Total Energy =                       -551.6533749451796211
  @DF-RHF Final Energy:  -551.67094892677017
    Total Energy =                       -551.6709489267700519
  @DF-RHF Final Energy:  -551.65319247057744
    Total Energy =                       -551.6531924705775509
  @DF-RHF Final Energy:  -551.67088075880270
    Total Energy =                       -551.6708807588026957
  @DF-RHF Final Energy:  -627.69871341202838
    Total Energy =                       -627.6987134120283827
  @DF-RHF Final Energy:  -627.72151124250877
    Total Energy =                       -627.7215112425087682
*** Psi4 exiting successfully. Buy a developer a beer!
                               Psi4 1.4a2.dev224
  @DF-RHF Final Energy:   -76.05997579705422
    Total Energy =                        -76.0599757970542214
  @DF-RHF Final Energy:   -76.06533507663613
    Total Energy =                        -76.0653350766361314
  @DF-RHF Final Energy:   -76.06009657591655
    Total Energy =                        -76.0600965759165604
  @DF-RHF Final Energy:   -76.06537931915929
    Total Energy =                        -76.0653793191592911
  @DF-RHF Final Energy:  -551.65333816271709
    Total Energy =                       -551.6533381627170911
  @DF-RHF Final Energy:  -551.67093810782080
    Total Energy =                       -551.6709381078208025
  @DF-RHF Final Energy:  -551.65319247067305
    Total Energy =                       -551.6531924706730479
  @DF-RHF Final Energy:  -551.67088075866570
    Total Energy =                       -551.6708807586657031
  @DF-RHF Final Energy:  -627.71489868986509
    Total Energy =                       -627.7148986898650946
  @DF-RHF Final Energy:  -627.73774043873743
    Total Energy =                       -627.7377404387374327
*** Psi4 exiting successfully. Buy a developer a beer!
                               Psi4 1.4a2.dev224
                               Psi4 1.4a2.dev224
                               Psi4 1.4a2.dev224
                               Psi4 1.4a2.dev224
                               Psi4 1.4a2.dev224
                               Psi4 1.4a2.dev224
                               Psi4 1.4a2.dev224
  @DF-RHF Final Energy:   -76.05997568862217
    Total Energy =                        -76.0599756886221883
  @DF-RHF Final Energy:   -76.06533496226187
    Total Energy =                        -76.0653349622618720
  @DF-RHF Final Energy:   -76.05999868271159
    Total Energy =                        -76.0599986827115941
  @DF-RHF Final Energy:   -76.06534734683287
    Total Energy =                        -76.0653473468328656
  @DF-RHF Final Energy:  -551.65322381079773
    Total Energy =                       -551.6532238107977264
  @DF-RHF Final Energy:  -551.67089558734142
    Total Energy =                       -551.6708955873414197
  @DF-RHF Final Energy:  -551.65319230849934
    Total Energy =                       -551.6531923084992286
  @DF-RHF Final Energy:  -551.67088053736370
    Total Energy =                       -551.6708805373637006
  @DF-RHF Final Energy:  -627.71830492507809
    Total Energy =                       -627.7183049250780869
  @DF-RHF Final Energy:  -627.74129433315215
    Total Energy =                       -627.7412943331521546
*** Psi4 exiting successfully. Buy a developer a beer!
                               Psi4 1.4a2.dev224
  @DF-RHF Final Energy:   -76.05997602458034
    Total Energy =                        -76.0599760245803509
  @DF-RHF Final Energy:   -76.06533532082847
    Total Energy =                        -76.0653353208284670
  @DF-RHF Final Energy:   -76.05999103039881
    Total Energy =                        -76.0599910303988054
  @DF-RHF Final Energy:   -76.06534180443828
    Total Energy =                        -76.0653418044382619
  @DF-RHF Final Energy:  -551.65320934143040
    Total Energy =                       -551.6532093414303972
  @DF-RHF Final Energy:  -551.67088928253111
    Total Energy =                       -551.6708892825311068
  @DF-RHF Final Energy:  -551.65319230801163
    Total Energy =                       -551.6531923080116258
  @DF-RHF Final Energy:  -551.67088053811528
    Total Energy =                       -551.6708805381153979
  Multiplicity = 1
  @DF-RHF Final Energy:  -627.71637255853739
    Total Energy =                       -627.7163725585373868
	 Singles Energy            =      -0.0000000000000000 [Eh]
	 Same-Spin Energy          =      -0.2789947483297863 [Eh]
	 Opposite-Spin Energy      =      -0.8979940350376296 [Eh]
	 Correlation Energy        =      -1.1769887833674160 [Eh]
	 Total Energy              =    -628.8933613419047788 [Eh]
	 SCS Total Energy          =    -628.8869636500257911 [Eh]
    Molecular point group: c1

    Geometry (in Angstrom), charge = 0, multiplicity = 1:

       Center              X                  Y                   Z               Mass
    ------------   -----------------  -----------------  -----------------  -----------------
         C           -0.637597790229    -1.320039739642    -0.063949542974    12.000000000000
         O            0.976782209771     0.782010260358    -0.142389542974    15.994914619570
         S            0.569182209771    -0.312199739642     0.811980457026    31.972071174400
         C            1.906582209771    -1.515509739642     0.761000457026    12.000000000000
         H           -0.898497790229    -2.184319739642     0.543660457026     1.007825032230
         H           -1.505987790229    -0.688149739642    -0.231489542974     1.007825032230
         H           -0.207367790229    -1.618219739642    -1.018079542974     1.007825032230
         H            1.624662209771    -2.405249739642     1.320480457026     1.007825032230
         H            2.111832209771    -1.748269739642    -0.281889542974     1.007825032230
         H            2.774122209771    -1.045599739642     1.216000457026     1.007825032230
         O           -2.985697790229     2.242540260358    -1.874909542974    15.994914619570
         H           -2.054497790229     2.170250260358    -1.612599542974     1.007825032230
         H           -3.127537790229     3.184320260358    -1.978879542974     1.007825032230

  Charge       = 0
  Multiplicity = 1
  Basis Set: AUG-CC-PVQZ
    Blend: AUG-CC-PVQZ
  Basis Set: (AUG-CC-PVQZ AUX)
    Blend: AUG-CC-PVQZ-JKFIT

    Orbital Energies [Eh]
    ---------------------

    Doubly Occupied:

       1A    -92.067692     2A    -20.557025     3A    -20.503801
       4A    -11.263280     5A    -11.262664     6A     -9.055462
       7A     -6.737649     8A     -6.737334     9A     -6.735997
      10A     -1.340874    11A     -1.331405    12A     -1.069143
      13A     -0.979725    14A     -0.819293    15A     -0.704681
      16A     -0.647386    17A     -0.632139    18A     -0.625011
      19A     -0.589716    20A     -0.576373    21A     -0.563597
      22A     -0.547338    23A     -0.515245    24A     -0.501597
      25A     -0.422408    26A     -0.373177

  @DF-RHF Final Energy:  -627.73938500829661

   => Energetics <=

    Nuclear Repulsion Energy =            236.7961761652951793
    One-Electron Energy =               -1334.7510874654390136
    Two-Electron Energy =                 470.2155262918471408
    Total Energy =                       -627.7393850082966082

  Dipole Moment: [D]
     X:     0.5844      Y:    -3.0833      Z:     1.5295     Total:     3.4910

  Basis Set: (AUG-CC-PVQZ AUX)
    Blend: AUG-CC-PVQZ-RI
	 Reference Energy          =    -627.7393850082966082 [Eh]
	 Singles Energy            =      -0.0000000000000000 [Eh]
	 Same-Spin Energy          =      -0.2995376961894913 [Eh]
	 Opposite-Spin Energy      =      -1.0157881536351883 [Eh]
	 Correlation Energy        =      -1.3153258498246796 [Eh]
	 Total Energy              =    -629.0547108581213251 [Eh]

	 ================> DF-SCS-MP2 Energies <==================
	-----------------------------------------------------------
	 SCS Same-Spin Scale       =       0.3333333333333333 [-]
	 SCS Opposite-Spin Scale   =       1.2000000000000000 [-]
	 SCS Same-Spin Energy      =      -0.0998458987298304 [Eh]
	 SCS Opposite-Spin Energy  =      -1.2189457843622258 [Eh]
	 SCS Correlation Energy    =      -1.3187916830920563 [Eh]
	 SCS Total Energy          =    -629.0581766913886668 [Eh]
	-----------------------------------------------------------

*** Psi4 exiting successfully. Buy a developer a beer!
