                               Psi4 1.4a2.dev224

  ==> Input File <==

--------------------------------------------------------------------------
#Generated by lconvert.py for cbs job

memory 40 GB

molecule  {
0 1
  C       -3.2289460    -0.5624140     0.9038820
  O       -1.6145690     1.5396420     0.8254430
  S       -2.0221710     0.4454340     1.7798090
  C       -0.6847700    -0.7578760     1.7288330
  H       -3.4898540    -1.4266920     1.5114930
  H       -4.0973420     0.0694820     0.7363400
  H       -2.7987240    -0.8605900    -0.0502470
  H       -0.9666940    -1.6476190     2.2883110
  H       -0.4795180    -0.9906350     0.6859440
  H        0.1827710    -0.2879750     2.1838340
--
0 1
  O       -4.3007210     2.4156460    -0.2880390
  H       -3.3695210     2.3433610    -0.0257280
  H       -4.4425640     3.3574320    -0.3920120
units angstrom
no_reorient
symmetry c1
}

set {
scf_type DF
mp2_type DF
e_convergence 7
reference rhf
}

energy('mp2/aug-cc-pv[tq]z', bsse_type='cp')
--------------------------------------------------------------------------

    Molecular point group: c1
  Charge       = 0
  Multiplicity = 1
  Basis Set: AUG-CC-PVTZ
    Blend: AUG-CC-PVTZ
  Basis Set: (AUG-CC-PVTZ AUX)
    Blend: AUG-CC-PVTZ-JKFIT
  @DF-RHF Final Energy:   -76.05997579706059
    Total Energy =                        -76.0599757970605879
  Basis Set: (AUG-CC-PVTZ AUX)
    Blend: AUG-CC-PVTZ-RI
	 Reference Energy          =     -76.0599757970605879 [Eh]
	 Singles Energy            =      -0.0000000000000000 [Eh]
	 Same-Spin Energy          =      -0.0684605921794500 [Eh]
	 Opposite-Spin Energy      =      -0.2155328083286967 [Eh]
	 Correlation Energy        =      -0.2839934005081467 [Eh]
	 Total Energy              =     -76.3439691975687396 [Eh]
	 SCS Total Energy          =     -76.3414353644481736 [Eh]
    Molecular point group: c1
  Basis Set: AUG-CC-PVQZ
    Blend: AUG-CC-PVQZ
  Basis Set: (AUG-CC-PVQZ AUX)
    Blend: AUG-CC-PVQZ-JKFIT
  @DF-RHF Final Energy:   -76.06533507659435
    Total Energy =                        -76.0653350765943514
  Basis Set: (AUG-CC-PVQZ AUX)
  @DF-RHF Final Energy:   -76.06004589075641
    Total Energy =                        -76.0600458907564132
  @DF-RHF Final Energy:   -76.06536322139583
    Total Energy =                        -76.0653632213958133
  @DF-RHF Final Energy:  -551.65326544224320
    Total Energy =                       -551.6532654422433097
  @DF-RHF Final Energy:  -551.67091457513493
    Total Energy =                       -551.6709145751349297
  @DF-RHF Final Energy:  -551.65319247032880
    Total Energy =                       -551.6531924703288041
  @DF-RHF Final Energy:  -551.67088075923778
    Total Energy =                       -551.6708807592378889
  Multiplicity = 1
  @DF-RHF Final Energy:  -627.72344714200256
    Total Energy =                       -627.7234471420025557
	 Singles Energy            =      -0.0000000000000000 [Eh]
	 Same-Spin Energy          =      -0.2806751813371354 [Eh]
	 Opposite-Spin Energy      =      -0.8999494527554980 [Eh]
	 Correlation Energy        =      -1.1806246340926334 [Eh]
	 Total Energy              =    -628.9040717760951793 [Eh]
	 SCS Total Energy          =    -628.8969448790882097 [Eh]
    Molecular point group: c1

    Geometry (in Angstrom), charge = 0, multiplicity = 1:

       Center              X                  Y                   Z               Mass
    ------------   -----------------  -----------------  -----------------  -----------------
         C           -0.876985026478    -1.210410934829    -0.180057150512    12.000000000000
         O            0.737391973522     0.891645065171    -0.258496150512    15.994914619570
         S            0.329789973522    -0.202562934829     0.695869849488    31.972071174400
         C            1.667190973522    -1.405872934829     0.644893849488    12.000000000000
         H           -1.137893026478    -2.074688934829     0.427553849488     1.007825032230
         H           -1.745381026478    -0.578514934829    -0.347599150512     1.007825032230
         H           -0.446763026478    -1.508586934829    -1.134186150512     1.007825032230
         H            1.385266973522    -2.295615934829     1.204371849488     1.007825032230
         H            1.872442973522    -1.638631934829    -0.397995150512     1.007825032230
         H            2.534731973522    -0.935971934829     1.099894849488     1.007825032230
         O           -1.948760026478     1.767649065171    -1.371978150512    15.994914619570
         H           -1.017560026478     1.695364065171    -1.109667150512     1.007825032230
         H           -2.090603026478     2.709435065171    -1.475951150512     1.007825032230

  Charge       = 0
  Multiplicity = 1
  Basis Set: AUG-CC-PVQZ
    Blend: AUG-CC-PVQZ
  Basis Set: (AUG-CC-PVQZ AUX)
    Blend: AUG-CC-PVQZ-JKFIT

    Orbital Energies [Eh]
    ---------------------

    Doubly Occupied:

       1A    -92.070734     2A    -20.536949     3A    -20.511166
       4A    -11.265765     5A    -11.259396     6A     -9.058755
       7A     -6.740883     8A     -6.740613     9A     -6.739301
      10A     -1.340828    11A     -1.323104    12A     -1.071353
      13A     -0.979596    14A     -0.822133    15A     -0.691659
      16A     -0.648352    17A     -0.634112    18A     -0.624702
      19A     -0.589499    20A     -0.569900    21A     -0.565430
      22A     -0.543256    23A     -0.521131    24A     -0.484676
      25A     -0.430248    26A     -0.378680

  @DF-RHF Final Energy:  -627.74640384898794

   => Energetics <=

    Nuclear Repulsion Energy =            254.0735324781276461
    One-Electron Energy =               -1369.3554163532887742
    Two-Electron Energy =                 487.5354800261732748
    Total Energy =                       -627.7464038489879385

  Dipole Moment: [D]
     X:     0.7218      Y:    -3.2882      Z:     1.6507     Total:     3.7494

  Basis Set: (AUG-CC-PVQZ AUX)
    Blend: AUG-CC-PVQZ-RI
	 Reference Energy          =    -627.7464038489879385 [Eh]
	 Singles Energy            =      -0.0000000000000000 [Eh]
	 Same-Spin Energy          =      -0.3011490082414890 [Eh]
	 Opposite-Spin Energy      =      -1.0171054326921904 [Eh]
	 Correlation Energy        =      -1.3182544409336794 [Eh]
	 Total Energy              =    -629.0646582899215673 [Eh]

	 ================> DF-SCS-MP2 Energies <==================
	-----------------------------------------------------------
	 SCS Same-Spin Scale       =       0.3333333333333333 [-]
	 SCS Opposite-Spin Scale   =       1.2000000000000000 [-]
	 SCS Same-Spin Energy      =      -0.1003830027471630 [Eh]
	 SCS Opposite-Spin Energy  =      -1.2205265192306285 [Eh]
	 SCS Correlation Energy    =      -1.3209095219777915 [Eh]
	 SCS Total Energy          =    -629.0673133709657350 [Eh]
	-----------------------------------------------------------

*** Psi4 exiting successfully. Buy a developer a beer!
