                               Psi4 1.4a2.dev224

  ==> Input File <==

--------------------------------------------------------------------------
#Generated by lconvert.py for cbs job

memory 40 GB

molecule  {
0 1
  C       -3.2289460    -0.5624140     0.9038820
  O       -1.6145690     1.5396420     0.8254430
  S       -2.0221710     0.4454340     1.7798090
  C       -0.6847700    -0.7578760     1.7288330
  H       -3.4898540    -1.4266920     1.5114930
  H       -4.0973420     0.0694820     0.7363400
  H       -2.7987240    -0.8605900    -0.0502470
  H       -0.9666940    -1.6476190     2.2883110
  H       -0.4795180    -0.9906350     0.6859440
  H        0.1827710    -0.2879750     2.1838340
--
0 1
  O       -4.0614090     2.3060480    -0.1719700
  H       -3.1302090     2.2337630     0.0903410
  H       -4.2032520     3.2478340    -0.2759430
units angstrom
no_reorient
symmetry c1
}

set {
scf_type DF
mp2_type DF
e_convergence 7
reference rhf
}

energy('mp2/aug-cc-pv[tq]z', bsse_type='cp')
--------------------------------------------------------------------------

    Molecular point group: c1
  Charge       = 0
  Multiplicity = 1
  Basis Set: AUG-CC-PVTZ
    Blend: AUG-CC-PVTZ
  Basis Set: (AUG-CC-PVTZ AUX)
    Blend: AUG-CC-PVTZ-JKFIT
  @DF-RHF Final Energy:   -76.05997579705047
    Total Energy =                        -76.0599757970504697
  Basis Set: (AUG-CC-PVTZ AUX)
    Blend: AUG-CC-PVTZ-RI
	 Reference Energy          =     -76.0599757970504697 [Eh]
	 Singles Energy            =      -0.0000000000000000 [Eh]
	 Same-Spin Energy          =      -0.0684605921794266 [Eh]
	 Opposite-Spin Energy      =      -0.2155328083286819 [Eh]
	 Correlation Energy        =      -0.2839934005081085 [Eh]
	 Total Energy              =     -76.3439691975585788 [Eh]
	 SCS Total Energy          =     -76.3414353644380270 [Eh]
    Molecular point group: c1
  Basis Set: AUG-CC-PVQZ
    Blend: AUG-CC-PVQZ
  Basis Set: (AUG-CC-PVQZ AUX)
    Blend: AUG-CC-PVQZ-JKFIT
  @DF-RHF Final Energy:   -76.06533507662205
    Total Energy =                        -76.0653350766220484
  Basis Set: (AUG-CC-PVQZ AUX)
  @DF-RHF Final Energy:   -76.06006840568199
    Total Energy =                        -76.0600684056819887
  @DF-RHF Final Energy:   -76.06537084970212
    Total Energy =                        -76.0653708497021057
  @DF-RHF Final Energy:  -551.65329199624477
    Total Energy =                       -551.6532919962446613
  @DF-RHF Final Energy:  -551.67092482400767
    Total Energy =                       -551.6709248240076704
  @DF-RHF Final Energy:  -551.65319247036973
    Total Energy =                       -551.6531924703697314
  @DF-RHF Final Energy:  -551.67088075921072
    Total Energy =                       -551.6708807592106041
  Multiplicity = 1
  @DF-RHF Final Energy:  -627.72284557164232
    Total Energy =                       -627.7228455716423241
	 Singles Energy            =      -0.0000000000000000 [Eh]
	 Same-Spin Energy          =      -0.2817240243916985 [Eh]
	 Opposite-Spin Energy      =      -0.9009940013891041 [Eh]
	 Correlation Energy        =      -1.1827180257808028 [Eh]
	 Total Energy              =    -628.9055635974231109 [Eh]
	 SCS Total Energy          =    -628.8979463814398514 [Eh]
    Molecular point group: c1

    Geometry (in Angstrom), charge = 0, multiplicity = 1:

       Center              X                  Y                   Z               Mass
    ------------   -----------------  -----------------  -----------------  -----------------
         C           -0.921870906910    -1.189854495020    -0.201827305188    12.000000000000
         O            0.692506093090     0.912201504980    -0.280266305188    15.994914619570
         S            0.284904093090    -0.182006495020     0.674099694812    31.972071174400
         C            1.622305093090    -1.385316495020     0.623123694812    12.000000000000
         H           -1.182778906910    -2.054132495020     0.405783694812     1.007825032230
         H           -1.790266906910    -0.557958495020    -0.369369305188     1.007825032230
         H           -0.491648906910    -1.488030495020    -1.155956305188     1.007825032230
         H            1.340381093090    -2.275059495020     1.182601694812     1.007825032230
         H            1.827557093090    -1.618075495020    -0.419765305188     1.007825032230
         H            2.489846093090    -0.915415495020     1.078124694812     1.007825032230
         O           -1.754333906910     1.678607504980    -1.277679305188    15.994914619570
         H           -0.823133906910     1.606322504980    -1.015368305188     1.007825032230
         H           -1.896176906910     2.620393504980    -1.381652305188     1.007825032230

  Charge       = 0
  Multiplicity = 1
  Basis Set: AUG-CC-PVQZ
    Blend: AUG-CC-PVQZ
  Basis Set: (AUG-CC-PVQZ AUX)
    Blend: AUG-CC-PVQZ-JKFIT

    Orbital Energies [Eh]
    ---------------------

    Doubly Occupied:

       1A    -92.072415     2A    -20.524983     3A    -20.513835
       4A    -11.267294     5A    -11.258290     6A     -9.060581
       7A     -6.742679     8A     -6.742436     9A     -6.741125
      10A     -1.346983    11A     -1.313505    12A     -1.072984
      13A     -0.979855    14A     -0.824340    15A     -0.689778
      16A     -0.649193    17A     -0.636467    18A     -0.622384
      19A     -0.589711    20A     -0.572268    21A     -0.565070
      22A     -0.537966    23A     -0.522291    24A     -0.475471
      25A     -0.432938    26A     -0.381517

  @DF-RHF Final Energy:  -627.74577633646584

   => Energetics <=

    Nuclear Repulsion Energy =            258.8481842197178935
    One-Electron Energy =               -1378.9151884785269431
    Two-Electron Energy =                 492.3212279223431551
    Total Energy =                       -627.7457763364658376

  Dipole Moment: [D]
     X:     0.8353      Y:    -3.3988      Z:     1.7293     Total:     3.9039

  Basis Set: (AUG-CC-PVQZ AUX)
    Blend: AUG-CC-PVQZ-RI
	 Reference Energy          =    -627.7457763364658376 [Eh]
	 Singles Energy            =      -0.0000000000000000 [Eh]
	 Same-Spin Energy          =      -0.3021994766154181 [Eh]
	 Opposite-Spin Energy      =      -1.0179385619711716 [Eh]
	 Correlation Energy        =      -1.3201380385865897 [Eh]
	 Total Energy              =    -629.0659143750524436 [Eh]

	 ================> DF-SCS-MP2 Energies <==================
	-----------------------------------------------------------
	 SCS Same-Spin Scale       =       0.3333333333333333 [-]
	 SCS Opposite-Spin Scale   =       1.2000000000000000 [-]
	 SCS Same-Spin Energy      =      -0.1007331588718060 [Eh]
	 SCS Opposite-Spin Energy  =      -1.2215262743654058 [Eh]
	 SCS Correlation Energy    =      -1.3222594332372120 [Eh]
	 SCS Total Energy          =    -629.0680357697031013 [Eh]
	-----------------------------------------------------------

*** Psi4 exiting successfully. Buy a developer a beer!
