                               Psi4 1.4a2.dev224

  ==> Input File <==

--------------------------------------------------------------------------
#Generated by lconvert.py for cbs job

memory 40 GB

molecule  {
0 1
  C       -3.2289460    -0.5624140     0.9038820
  O       -1.6145690     1.5396420     0.8254430
  S       -2.0221710     0.4454340     1.7798090
  C       -0.6847700    -0.7578760     1.7288330
  H       -3.4898540    -1.4266920     1.5114930
  H       -4.0973420     0.0694820     0.7363400
  H       -2.7987240    -0.8605900    -0.0502470
  H       -0.9666940    -1.6476190     2.2883110
  H       -0.4795180    -0.9906350     0.6859440
  H        0.1827710    -0.2879750     2.1838340
--
0 1
  O       -3.9816390     2.2695160    -0.1332810
  H       -3.0504390     2.1972310     0.1290300
  H       -4.1234820     3.2113020    -0.2372540
units angstrom
no_reorient
symmetry c1
}

set {
scf_type DF
mp2_type DF
e_convergence 7
reference rhf
}

energy('mp2/aug-cc-pv[tq]z', bsse_type='cp')
--------------------------------------------------------------------------

    Molecular point group: c1
  Charge       = 0
  Multiplicity = 1
  Basis Set: AUG-CC-PVTZ
    Blend: AUG-CC-PVTZ
  Basis Set: (AUG-CC-PVTZ AUX)
    Blend: AUG-CC-PVTZ-JKFIT
  @DF-RHF Final Energy:   -76.05997579705672
    Total Energy =                        -76.0599757970567225
  Basis Set: (AUG-CC-PVTZ AUX)
    Blend: AUG-CC-PVTZ-RI
	 Reference Energy          =     -76.0599757970567225 [Eh]
	 Singles Energy            =      -0.0000000000000000 [Eh]
	 Same-Spin Energy          =      -0.0684605921794438 [Eh]
	 Opposite-Spin Energy      =      -0.2155328083286984 [Eh]
	 Correlation Energy        =      -0.2839934005081421 [Eh]
	 Total Energy              =     -76.3439691975648600 [Eh]
	 SCS Total Energy          =     -76.3414353644443082 [Eh]
    Molecular point group: c1
  Basis Set: AUG-CC-PVQZ
    Blend: AUG-CC-PVQZ
  Basis Set: (AUG-CC-PVQZ AUX)
    Blend: AUG-CC-PVQZ-JKFIT
  @DF-RHF Final Energy:   -76.06533507660249
    Total Energy =                        -76.0653350766025085
  Basis Set: (AUG-CC-PVQZ AUX)
  @DF-RHF Final Energy:   -76.06007745739612
    Total Energy =                        -76.0600774573961189
  @DF-RHF Final Energy:   -76.06537348529918
    Total Energy =                        -76.0653734852991619
  @DF-RHF Final Energy:  -551.65330651000227
    Total Energy =                       -551.6533065100022668
  @DF-RHF Final Energy:  -551.67092971333250
    Total Energy =                       -551.6709297133324981
  @DF-RHF Final Energy:  -551.65319247025491
    Total Energy =                       -551.6531924702549077
  @DF-RHF Final Energy:  -551.67088075915046
    Total Energy =                       -551.6708807591504637
  Multiplicity = 1
  @DF-RHF Final Energy:  -627.72146778555543
    Total Energy =                       -627.7214677855554328
	 Singles Energy            =      -0.0000000000000000 [Eh]
	 Same-Spin Energy          =      -0.2821874973832631 [Eh]
	 Opposite-Spin Energy      =      -0.9014102971992159 [Eh]
	 Correlation Energy        =      -1.1835977945824792 [Eh]
	 Total Energy              =    -628.9050655801379435 [Eh]
	 SCS Total Energy          =    -628.8972226413222870 [Eh]
    Molecular point group: c1

    Geometry (in Angstrom), charge = 0, multiplicity = 1:

       Center              X                  Y                   Z               Mass
    ------------   -----------------  -----------------  -----------------  -----------------
         C           -0.936832742013    -1.183002473459    -0.209083898372    12.000000000000
         O            0.677544257987     0.919053526541    -0.287522898372    15.994914619570
         S            0.269942257987    -0.175154473459     0.666843101628    31.972071174400
         C            1.607343257987    -1.378464473459     0.615867101628    12.000000000000
         H           -1.197740742013    -2.047280473459     0.398527101628     1.007825032230
         H           -1.805228742013    -0.551106473459    -0.376625898372     1.007825032230
         H           -0.506610742013    -1.481178473459    -1.163212898372     1.007825032230
         H            1.325419257987    -2.268207473459     1.175345101628     1.007825032230
         H            1.812595257987    -1.611223473459    -0.427021898372     1.007825032230
         H            2.474884257987    -0.908563473459     1.070868101628     1.007825032230
         O           -1.689525742013     1.648927526541    -1.246246898372    15.994914619570
         H           -0.758325742013     1.576642526541    -0.983935898372     1.007825032230
         H           -1.831368742013     2.590713526541    -1.350219898372     1.007825032230

  Charge       = 0
  Multiplicity = 1
  Basis Set: AUG-CC-PVQZ
    Blend: AUG-CC-PVQZ
  Basis Set: (AUG-CC-PVQZ AUX)
    Blend: AUG-CC-PVQZ-JKFIT

    Orbital Energies [Eh]
    ---------------------

    Doubly Occupied:

       1A    -92.073191     2A    -20.519436     3A    -20.514826
       4A    -11.268024     5A    -11.257958     6A     -9.061425
       7A     -6.743510     8A     -6.743278     9A     -6.741967
      10A     -1.350088    11A     -1.309208    12A     -1.073832
      13A     -0.980049    14A     -0.825510    15A     -0.690195
      16A     -0.649668    17A     -0.637576    18A     -0.621096
      19A     -0.589894    20A     -0.573053    21A     -0.565440
      22A     -0.536339    23A     -0.521591    24A     -0.471384
      25A     -0.433624    26A     -0.382783

  @DF-RHF Final Energy:  -627.74437201617650

   => Energetics <=

    Nuclear Repulsion Energy =            260.6027529048514566
    One-Electron Energy =               -1382.4243487296116655
    Two-Electron Energy =                 494.0772238085836534
    Total Energy =                       -627.7443720161764986

  Dipole Moment: [D]
     X:     0.8907      Y:    -3.4500      Z:     1.7660     Total:     3.9767

  Basis Set: (AUG-CC-PVQZ AUX)
    Blend: AUG-CC-PVQZ-RI
	 Reference Energy          =    -627.7443720161764986 [Eh]
	 Singles Energy            =      -0.0000000000000000 [Eh]
	 Same-Spin Energy          =      -0.3026687588363500 [Eh]
	 Opposite-Spin Energy      =      -1.0183043326006378 [Eh]
	 Correlation Energy        =      -1.3209730914369877 [Eh]
	 Total Energy              =    -629.0653451076134388 [Eh]

	 ================> DF-SCS-MP2 Energies <==================
	-----------------------------------------------------------
	 SCS Same-Spin Scale       =       0.3333333333333333 [-]
	 SCS Opposite-Spin Scale   =       1.2000000000000000 [-]
	 SCS Same-Spin Energy      =      -0.1008895862787833 [Eh]
	 SCS Opposite-Spin Energy  =      -1.2219651991207654 [Eh]
	 SCS Correlation Energy    =      -1.3228547853995487 [Eh]
	 SCS Total Energy          =    -629.0672268015759983 [Eh]
	-----------------------------------------------------------

*** Psi4 exiting successfully. Buy a developer a beer!
