                               Psi4 1.4a2.dev224

  ==> Input File <==

--------------------------------------------------------------------------
#Generated by lconvert.py for cbs job

memory 20 GB

molecule  {
0 1
  C      -3.228950   -0.562410    0.903880
  O      -1.614570    1.539640    0.825440
  S      -2.022170    0.445430    1.779810
  C      -0.684770   -0.757880    1.728830
  H      -3.489850   -1.426690    1.511490
  H      -4.097340    0.069480    0.736340
  H      -2.798720   -0.860590   -0.050250
  H      -0.966690   -1.647620    2.288310
  H      -0.479520   -0.990640    0.685940
  H       0.182770   -0.287970    2.183830
--
0 1
  O      -5.098430    2.780970   -0.674940
  H      -4.167230    2.708690   -0.412630
  H      -5.240270    3.722760   -0.778910
units angstrom
no_reorient
symmetry c1
}

set {
scf_type DF
mp2_type DF
e_convergence 7
reference rhf
}

energy('mp2/aug-cc-pv[tq]z', bsse_type='cp')
--------------------------------------------------------------------------

    Molecular point group: c1
  Charge       = 0
  Multiplicity = 1
  Basis Set: AUG-CC-PVTZ
    Blend: AUG-CC-PVTZ
  Basis Set: (AUG-CC-PVTZ AUX)
    Blend: AUG-CC-PVTZ-JKFIT
  @DF-RHF Final Energy:   -76.05997568862217
    Total Energy =                        -76.0599756886221883
  Basis Set: (AUG-CC-PVTZ AUX)
    Blend: AUG-CC-PVTZ-RI
	 Reference Energy          =     -76.0599756886221741 [Eh]
	 Singles Energy            =      -0.0000000000000000 [Eh]
	 Same-Spin Energy          =      -0.0684606256704137 [Eh]
	 Opposite-Spin Energy      =      -0.2155329064128403 [Eh]
	 Correlation Energy        =      -0.2839935320832541 [Eh]
	 Total Energy              =     -76.3439692207054321 [Eh]
	 SCS Total Energy          =     -76.3414353848743872 [Eh]
    Molecular point group: c1
  Basis Set: AUG-CC-PVQZ
    Blend: AUG-CC-PVQZ
  Basis Set: (AUG-CC-PVQZ AUX)
    Blend: AUG-CC-PVQZ-JKFIT
  @DF-RHF Final Energy:   -76.06533496226187
    Total Energy =                        -76.0653349622618720
  Basis Set: (AUG-CC-PVQZ AUX)
  @DF-RHF Final Energy:   -76.05999868271159
    Total Energy =                        -76.0599986827115941
  @DF-RHF Final Energy:   -76.06534734683287
    Total Energy =                        -76.0653473468328656
  @DF-RHF Final Energy:  -551.65322381079773
    Total Energy =                       -551.6532238107977264
  @DF-RHF Final Energy:  -551.67089558734142
    Total Energy =                       -551.6708955873414197
  @DF-RHF Final Energy:  -551.65319230849934
    Total Energy =                       -551.6531923084992286
  @DF-RHF Final Energy:  -551.67088053736370
    Total Energy =                       -551.6708805373637006
  Multiplicity = 1
  @DF-RHF Final Energy:  -627.71830492507809
    Total Energy =                       -627.7183049250780869
	 Singles Energy            =      -0.0000000000000000 [Eh]
	 Same-Spin Energy          =      -0.2792352405656547 [Eh]
	 Opposite-Spin Energy      =      -0.8983156640986322 [Eh]
	 Correlation Energy        =      -1.1775509046642869 [Eh]
	 Total Energy              =    -628.8958558297423451 [Eh]
	 SCS Total Energy          =    -628.8893621355183541 [Eh]
    Molecular point group: c1

    Geometry (in Angstrom), charge = 0, multiplicity = 1:

       Center              X                  Y                   Z               Mass
    ------------   -----------------  -----------------  -----------------  -----------------
         C           -0.727368800844    -1.278926319685    -0.107490227450    12.000000000000
         O            0.887011199156     0.823123680315    -0.185930227450    15.994914619570
         S            0.479411199156    -0.271086319685     0.768439772550    31.972071174400
         C            1.816811199156    -1.474396319685     0.717459772550    12.000000000000
         H           -0.988268800844    -2.143206319685     0.500119772550     1.007825032230
         H           -1.595758800844    -0.647036319685    -0.275030227450     1.007825032230
         H           -0.297138800844    -1.577106319685    -1.061620227450     1.007825032230
         H            1.534891199156    -2.364136319685     1.276939772550     1.007825032230
         H            2.022061199156    -1.707156319685    -0.325430227450     1.007825032230
         H            2.684351199156    -1.004486319685     1.172459772550     1.007825032230
         O           -2.596848800844     2.064453680315    -1.686310227450    15.994914619570
         H           -1.665648800844     1.992173680315    -1.424000227450     1.007825032230
         H           -2.738688800844     3.006243680315    -1.790280227450     1.007825032230

  Charge       = 0
  Multiplicity = 1
  Basis Set: AUG-CC-PVQZ
    Blend: AUG-CC-PVQZ
  Basis Set: (AUG-CC-PVQZ AUX)
    Blend: AUG-CC-PVQZ-JKFIT

    Orbital Energies [Eh]
    ---------------------

    Doubly Occupied:

       1A    -92.068327     2A    -20.553296     3A    -20.505505
       4A    -11.263776     5A    -11.262061     6A     -9.056145
       7A     -6.738321     8A     -6.738014     9A     -6.736684
      10A     -1.337436    11A     -1.333073    12A     -1.069571
      13A     -0.979719    14A     -0.819800    15A     -0.701364
      16A     -0.647593    17A     -0.632291    18A     -0.625406
      19A     -0.589692    20A     -0.573464    21A     -0.564781
      22A     -0.547291    23A     -0.516579    24A     -0.498293
      25A     -0.424076    26A     -0.374327

  @DF-RHF Final Energy:  -627.74129433315215

   => Energetics <=

    Nuclear Repulsion Energy =            242.0458739822921927
    One-Electron Energy =               -1345.2605526276788623
    Two-Electron Energy =                 475.4733843122344297
    Total Energy =                       -627.7412943331521546

  Dipole Moment: [D]
     X:     0.6014      Y:    -3.1271      Z:     1.5499     Total:     3.5416

  Basis Set: (AUG-CC-PVQZ AUX)
    Blend: AUG-CC-PVQZ-RI
	 Reference Energy          =    -627.7412943331521546 [Eh]
	 Singles Energy            =      -0.0000000000000000 [Eh]
	 Same-Spin Energy          =      -0.2997624594040945 [Eh]
	 Opposite-Spin Energy      =      -1.0159614906288885 [Eh]
	 Correlation Energy        =      -1.3157239500329831 [Eh]
	 Total Energy              =    -629.0570182831851298 [Eh]

	 ================> DF-SCS-MP2 Energies <==================
	-----------------------------------------------------------
	 SCS Same-Spin Scale       =       0.3333333333333333 [-]
	 SCS Opposite-Spin Scale   =       1.2000000000000000 [-]
	 SCS Same-Spin Energy      =      -0.0999208198013648 [Eh]
	 SCS Opposite-Spin Energy  =      -1.2191537887546662 [Eh]
	 SCS Correlation Energy    =      -1.3190746085560310 [Eh]
	 SCS Total Energy          =    -629.0603689417081341 [Eh]
	-----------------------------------------------------------

*** Psi4 exiting successfully. Buy a developer a beer!
