                               Psi4 1.4a2.dev224

  ==> Input File <==

--------------------------------------------------------------------------
#Generated by lconvert.py for cbs job

memory 40 GB

molecule  {
0 1
  C       -3.2289460    -0.5624140     0.9038820
  O       -1.6145690     1.5396420     0.8254430
  S       -2.0221710     0.4454340     1.7798090
  C       -0.6847700    -0.7578760     1.7288330
  H       -3.4898540    -1.4266920     1.5114930
  H       -4.0973420     0.0694820     0.7363400
  H       -2.7987240    -0.8605900    -0.0502470
  H       -0.9666940    -1.6476190     2.2883110
  H       -0.4795180    -0.9906350     0.6859440
  H        0.1827710    -0.2879750     2.1838340
--
0 1
  O       -3.6625570     2.1233850     0.0214780
  H       -2.7313570     2.0511000     0.2837890
  H       -3.8044000     3.0651710    -0.0824950
units angstrom
no_reorient
symmetry c1
}

set {
scf_type DF
mp2_type DF
e_convergence 7
reference rhf
}

energy('mp2/aug-cc-pv[tq]z', bsse_type='cp')
--------------------------------------------------------------------------

    Molecular point group: c1
  Charge       = 0
  Multiplicity = 1
  Basis Set: AUG-CC-PVTZ
    Blend: AUG-CC-PVTZ
  Basis Set: (AUG-CC-PVTZ AUX)
    Blend: AUG-CC-PVTZ-JKFIT
  @DF-RHF Final Energy:   -76.05997579706151
    Total Energy =                        -76.0599757970615116
  Basis Set: (AUG-CC-PVTZ AUX)
    Blend: AUG-CC-PVTZ-RI
	 Reference Energy          =     -76.0599757970615116 [Eh]
	 Singles Energy            =      -0.0000000000000000 [Eh]
	 Same-Spin Energy          =      -0.0684605921794331 [Eh]
	 Opposite-Spin Energy      =      -0.2155328083286911 [Eh]
	 Correlation Energy        =      -0.2839934005081242 [Eh]
	 Total Energy              =     -76.3439691975696348 [Eh]
	 SCS Total Energy          =     -76.3414353644490831 [Eh]
    Molecular point group: c1
  Basis Set: AUG-CC-PVQZ
    Blend: AUG-CC-PVQZ
  Basis Set: (AUG-CC-PVQZ AUX)
    Blend: AUG-CC-PVQZ-JKFIT
  @DF-RHF Final Energy:   -76.06533507660323
    Total Energy =                        -76.0653350766032332
  Basis Set: (AUG-CC-PVQZ AUX)
  @DF-RHF Final Energy:   -76.06012160675586
    Total Energy =                        -76.0601216067558710
  @DF-RHF Final Energy:   -76.06538669705932
    Total Energy =                        -76.0653866970593242
  @DF-RHF Final Energy:  -551.65337494517962
    Total Energy =                       -551.6533749451796211
  @DF-RHF Final Energy:  -551.67094892677017
    Total Energy =                       -551.6709489267700519
  @DF-RHF Final Energy:  -551.65319247057744
    Total Energy =                       -551.6531924705775509
  @DF-RHF Final Energy:  -551.67088075880270
    Total Energy =                       -551.6708807588026957
  Multiplicity = 1
  @DF-RHF Final Energy:  -627.69871341202838
    Total Energy =                       -627.6987134120283827
	 Singles Energy            =      -0.0000000000000000 [Eh]
	 Same-Spin Energy          =      -0.2847988016629406 [Eh]
	 Opposite-Spin Energy      =      -0.9034980359104382 [Eh]
	 Correlation Energy        =      -1.1882968375733789 [Eh]
	 Total Energy              =    -628.8870102496017580 [Eh]
	 SCS Total Energy          =    -628.8778439890085110 [Eh]
    Molecular point group: c1

    Geometry (in Angstrom), charge = 0, multiplicity = 1:

       Center              X                  Y                   Z               Mass
    ------------   -----------------  -----------------  -----------------  -----------------
         C           -0.996680457547    -1.155593824526    -0.238110833794    12.000000000000
         O            0.617696542453     0.946462175474    -0.316549833794    15.994914619570
         S            0.210094542453    -0.147745824526     0.637816166206    31.972071174400
         C            1.547495542453    -1.351055824526     0.586840166206    12.000000000000
         H           -1.257588457547    -2.019871824526     0.369500166206     1.007825032230
         H           -1.865076457547    -0.523697824526    -0.405652833794     1.007825032230
         H           -0.566458457547    -1.453769824526    -1.192239833794     1.007825032230
         H            1.265571542453    -2.240798824526     1.146318166206     1.007825032230
         H            1.752747542453    -1.583814824526    -0.456048833794     1.007825032230
         H            2.415036542453    -0.881154824526     1.041841166206     1.007825032230
         O           -1.430291457547     1.530205175474    -1.120514833794    15.994914619570
         H           -0.499091457547     1.457920175474    -0.858203833794     1.007825032230
         H           -1.572134457547     2.471991175474    -1.224487833794     1.007825032230

  Charge       = 0
  Multiplicity = 1
  Basis Set: AUG-CC-PVQZ
    Blend: AUG-CC-PVQZ
  Basis Set: (AUG-CC-PVQZ AUX)
    Blend: AUG-CC-PVQZ-JKFIT

    Orbital Energies [Eh]
    ---------------------

    Doubly Occupied:

       1A    -92.078078     2A    -20.519060     3A    -20.484776
       4A    -11.272758     5A    -11.257332     6A     -9.066746
       7A     -6.748750     8A     -6.748589     9A     -6.747255
      10A     -1.373971    11A     -1.283834    12A     -1.080189
      13A     -0.981777    14A     -0.834969    15A     -0.704496
      16A     -0.653529    17A     -0.643927    18A     -0.615312
      19A     -0.591868    20A     -0.573835    21A     -0.566327
      22A     -0.540185    23A     -0.505739    24A     -0.448153
      25A     -0.429067    26A     -0.390015

  @DF-RHF Final Energy:  -627.72151124250877

   => Energetics <=

    Nuclear Repulsion Energy =            268.6446200730117084
    One-Electron Energy =               -1398.4511696384236075
    Two-Electron Energy =                 502.0850383229030172
    Total Energy =                       -627.7215112425087682

  Dipole Moment: [D]
     X:     1.2493      Y:    -3.7699      Z:     1.9928     Total:     4.4435

  Basis Set: (AUG-CC-PVQZ AUX)
    Blend: AUG-CC-PVQZ-RI
	 Reference Energy          =    -627.7215112425087682 [Eh]
	 Singles Energy            =      -0.0000000000000000 [Eh]
	 Same-Spin Energy          =      -0.3052986233425057 [Eh]
	 Opposite-Spin Energy      =      -1.0202712328972487 [Eh]
	 Correlation Energy        =      -1.3255698562397544 [Eh]
	 Total Energy              =    -629.0470810987485493 [Eh]

	 ================> DF-SCS-MP2 Energies <==================
	-----------------------------------------------------------
	 SCS Same-Spin Scale       =       0.3333333333333333 [-]
	 SCS Opposite-Spin Scale   =       1.2000000000000000 [-]
	 SCS Same-Spin Energy      =      -0.1017662077808352 [Eh]
	 SCS Opposite-Spin Energy  =      -1.2243254794766985 [Eh]
	 SCS Correlation Energy    =      -1.3260916872575337 [Eh]
	 SCS Total Energy          =    -629.0476029297662990 [Eh]
	-----------------------------------------------------------

*** Psi4 exiting successfully. Buy a developer a beer!
