                               Psi4 1.4a2.dev224

  ==> Input File <==

--------------------------------------------------------------------------
#Generated by lconvert.py for cbs job

memory 40 GB

molecule  {
0 1
  C       -3.2289460    -0.5624140     0.9038820
  O       -1.6145690     1.5396420     0.8254430
  S       -2.0221710     0.4454340     1.7798090
  C       -0.6847700    -0.7578760     1.7288330
  H       -3.4898540    -1.4266920     1.5114930
  H       -4.0973420     0.0694820     0.7363400
  H       -2.7987240    -0.8605900    -0.0502470
  H       -0.9666940    -1.6476190     2.2883110
  H       -0.4795180    -0.9906350     0.6859440
  H        0.1827710    -0.2879750     2.1838340
--
0 1
  O       -3.8220980     2.1964500    -0.0559020
  H       -2.8908980     2.1241650     0.2064090
  H       -3.9639410     3.1382360    -0.1598750
units angstrom
no_reorient
symmetry c1
}

set {
scf_type DF
mp2_type DF
e_convergence 7
reference rhf
}

energy('mp2/aug-cc-pv[tq]z', bsse_type='cp')
--------------------------------------------------------------------------

    Molecular point group: c1
  Charge       = 0
  Multiplicity = 1
  Basis Set: AUG-CC-PVTZ
    Blend: AUG-CC-PVTZ
  Basis Set: (AUG-CC-PVTZ AUX)
    Blend: AUG-CC-PVTZ-JKFIT
  @DF-RHF Final Energy:   -76.05997579705422
    Total Energy =                        -76.0599757970542214
  Basis Set: (AUG-CC-PVTZ AUX)
    Blend: AUG-CC-PVTZ-RI
	 Reference Energy          =     -76.0599757970542214 [Eh]
	 Singles Energy            =      -0.0000000000000000 [Eh]
	 Same-Spin Energy          =      -0.0684605921794512 [Eh]
	 Opposite-Spin Energy      =      -0.2155328083287539 [Eh]
	 Correlation Energy        =      -0.2839934005082052 [Eh]
	 Total Energy              =     -76.3439691975624299 [Eh]
	 SCS Total Energy          =     -76.3414353644418782 [Eh]
    Molecular point group: c1
  Basis Set: AUG-CC-PVQZ
    Blend: AUG-CC-PVQZ
  Basis Set: (AUG-CC-PVQZ AUX)
    Blend: AUG-CC-PVQZ-JKFIT
  @DF-RHF Final Energy:   -76.06533507663613
    Total Energy =                        -76.0653350766361314
  Basis Set: (AUG-CC-PVQZ AUX)
  @DF-RHF Final Energy:   -76.06009657591655
    Total Energy =                        -76.0600965759165604
  @DF-RHF Final Energy:   -76.06537931915929
    Total Energy =                        -76.0653793191592911
  @DF-RHF Final Energy:  -551.65333816271709
    Total Energy =                       -551.6533381627170911
  @DF-RHF Final Energy:  -551.67093810782080
    Total Energy =                       -551.6709381078208025
  @DF-RHF Final Energy:  -551.65319247067305
    Total Energy =                       -551.6531924706730479
  @DF-RHF Final Energy:  -551.67088075866570
    Total Energy =                       -551.6708807586657031
  Multiplicity = 1
  @DF-RHF Final Energy:  -627.71489868986509
    Total Energy =                       -627.7148986898650946
	 Singles Energy            =      -0.0000000000000000 [Eh]
	 Same-Spin Energy          =      -0.2833321233531950 [Eh]
	 Opposite-Spin Energy      =      -0.9023585661952003 [Eh]
	 Correlation Energy        =      -1.1856906895483952 [Eh]
	 Total Energy              =    -628.9005893794135318 [Eh]
	 SCS Total Energy          =    -628.8921730104170820 [Eh]
    Molecular point group: c1

    Geometry (in Angstrom), charge = 0, multiplicity = 1:

       Center              X                  Y                   Z               Mass
    ------------   -----------------  -----------------  -----------------  -----------------
         C           -0.966756599780    -1.169298055211    -0.223597272302    12.000000000000
         O            0.647620400220     0.932757944789    -0.302036272302    15.994914619570
         S            0.240018400220    -0.161450055211     0.652329727698    31.972071174400
         C            1.577419400220    -1.364760055211     0.601353727698    12.000000000000
         H           -1.227664599780    -2.033576055211     0.384013727698     1.007825032230
         H           -1.835152599780    -0.537402055211    -0.391139272302     1.007825032230
         H           -0.536534599780    -1.467474055211    -1.177726272302     1.007825032230
         H            1.295495400220    -2.254503055211     1.160831727698     1.007825032230
         H            1.782671400220    -1.597519055211    -0.441535272302     1.007825032230
         H            2.444960400220    -0.894859055211     1.056354727698     1.007825032230
         O           -1.559908599780     1.589565944789    -1.183381272302    15.994914619570
         H           -0.628708599780     1.517280944789    -0.921070272302     1.007825032230
         H           -1.701751599780     2.531351944789    -1.287354272302     1.007825032230

  Charge       = 0
  Multiplicity = 1
  Basis Set: AUG-CC-PVQZ
    Blend: AUG-CC-PVQZ
  Basis Set: (AUG-CC-PVQZ AUX)
    Blend: AUG-CC-PVQZ-JKFIT

    Orbital Energies [Eh]
    ---------------------

    Doubly Occupied:

       1A    -92.075216     2A    -20.516930     3A    -20.505006
       4A    -11.269967     5A    -11.257458     6A     -9.063629
       7A     -6.745679     8A     -6.745479     9A     -6.744161
      10A     -1.359028    11A     -1.298371    12A     -1.076275
      13A     -0.980687    14A     -0.828986    15A     -0.694222
      16A     -0.651115    17A     -0.640316    18A     -0.617871
      19A     -0.590569    20A     -0.573865    21A     -0.566763
      22A     -0.536189    23A     -0.515855    24A     -0.461239
      25A     -0.433658    26A     -0.385958

  @DF-RHF Final Energy:  -627.73774043873743

   => Energetics <=

    Nuclear Repulsion Energy =            264.3997068586810997
    One-Electron Energy =               -1390.0058974083776775
    Two-Electron Energy =                 497.8684501109590883
    Total Energy =                       -627.7377404387374327

  Dipole Moment: [D]
     X:     1.0387      Y:    -3.5832      Z:     1.8613     Total:     4.1692

  Basis Set: (AUG-CC-PVQZ AUX)
    Blend: AUG-CC-PVQZ-RI
	 Reference Energy          =    -627.7377404387374327 [Eh]
	 Singles Energy            =      -0.0000000000000000 [Eh]
	 Same-Spin Energy          =      -0.3038288462604160 [Eh]
	 Opposite-Spin Energy      =      -1.0192008373426691 [Eh]
	 Correlation Energy        =      -1.3230296836030850 [Eh]
	 Total Energy              =    -629.0607701223405002 [Eh]

	 ================> DF-SCS-MP2 Energies <==================
	-----------------------------------------------------------
	 SCS Same-Spin Scale       =       0.3333333333333333 [-]
	 SCS Opposite-Spin Scale   =       1.2000000000000000 [-]
	 SCS Same-Spin Energy      =      -0.1012762820868053 [Eh]
	 SCS Opposite-Spin Energy  =      -1.2230410048112028 [Eh]
	 SCS Correlation Energy    =      -1.3243172868980082 [Eh]
	 SCS Total Energy          =    -629.0620577256354409 [Eh]
	-----------------------------------------------------------

*** Psi4 exiting successfully. Buy a developer a beer!
