                               Psi4 1.4a2.dev224

  ==> Input File <==

--------------------------------------------------------------------------
#Generated by lconvert.py for cbs job

memory 40 GB

molecule  {
0 1
  C       -3.2289460    -0.5624140     0.9038820
  O       -1.6145690     1.5396420     0.8254430
  S       -2.0221710     0.4454340     1.7798090
  C       -0.6847700    -0.7578760     1.7288330
  H       -3.4898540    -1.4266920     1.5114930
  H       -4.0973420     0.0694820     0.7363400
  H       -2.7987240    -0.8605900    -0.0502470
  H       -0.9666940    -1.6476190     2.2883110
  H       -0.4795180    -0.9906350     0.6859440
  H        0.1827710    -0.2879750     2.1838340
--
0 1
  O       -4.2209510     2.3791140    -0.2493500
  H       -3.2897510     2.3068290     0.0129610
  H       -4.3627940     3.3209000    -0.3533230
units angstrom
no_reorient
symmetry c1
}

set {
scf_type DF
mp2_type DF
e_convergence 7
reference rhf
}

energy('mp2/aug-cc-pv[tq]z', bsse_type='cp')
--------------------------------------------------------------------------

    Molecular point group: c1
  Charge       = 0
  Multiplicity = 1
  Basis Set: AUG-CC-PVTZ
    Blend: AUG-CC-PVTZ
  Basis Set: (AUG-CC-PVTZ AUX)
    Blend: AUG-CC-PVTZ-JKFIT
  @DF-RHF Final Energy:   -76.05997579705542
    Total Energy =                        -76.0599757970554009
  Basis Set: (AUG-CC-PVTZ AUX)
    Blend: AUG-CC-PVTZ-RI
	 Reference Energy          =     -76.0599757970554151 [Eh]
	 Singles Energy            =      -0.0000000000000000 [Eh]
	 Same-Spin Energy          =      -0.0684605921794369 [Eh]
	 Opposite-Spin Energy      =      -0.2155328083287250 [Eh]
	 Correlation Energy        =      -0.2839934005081619 [Eh]
	 Total Energy              =     -76.3439691975635810 [Eh]
	 SCS Total Energy          =     -76.3414353644430292 [Eh]
    Molecular point group: c1
  Basis Set: AUG-CC-PVQZ
    Blend: AUG-CC-PVQZ
  Basis Set: (AUG-CC-PVQZ AUX)
    Blend: AUG-CC-PVQZ-JKFIT
  @DF-RHF Final Energy:   -76.06533507661348
    Total Energy =                        -76.0653350766134793
  Basis Set: (AUG-CC-PVQZ AUX)
  @DF-RHF Final Energy:   -76.06005227274129
    Total Energy =                        -76.0600522727412738
  @DF-RHF Final Energy:   -76.06536571107377
    Total Energy =                        -76.0653657110737811
  @DF-RHF Final Energy:  -551.65327066719203
    Total Energy =                       -551.6532706671920323
  @DF-RHF Final Energy:  -551.67091712341585
    Total Energy =                       -551.6709171234158475
  @DF-RHF Final Energy:  -551.65319247084074
    Total Energy =                       -551.6531924708407360
  @DF-RHF Final Energy:  -551.67088075949914
    Total Energy =                       -551.6708807594991413
  Multiplicity = 1
  @DF-RHF Final Energy:  -627.72362311941311
    Total Energy =                       -627.7236231194131051
	 Singles Energy            =      -0.0000000000000000 [Eh]
	 Same-Spin Energy          =      -0.2809750290926816 [Eh]
	 Opposite-Spin Energy      =      -0.9002624880746305 [Eh]
	 Correlation Energy        =      -1.1812375171673120 [Eh]
	 Total Energy              =    -628.9048606365804517 [Eh]
	 SCS Total Energy          =    -628.8975964481335268 [Eh]
    Molecular point group: c1

    Geometry (in Angstrom), charge = 0, multiplicity = 1:

       Center              X                  Y                   Z               Mass
    ------------   -----------------  -----------------  -----------------  -----------------
         C           -0.891946861581    -1.203558913268    -0.187313743696    12.000000000000
         O            0.722430138419     0.898497086732    -0.265752743696    15.994914619570
         S            0.314828138419    -0.195710913268     0.688613256304    31.972071174400
         C            1.652229138419    -1.399020913268     0.637637256304    12.000000000000
         H           -1.152854861581    -2.067836913268     0.420297256304     1.007825032230
         H           -1.760342861581    -0.571662913268    -0.354855743696     1.007825032230
         H           -0.461724861581    -1.501734913268    -1.141442743696     1.007825032230
         H            1.370305138419    -2.288763913268     1.197115256304     1.007825032230
         H            1.857481138419    -1.631779913268    -0.405251743696     1.007825032230
         H            2.519770138419    -0.929119913268     1.092638256304     1.007825032230
         O           -1.883951861581     1.737969086732    -1.340545743696    15.994914619570
         H           -0.952751861581     1.665684086732    -1.078234743696     1.007825032230
         H           -2.025794861581     2.679755086732    -1.444518743696     1.007825032230

  Charge       = 0
  Multiplicity = 1
  Basis Set: AUG-CC-PVQZ
    Blend: AUG-CC-PVQZ
  Basis Set: (AUG-CC-PVQZ AUX)
    Blend: AUG-CC-PVQZ-JKFIT

    Orbital Energies [Eh]
    ---------------------

    Doubly Occupied:

       1A    -92.071206     2A    -20.533602     3A    -20.512003
       4A    -11.266185     5A    -11.259023     6A     -9.059267
       7A     -6.741387     8A     -6.741125     9A     -6.739814
      10A     -1.342482    11A     -1.320368    12A     -1.071780
      13A     -0.979642    14A     -0.822706    15A     -0.690715
      16A     -0.648560    17A     -0.634744    18A     -0.624152
      19A     -0.589530    20A     -0.570623    21A     -0.565089
      22A     -0.541740    23A     -0.521719    24A     -0.482044
      25A     -0.431165    26A     -0.379492

  @DF-RHF Final Energy:  -627.74657950225674

   => Energetics <=

    Nuclear Repulsion Energy =            255.5896313042774750
    One-Electron Energy =               -1372.3920841880562875
    Two-Electron Energy =                 489.0558733815220762
    Total Energy =                       -627.7465795022567363

  Dipole Moment: [D]
     X:     0.7524      Y:    -3.3192      Z:     1.6725     Total:     3.7922

  Basis Set: (AUG-CC-PVQZ AUX)
    Blend: AUG-CC-PVQZ-RI
	 Reference Energy          =    -627.7465795022567363 [Eh]
	 Singles Energy            =      -0.0000000000000000 [Eh]
	 Same-Spin Energy          =      -0.3014468213923268 [Eh]
	 Opposite-Spin Energy      =      -1.0173441061233726 [Eh]
	 Correlation Energy        =      -1.3187909275156993 [Eh]
	 Total Energy              =    -629.0653704297724289 [Eh]

	 ================> DF-SCS-MP2 Energies <==================
	-----------------------------------------------------------
	 SCS Same-Spin Scale       =       0.3333333333333333 [-]
	 SCS Opposite-Spin Scale   =       1.2000000000000000 [-]
	 SCS Same-Spin Energy      =      -0.1004822737974423 [Eh]
	 SCS Opposite-Spin Energy  =      -1.2208129273480470 [Eh]
	 SCS Correlation Energy    =      -1.3212952011454893 [Eh]
	 SCS Total Energy          =    -629.0678747034022535 [Eh]
	-----------------------------------------------------------

*** Psi4 exiting successfully. Buy a developer a beer!
