                               Psi4 1.4a2.dev224

  ==> Input File <==

--------------------------------------------------------------------------
#Generated by lconvert.py for cbs job

memory 40 GB

molecule  {
0 1
  C       -2.1078120    -0.3387290    -0.0969620
  O       -1.4104560     1.0924310     2.0265800
  S       -2.4708060     0.1072130     1.6054120
  C       -1.9716920    -1.4676230     2.3289970
  H       -2.7387130    -1.1739520    -0.3957540
  H       -2.3378460     0.5441090    -0.6878810
  H       -1.0518200    -0.5964010    -0.1591040
  H       -2.6241360    -2.2629870     1.9739130
  H       -0.9342460    -1.6541830     2.0584350
  H       -2.0609100    -1.3635100     3.4069450
--
0 1
  C       -3.0880440     3.7220480     1.8223520
  O       -3.2923950     2.3329850    -0.4312120
  S       -2.8005390     3.6744210     0.0441160
  C       -1.0066040     3.5432860     0.1602830
  H       -2.6824460     4.6477840     2.2272340
  H       -4.1655500     3.6964820     1.9632190
  H       -2.6139190     2.8477170     2.2661820
  H       -0.6051080     4.4501170     0.6093130
  H       -0.7740110     2.6614180     0.7556410
  H       -0.6342340     3.4376750    -0.8555820
units angstrom
no_reorient
symmetry c1
}

set {
scf_type DF
mp2_type DF
e_convergence 7
reference rhf
}

energy('mp2/aug-cc-pv[tq]z', bsse_type='cp')
--------------------------------------------------------------------------

    Molecular point group: c1
  Charge       = 0
  Multiplicity = 1
  Basis Set: AUG-CC-PVTZ
    Blend: AUG-CC-PVTZ
  Basis Set: (AUG-CC-PVTZ AUX)
    Blend: AUG-CC-PVTZ-JKFIT
  @DF-RHF Final Energy:  -551.65298608460284
    Total Energy =                       -551.6529860846028441
  Basis Set: (AUG-CC-PVTZ AUX)
    Blend: AUG-CC-PVTZ-RI
	 Reference Energy          =    -551.6529860846028441 [Eh]
	 Singles Energy            =      -0.0000000000000000 [Eh]
	 Same-Spin Energy          =      -0.2104364308011548 [Eh]
	 Opposite-Spin Energy      =      -0.6823711316360277 [Eh]
	 Correlation Energy        =      -0.8928075624371825 [Eh]
	 Total Energy              =    -552.5457936470400000 [Eh]
	 SCS Total Energy          =    -552.5419769194998025 [Eh]
    Molecular point group: c1
  Basis Set: AUG-CC-PVQZ
    Blend: AUG-CC-PVQZ
  Basis Set: (AUG-CC-PVQZ AUX)
    Blend: AUG-CC-PVQZ-JKFIT
  @DF-RHF Final Energy:  -551.67069764186624
    Total Energy =                       -551.6706976418662407
  Basis Set: (AUG-CC-PVQZ AUX)
  @DF-RHF Final Energy:  -551.65315867570678
    Total Energy =                       -551.6531586757067771
  @DF-RHF Final Energy:  -551.67077576835766
    Total Energy =                       -551.6707757683576574
  @DF-RHF Final Energy:  -551.65328637973437
    Total Energy =                       -551.6532863797343680
  @DF-RHF Final Energy:  -551.67081694646618
    Total Energy =                       -551.6708169464661751
  @DF-RHF Final Energy:  -551.65303249155829
    Total Energy =                       -551.6530324915582923
  @DF-RHF Final Energy:  -551.67072777510521
    Total Energy =                       -551.6707277751052061
  Multiplicity = 1
  @DF-RHF Final Energy: -1103.31069034351685
    Total Energy =                      -1103.3106903435168533
	 Singles Energy            =      -0.0000000000000000 [Eh]
	 Same-Spin Energy          =      -0.4277076689950266 [Eh]
	 Opposite-Spin Energy      =      -1.3737511936412115 [Eh]
	 Correlation Energy        =      -1.8014588626362380 [Eh]
	 Total Energy              =   -1105.1121492061531626 [Eh]
	 SCS Total Energy          =   -1105.1017609988846289 [Eh]
    Molecular point group: c1

    Geometry (in Angstrom), charge = 0, multiplicity = 1:

       Center              X                  Y                   Z               Mass
    ------------   -----------------  -----------------  -----------------  -----------------
         C            0.233128732972    -1.983032458472    -1.007685181907    12.000000000000
         O            0.930484732972    -0.551872458472     1.115856818093    15.994914619570
         S           -0.129865267028    -1.537090458472     0.694688818093    31.972071174400
         C            0.369248732972    -3.111926458472     1.418273818093    12.000000000000
         H           -0.397772267028    -2.818255458472    -1.306477181907     1.007825032230
         H            0.003094732972    -1.100194458472    -1.598604181907     1.007825032230
         H            1.289120732972    -2.240704458472    -1.069827181907     1.007825032230
         H           -0.283195267028    -3.907290458472     1.063189818093     1.007825032230
         H            1.406694732972    -3.298486458472     1.147711818093     1.007825032230
         H            0.280030732972    -3.007813458472     2.496221818093     1.007825032230
         C           -0.747103267028     2.077744541528     0.911628818093    12.000000000000
         O           -0.951454267028     0.688681541528    -1.341935181907    15.994914619570
         S           -0.459598267028     2.030117541528    -0.866607181907    31.972071174400
         C            1.334336732972     1.898982541528    -0.750440181907    12.000000000000
         H           -0.341505267028     3.003480541528     1.316510818093     1.007825032230
         H           -1.824609267028     2.052178541528     1.052495818093     1.007825032230
         H           -0.272978267028     1.203413541528     1.355458818093     1.007825032230
         H            1.735832732972     2.805813541528    -0.301410181907     1.007825032230
         H            1.566929732972     1.017114541528    -0.155082181907     1.007825032230
         H            1.706706732972     1.793371541528    -1.766305181907     1.007825032230

  Charge       = 0
  Multiplicity = 1
  Basis Set: AUG-CC-PVQZ
    Blend: AUG-CC-PVQZ
  Basis Set: (AUG-CC-PVQZ AUX)
    Blend: AUG-CC-PVQZ-JKFIT

    Orbital Energies [Eh]
    ---------------------

    Doubly Occupied:

       1A    -92.056959     2A    -92.051366     3A    -20.500363
       4A    -20.493829     5A    -11.254577     6A    -11.237761
       7A    -11.237258     8A    -11.236870     9A     -9.045062
      10A     -9.039435    11A     -6.727113    12A     -6.726856
      13A     -6.725578    14A     -6.721565    15A     -6.721343
      16A     -6.720056    17A     -1.333140    18A     -1.324565
      19A     -1.059574    20A     -1.048808    21A     -0.964316
      22A     -0.956195    23A     -0.811127    24A     -0.800317
      25A     -0.645048    26A     -0.630002    27A     -0.624434
      28A     -0.612761    29A     -0.607655    30A     -0.604747
      31A     -0.577374    32A     -0.574807    33A     -0.556028
      34A     -0.550592    35A     -0.528987    36A     -0.522659
      37A     -0.513907    38A     -0.496846    39A     -0.420366
      40A     -0.411092    41A     -0.367644    42A     -0.358345

  @DF-RHF Final Energy: -1103.34578143978888

   => Energetics <=

    Nuclear Repulsion Energy =            606.2236673119180068
    One-Electron Energy =               -2726.3442073784922286
    Two-Electron Energy =                1016.7747586267851148
    Total Energy =                      -1103.3457814397888797

  Dipole Moment: [D]
     X:     0.9122      Y:    -1.3159      Z:     1.0024     Total:     1.8891

  Basis Set: (AUG-CC-PVQZ AUX)
    Blend: AUG-CC-PVQZ-RI
	 Reference Energy          =   -1103.3457814397888797 [Eh]
	 Singles Energy            =      -0.0000000000000000 [Eh]
	 Same-Spin Energy          =      -0.4597445838477889 [Eh]
	 Opposite-Spin Energy      =      -1.5489933385929742 [Eh]
	 Correlation Energy        =      -2.0087379224407629 [Eh]
	 Total Energy              =   -1105.3545193622296665 [Eh]

	 ================> DF-SCS-MP2 Energies <==================
	-----------------------------------------------------------
	 SCS Same-Spin Scale       =       0.3333333333333333 [-]
	 SCS Opposite-Spin Scale   =       1.2000000000000000 [-]
	 SCS Same-Spin Energy      =      -0.1532481946159296 [Eh]
	 SCS Opposite-Spin Energy  =      -1.8587920063115688 [Eh]
	 SCS Correlation Energy    =      -2.0120402009274985 [Eh]
	 SCS Total Energy          =   -1105.3578216407163382 [Eh]
	-----------------------------------------------------------

*** Psi4 exiting successfully. Buy a developer a beer!
