                               Psi4 1.4a2.dev224

  ==> Input File <==

--------------------------------------------------------------------------
#Generated by lconvert.py for cbs job

memory 40 GB

molecule  {
0 1
  C       -2.1078120    -0.3387290    -0.0969620
  O       -1.4104560     1.0924310     2.0265800
  S       -2.4708060     0.1072130     1.6054120
  C       -1.9716920    -1.4676230     2.3289970
  H       -2.7387130    -1.1739520    -0.3957540
  H       -2.3378460     0.5441090    -0.6878810
  H       -1.0518200    -0.5964010    -0.1591040
  H       -2.6241360    -2.2629870     1.9739130
  H       -0.9342460    -1.6541830     2.0584350
  H       -2.0609100    -1.3635100     3.4069450
--
0 1
  C       -3.1606890     4.2082420     1.6584030
  O       -3.3650400     2.8191790    -0.5951610
  S       -2.8731840     4.1606150    -0.1198330
  C       -1.0792490     4.0294800    -0.0036660
  H       -2.7550910     5.1339780     2.0632850
  H       -4.2381950     4.1826760     1.7992700
  H       -2.6865640     3.3339110     2.1022330
  H       -0.6777530     4.9363110     0.4453640
  H       -0.8466560     3.1476120     0.5916920
  H       -0.7068790     3.9238690    -1.0195310
units angstrom
no_reorient
symmetry c1
}

set {
scf_type DF
mp2_type DF
e_convergence 7
reference rhf
}

energy('mp2/aug-cc-pv[tq]z', bsse_type='cp')
--------------------------------------------------------------------------

    Molecular point group: c1
  Charge       = 0
  Multiplicity = 1
  Basis Set: AUG-CC-PVTZ
    Blend: AUG-CC-PVTZ
  Basis Set: (AUG-CC-PVTZ AUX)
    Blend: AUG-CC-PVTZ-JKFIT
  @DF-RHF Final Energy:  -551.65298608475860
    Total Energy =                       -551.6529860847585951
  Basis Set: (AUG-CC-PVTZ AUX)
    Blend: AUG-CC-PVTZ-RI
	 Reference Energy          =    -551.6529860847585951 [Eh]
	 Singles Energy            =      -0.0000000000000000 [Eh]
	 Same-Spin Energy          =      -0.2104364307998705 [Eh]
	 Opposite-Spin Energy      =      -0.6823711316277227 [Eh]
	 Correlation Energy        =      -0.8928075624275932 [Eh]
	 Total Energy              =    -552.5457936471862013 [Eh]
	 SCS Total Energy          =    -552.5419769196452080 [Eh]
    Molecular point group: c1
  Basis Set: AUG-CC-PVQZ
    Blend: AUG-CC-PVQZ
  Basis Set: (AUG-CC-PVQZ AUX)
    Blend: AUG-CC-PVQZ-JKFIT
  @DF-RHF Final Energy:  -551.67069764214170
    Total Energy =                       -551.6706976421417039
  Basis Set: (AUG-CC-PVQZ AUX)
  @DF-RHF Final Energy:  -551.65309404485413
    Total Energy =                       -551.6530940448541287
  @DF-RHF Final Energy:  -551.67075469327096
    Total Energy =                       -551.6707546932709647
  @DF-RHF Final Energy:  -551.65320909019476
    Total Energy =                       -551.6532090901947640
  @DF-RHF Final Energy:  -551.67078621441465
    Total Energy =                       -551.6707862144146475
  @DF-RHF Final Energy:  -551.65303249152703
    Total Energy =                       -551.6530324915270285
  @DF-RHF Final Energy:  -551.67072777604346
    Total Energy =                       -551.6707277760434636
  Multiplicity = 1
  @DF-RHF Final Energy: -1103.31673610886651
    Total Energy =                      -1103.3167361088665075
	 Singles Energy            =      -0.0000000000000000 [Eh]
	 Same-Spin Energy          =      -0.4238646869063617 [Eh]
	 Opposite-Spin Energy      =      -1.3690161795110680 [Eh]
	 Correlation Energy        =      -1.7928808664174296 [Eh]
	 Total Energy              =   -1105.1096169752838705 [Eh]
	 SCS Total Energy          =   -1105.1008437532486823 [Eh]
    Molecular point group: c1

    Geometry (in Angstrom), charge = 0, multiplicity = 1:

       Center              X                  Y                   Z               Mass
    ------------   -----------------  -----------------  -----------------  -----------------
         C            0.269451232972    -2.226129458472    -0.925710681907    12.000000000000
         O            0.966807232972    -0.794969458472     1.197831318093    15.994914619570
         S           -0.093542767028    -1.780187458472     0.776663318093    31.972071174400
         C            0.405571232972    -3.355023458472     1.500248318093    12.000000000000
         H           -0.361449767028    -3.061352458472    -1.224502681907     1.007825032230
         H            0.039417232972    -1.343291458472    -1.516629681907     1.007825032230
         H            1.325443232972    -2.483801458472    -0.987852681907     1.007825032230
         H           -0.246872767028    -4.150387458472     1.145164318093     1.007825032230
         H            1.443017232972    -3.541583458472     1.229686318093     1.007825032230
         H            0.316353232972    -3.250910458472     2.578196318093     1.007825032230
         C           -0.783425767028     2.320841541528     0.829654318093    12.000000000000
         O           -0.987776767028     0.931778541528    -1.423909681907    15.994914619570
         S           -0.495920767028     2.273214541528    -0.948581681907    31.972071174400
         C            1.298014232972     2.142079541528    -0.832414681907    12.000000000000
         H           -0.377827767028     3.246577541528     1.234536318093     1.007825032230
         H           -1.860931767028     2.295275541528     0.970521318093     1.007825032230
         H           -0.309300767028     1.446510541528     1.273484318093     1.007825032230
         H            1.699510232972     3.048910541528    -0.383384681907     1.007825032230
         H            1.530607232972     1.260211541528    -0.237056681907     1.007825032230
         H            1.670384232972     2.036468541528    -1.848279681907     1.007825032230

  Charge       = 0
  Multiplicity = 1
  Basis Set: AUG-CC-PVQZ
    Blend: AUG-CC-PVQZ
  Basis Set: (AUG-CC-PVQZ AUX)
    Blend: AUG-CC-PVQZ-JKFIT

    Orbital Energies [Eh]
    ---------------------

    Doubly Occupied:

       1A    -92.058152     2A    -92.053392     3A    -20.498794
       4A    -20.493379     5A    -11.255495     6A    -11.245803
       7A    -11.244032     8A    -11.243893     9A     -9.046017
      10A     -9.041242    11A     -6.728126    12A     -6.727842
      13A     -6.726544    14A     -6.723414    15A     -6.723145
      16A     -6.721843    17A     -1.327460    18A     -1.322146
      19A     -1.059403    20A     -1.053027    21A     -0.967525
      22A     -0.960737    23A     -0.809865    24A     -0.803061
      25A     -0.639716    26A     -0.630775    27A     -0.622379
      28A     -0.615455    29A     -0.613136    30A     -0.607956
      31A     -0.578705    32A     -0.571139    33A     -0.556602
      34A     -0.554113    35A     -0.532788    36A     -0.530329
      37A     -0.511778    38A     -0.501402    39A     -0.417803
      40A     -0.410965    41A     -0.366397    42A     -0.360050

  @DF-RHF Final Energy: -1103.35189540311671

   => Energetics <=

    Nuclear Repulsion Energy =            579.8282531217525957
    One-Electron Energy =               -2673.4486209883011725
    Two-Electron Energy =                 990.2684724634320901
    Total Energy =                      -1103.3518954031167141

  Dipole Moment: [D]
     X:     0.9283      Y:    -1.2734      Z:     0.9748     Total:     1.8530

  Basis Set: (AUG-CC-PVQZ AUX)
    Blend: AUG-CC-PVQZ-RI
	 Reference Energy          =   -1103.3518954031167141 [Eh]
	 Singles Energy            =      -0.0000000000000000 [Eh]
	 Same-Spin Energy          =      -0.4560645086426341 [Eh]
	 Opposite-Spin Energy      =      -1.5453521714580651 [Eh]
	 Correlation Energy        =      -2.0014166801006992 [Eh]
	 Total Energy              =   -1105.3533120832173609 [Eh]

	 ================> DF-SCS-MP2 Energies <==================
	-----------------------------------------------------------
	 SCS Same-Spin Scale       =       0.3333333333333333 [-]
	 SCS Opposite-Spin Scale   =       1.2000000000000000 [-]
	 SCS Same-Spin Energy      =      -0.1520215028808780 [Eh]
	 SCS Opposite-Spin Energy  =      -1.8544226057496780 [Eh]
	 SCS Correlation Energy    =      -2.0064441086305562 [Eh]
	 SCS Total Energy          =   -1105.3583395117473174 [Eh]
	-----------------------------------------------------------

*** Psi4 exiting successfully. Buy a developer a beer!
