                               Psi4 1.4a2.dev224

  ==> Input File <==

--------------------------------------------------------------------------
#Generated by lconvert.py for cbs job

memory 40 GB

molecule  {
0 1
  C       -2.1078120    -0.3387290    -0.0969620
  O       -1.4104560     1.0924310     2.0265800
  S       -2.4708060     0.1072130     1.6054120
  C       -1.9716920    -1.4676230     2.3289970
  H       -2.7387130    -1.1739520    -0.3957540
  H       -2.3378460     0.5441090    -0.6878810
  H       -1.0518200    -0.5964010    -0.1591040
  H       -2.6241360    -2.2629870     1.9739130
  H       -0.9342460    -1.6541830     2.0584350
  H       -2.0609100    -1.3635100     3.4069450
--
0 1
  C       -3.1429130     4.0892750     1.6985200
  O       -3.3472640     2.7002120    -0.5550440
  S       -2.8554080     4.0416480    -0.0797160
  C       -1.0614730     3.9105130     0.0364510
  H       -2.7373150     5.0150110     2.1034020
  H       -4.2204190     4.0637090     1.8393870
  H       -2.6687880     3.2149440     2.1423500
  H       -0.6599770     4.8173440     0.4854810
  H       -0.8288800     3.0286450     0.6318090
  H       -0.6891030     3.8049020    -0.9794140
units angstrom
no_reorient
symmetry c1
}

set {
scf_type DF
mp2_type DF
e_convergence 7
reference rhf
}

energy('mp2/aug-cc-pv[tq]z', bsse_type='cp')
--------------------------------------------------------------------------

    Molecular point group: c1
  Charge       = 0
  Multiplicity = 1
  Basis Set: AUG-CC-PVTZ
    Blend: AUG-CC-PVTZ
  Basis Set: (AUG-CC-PVTZ AUX)
    Blend: AUG-CC-PVTZ-JKFIT
  @DF-RHF Final Energy:  -551.65298608512740
    Total Energy =                       -551.6529860851273952
  Basis Set: (AUG-CC-PVTZ AUX)
    Blend: AUG-CC-PVTZ-RI
	 Reference Energy          =    -551.6529860851273952 [Eh]
	 Singles Energy            =      -0.0000000000000000 [Eh]
	 Same-Spin Energy          =      -0.2104364308004887 [Eh]
	 Opposite-Spin Energy      =      -0.6823711316334584 [Eh]
	 Correlation Energy        =      -0.8928075624339471 [Eh]
	 Total Energy              =    -552.5457936475613678 [Eh]
	 SCS Total Energy          =    -552.5419769200210567 [Eh]
    Molecular point group: c1
  Basis Set: AUG-CC-PVQZ
    Blend: AUG-CC-PVQZ
  Basis Set: (AUG-CC-PVQZ AUX)
    Blend: AUG-CC-PVQZ-JKFIT
  @DF-RHF Final Energy:  -551.67069764242115
    Total Energy =                       -551.6706976424211462
  Basis Set: (AUG-CC-PVQZ AUX)
  @DF-RHF Final Energy:  -551.65310833515957
    Total Energy =                       -551.6531083351595726
  @DF-RHF Final Energy:  -551.67075983047459
    Total Energy =                       -551.6707598304745943
  @DF-RHF Final Energy:  -551.65322872277898
    Total Energy =                       -551.6532287227789766
  @DF-RHF Final Energy:  -551.67079354977557
    Total Energy =                       -551.6707935497755670
  @DF-RHF Final Energy:  -551.65303249182909
    Total Energy =                       -551.6530324918289807
  @DF-RHF Final Energy:  -551.67072777718840
    Total Energy =                       -551.6707277771884037
  Multiplicity = 1
  @DF-RHF Final Energy: -1103.31669215155966
    Total Energy =                      -1103.3166921515596641
	 Singles Energy            =      -0.0000000000000000 [Eh]
	 Same-Spin Energy          =      -0.4245345247539358 [Eh]
	 Opposite-Spin Energy      =      -1.3698669476307226 [Eh]
	 Correlation Energy        =      -1.7944014723846584 [Eh]
	 Total Energy              =   -1105.1110936239442708 [Eh]
	 SCS Total Energy          =   -1105.1020439969679501 [Eh]
    Molecular point group: c1

    Geometry (in Angstrom), charge = 0, multiplicity = 1:

       Center              X                  Y                   Z               Mass
    ------------   -----------------  -----------------  -----------------  -----------------
         C            0.260563232972    -2.166645958472    -0.945769181907    12.000000000000
         O            0.957919232972    -0.735485958472     1.177772818093    15.994914619570
         S           -0.102430767028    -1.720703958472     0.756604818093    31.972071174400
         C            0.396683232972    -3.295539958472     1.480189818093    12.000000000000
         H           -0.370337767028    -3.001868958472    -1.244561181907     1.007825032230
         H            0.030529232972    -1.283807958472    -1.536688181907     1.007825032230
         H            1.316555232972    -2.424317958472    -1.007911181907     1.007825032230
         H           -0.255760767028    -4.090903958472     1.125105818093     1.007825032230
         H            1.434129232972    -3.482099958472     1.209627818093     1.007825032230
         H            0.307465232972    -3.191426958472     2.558137818093     1.007825032230
         C           -0.774537767028     2.261358041528     0.849712818093    12.000000000000
         O           -0.978888767028     0.872295041528    -1.403851181907    15.994914619570
         S           -0.487032767028     2.213731041528    -0.928523181907    31.972071174400
         C            1.306902232972     2.082596041528    -0.812356181907    12.000000000000
         H           -0.368939767028     3.187094041528     1.254594818093     1.007825032230
         H           -1.852043767028     2.235792041528     0.990579818093     1.007825032230
         H           -0.300412767028     1.387027041528     1.293542818093     1.007825032230
         H            1.708398232972     2.989427041528    -0.363326181907     1.007825032230
         H            1.539495232972     1.200728041528    -0.216998181907     1.007825032230
         H            1.679272232972     1.976985041528    -1.828221181907     1.007825032230

  Charge       = 0
  Multiplicity = 1
  Basis Set: AUG-CC-PVQZ
    Blend: AUG-CC-PVQZ
  Basis Set: (AUG-CC-PVQZ AUX)
    Blend: AUG-CC-PVQZ-JKFIT

    Orbital Energies [Eh]
    ---------------------

    Doubly Occupied:

       1A    -92.057895     2A    -92.052925     3A    -20.499132
       4A    -20.493429     5A    -11.255305     6A    -11.244284
       7A    -11.242643     8A    -11.242583     9A     -9.045796
      10A     -9.040812    11A     -6.727894    12A     -6.727617
      13A     -6.726323    14A     -6.722977    15A     -6.722717
      16A     -6.721417    17A     -1.328321    18A     -1.322480
      19A     -1.059241    20A     -1.052194    21A     -0.966832
      22A     -0.959749    23A     -0.809900    24A     -0.802440
      25A     -0.640335    26A     -0.630108    27A     -0.622509
      28A     -0.614843    29A     -0.612080    30A     -0.607269
      31A     -0.578146    32A     -0.571247    33A     -0.556015
      34A     -0.554384    35A     -0.531802    36A     -0.529052
      37A     -0.512488    38A     -0.500583    39A     -0.418383
      40A     -0.410992    41A     -0.366600    42A     -0.359719

  @DF-RHF Final Energy: -1103.35182996682647

   => Energetics <=

    Nuclear Repulsion Energy =            585.7654863621944514
    One-Electron Energy =               -2685.3516883810889340
    Two-Electron Energy =                 996.2343720520677834
    Total Energy =                      -1103.3518299668264717

  Dipole Moment: [D]
     X:     0.9267      Y:    -1.2832      Z:     0.9805     Total:     1.8619

  Basis Set: (AUG-CC-PVQZ AUX)
    Blend: AUG-CC-PVQZ-RI
	 Reference Energy          =   -1103.3518299668264717 [Eh]
	 Singles Energy            =      -0.0000000000000000 [Eh]
	 Same-Spin Energy          =      -0.4566943158452197 [Eh]
	 Opposite-Spin Energy      =      -1.5459781402584825 [Eh]
	 Correlation Energy        =      -2.0026724561037019 [Eh]
	 Total Energy              =   -1105.3545024229301816 [Eh]

	 ================> DF-SCS-MP2 Energies <==================
	-----------------------------------------------------------
	 SCS Same-Spin Scale       =       0.3333333333333333 [-]
	 SCS Opposite-Spin Scale   =       1.2000000000000000 [-]
	 SCS Same-Spin Energy      =      -0.1522314386150732 [Eh]
	 SCS Opposite-Spin Energy  =      -1.8551737683101788 [Eh]
	 SCS Correlation Energy    =      -2.0074052069252519 [Eh]
	 SCS Total Energy          =   -1105.3592351737518129 [Eh]
	-----------------------------------------------------------

*** Psi4 exiting successfully. Buy a developer a beer!
