                               Psi4 1.4a2.dev224

  ==> Input File <==

--------------------------------------------------------------------------
#Generated by lconvert.py for cbs job

memory 20 GB

molecule  {
0 1
  C      -2.107810   -0.338730   -0.096960
  O      -1.410460    1.092430    2.026580
  S      -2.470810    0.107210    1.605410
  C      -1.971690   -1.467620    2.329000
  H      -2.738710   -1.173950   -0.395750
  H      -2.337850    0.544110   -0.687880
  H      -1.051820   -0.596400   -0.159100
  H      -2.624140   -2.262990    1.973910
  H      -0.934250   -1.654180    2.058430
  H      -2.060910   -1.363510    3.406940
--
0 1
  C      -3.243580    4.763030    1.471320
  O      -3.447930    3.373970   -0.782240
  S      -2.956080    4.715400   -0.306910
  C      -1.162140    4.584270   -0.190740
  H      -2.837990    5.688770    1.876210
  H      -4.321090    4.737460    1.612190
  H      -2.769460    3.888700    1.915150
  H      -0.760650    5.491100    0.258290
  H      -0.929550    3.702400    0.404610
  H      -0.789770    4.478660   -1.206610
units angstrom
no_reorient
symmetry c1
}

set {
scf_type DF
mp2_type DF
e_convergence 7
reference rhf
}

energy('mp2/aug-cc-pv[tq]z', bsse_type='cp')
--------------------------------------------------------------------------

    Molecular point group: c1
  Charge       = 0
  Multiplicity = 1
  Basis Set: AUG-CC-PVTZ
    Blend: AUG-CC-PVTZ
  Basis Set: (AUG-CC-PVTZ AUX)
    Blend: AUG-CC-PVTZ-JKFIT
  @DF-RHF Final Energy:  -551.65298641500408
    Total Energy =                       -551.6529864150040794
  Basis Set: (AUG-CC-PVTZ AUX)
    Blend: AUG-CC-PVTZ-RI
	 Reference Energy          =    -551.6529864150040794 [Eh]
	 Singles Energy            =      -0.0000000000000000 [Eh]
	 Same-Spin Energy          =      -0.2104363806672250 [Eh]
	 Opposite-Spin Energy      =      -0.6823709182016129 [Eh]
	 Correlation Energy        =      -0.8928072988688379 [Eh]
	 Total Energy              =    -552.5457937138729676 [Eh]
	 SCS Total Energy          =    -552.5419769770684297 [Eh]
    Molecular point group: c1
  Basis Set: AUG-CC-PVQZ
    Blend: AUG-CC-PVQZ
  Basis Set: (AUG-CC-PVQZ AUX)
    Blend: AUG-CC-PVQZ-JKFIT
  @DF-RHF Final Energy:  -551.67069809418979
    Total Energy =                       -551.6706980941897882
  Basis Set: (AUG-CC-PVQZ AUX)
  @DF-RHF Final Energy:  -551.65304335584108
    Total Energy =                       -551.6530433558410778
  @DF-RHF Final Energy:  -551.67073362610552
    Total Energy =                       -551.6707336261056298
  @DF-RHF Final Energy:  -551.65311372866688
    Total Energy =                       -551.6531137286669946
  @DF-RHF Final Energy:  -551.67076438035213
    Total Energy =                       -551.6707643803521250
  @DF-RHF Final Energy:  -551.65303242366531
    Total Energy =                       -551.6530324236653087
  @DF-RHF Final Energy:  -551.67072769281867
    Total Energy =                       -551.6707276928186729
  Multiplicity = 1
  @DF-RHF Final Energy: -1103.31394154243708
    Total Energy =                      -1103.3139415424370782
	 Singles Energy            =      -0.0000000000000000 [Eh]
	 Same-Spin Energy          =      -0.4220485664005292 [Eh]
	 Opposite-Spin Energy      =      -1.3665618231408998 [Eh]
	 Correlation Energy        =      -1.7886103895414291 [Eh]
	 Total Energy              =   -1105.1025519319784962 [Eh]
	 SCS Total Energy          =   -1105.0944985856729090 [Eh]
    Molecular point group: c1

    Geometry (in Angstrom), charge = 0, multiplicity = 1:

       Center              X                  Y                   Z               Mass
    ------------   -----------------  -----------------  -----------------  -----------------
         C            0.310900803162    -2.503523799793    -0.832169623985    12.000000000000
         O            1.008250803162    -1.072363799793     1.291370376015    15.994914619570
         S           -0.052099196838    -2.057583799793     0.870200376015    31.972071174400
         C            0.447020803162    -3.632413799793     1.593790376015    12.000000000000
         H           -0.319999196838    -3.338743799793    -1.130959623985     1.007825032230
         H            0.080860803162    -1.620683799793    -1.423089623985     1.007825032230
         H            1.366890803162    -2.761193799793    -0.894309623985     1.007825032230
         H           -0.205429196838    -4.427783799793     1.238700376015     1.007825032230
         H            1.484460803162    -3.818973799793     1.323220376015     1.007825032230
         H            0.357800803162    -3.528303799793     2.671730376015     1.007825032230
         C           -0.824869196838     2.598236200207     0.736110376015    12.000000000000
         O           -1.029219196838     1.209176200207    -1.517449623985    15.994914619570
         S           -0.537369196838     2.550606200207    -1.042119623985    31.972071174400
         C            1.256570803162     2.419476200207    -0.925949623985    12.000000000000
         H           -0.419279196838     3.523976200207     1.141000376015     1.007825032230
         H           -1.902379196838     2.572666200207     0.876980376015     1.007825032230
         H           -0.350749196838     1.723906200207     1.179940376015     1.007825032230
         H            1.658060803162     3.326306200207    -0.476919623985     1.007825032230
         H            1.489160803162     1.537606200207    -0.330599623985     1.007825032230
         H            1.628940803162     2.313866200207    -1.941819623985     1.007825032230

  Charge       = 0
  Multiplicity = 1
  Basis Set: AUG-CC-PVQZ
    Blend: AUG-CC-PVQZ
  Basis Set: (AUG-CC-PVQZ AUX)
    Blend: AUG-CC-PVQZ-JKFIT

    Orbital Energies [Eh]
    ---------------------

    Doubly Occupied:

       1A    -92.059170     2A    -92.055269     3A    -20.497651
       4A    -20.493442     5A    -11.256269     6A    -11.250656
       7A    -11.248637     8A    -11.248323     9A     -9.046948
      10A     -9.043020    11A     -6.729098    12A     -6.728785
      13A     -6.727474    14A     -6.725211    15A     -6.724914
      16A     -6.723606    17A     -1.325423    18A     -1.321665
      19A     -1.060556    20A     -1.055965    21A     -0.970048
      22A     -0.964395    23A     -0.810485    24A     -0.805483
      25A     -0.639336    26A     -0.634370    27A     -0.623022
      28A     -0.617997    29A     -0.616091    30A     -0.610585
      31A     -0.580899    32A     -0.573806    33A     -0.557254
      34A     -0.553503    35A     -0.536449    36A     -0.533642
      37A     -0.509440    38A     -0.503931    39A     -0.415992
      40A     -0.411142    41A     -0.365990    42A     -0.361265

  @DF-RHF Final Energy: -1103.34921949523323

   => Energetics <=

    Nuclear Repulsion Energy =            555.7724463918655147
    One-Electron Energy =               -2625.2089124419467225
    Two-Electron Energy =                 966.0872465548480932
    Total Energy =                      -1103.3492194952332284

  Dipole Moment: [D]
     X:     0.9303      Y:    -1.2382      Z:     0.9560     Total:     1.8201

  Basis Set: (AUG-CC-PVQZ AUX)
    Blend: AUG-CC-PVQZ-RI
	 Reference Energy          =   -1103.3492194952332284 [Eh]
	 Singles Energy            =      -0.0000000000000000 [Eh]
	 Same-Spin Energy          =      -0.4543912265876370 [Eh]
	 Opposite-Spin Energy      =      -1.5436879629982299 [Eh]
	 Correlation Energy        =      -1.9980791895858669 [Eh]
	 Total Energy              =   -1105.3472986848191795 [Eh]

	 ================> DF-SCS-MP2 Energies <==================
	-----------------------------------------------------------
	 SCS Same-Spin Scale       =       0.3333333333333333 [-]
	 SCS Opposite-Spin Scale   =       1.2000000000000000 [-]
	 SCS Same-Spin Energy      =      -0.1514637421958790 [Eh]
	 SCS Opposite-Spin Energy  =      -1.8524255555978757 [Eh]
	 SCS Correlation Energy    =      -2.0038892977937546 [Eh]
	 SCS Total Energy          =   -1105.3531087930268768 [Eh]
	-----------------------------------------------------------

*** Psi4 exiting successfully. Buy a developer a beer!
