                               Psi4 1.4a2.dev224

  ==> Input File <==

--------------------------------------------------------------------------
#Generated by lconvert.py for cbs job

memory 40 GB

molecule  {
0 1
  C       -2.1078120    -0.3387290    -0.0969620
  O       -1.4104560     1.0924310     2.0265800
  S       -2.4708060     0.1072130     1.6054120
  C       -1.9716920    -1.4676230     2.3289970
  H       -2.7387130    -1.1739520    -0.3957540
  H       -2.3378460     0.5441090    -0.6878810
  H       -1.0518200    -0.5964010    -0.1591040
  H       -2.6241360    -2.2629870     1.9739130
  H       -0.9342460    -1.6541830     2.0584350
  H       -2.0609100    -1.3635100     3.4069450
--
0 1
  C       -3.0080340     3.1865620     2.0029220
  O       -3.2123850     1.7974990    -0.2506420
  S       -2.7205290     3.1389350     0.2246860
  C       -0.9265940     3.0078000     0.3408530
  H       -2.6024360     4.1122980     2.4078040
  H       -4.0855400     3.1609960     2.1437890
  H       -2.5339090     2.3122310     2.4467520
  H       -0.5250980     3.9146310     0.7898830
  H       -0.6940010     2.1259320     0.9362110
  H       -0.5542240     2.9021890    -0.6750120
units angstrom
no_reorient
symmetry c1
}

set {
scf_type DF
mp2_type DF
e_convergence 7
reference rhf
}

energy('mp2/aug-cc-pv[tq]z', bsse_type='cp')
--------------------------------------------------------------------------

    Molecular point group: c1
  Charge       = 0
  Multiplicity = 1
  Basis Set: AUG-CC-PVTZ
    Blend: AUG-CC-PVTZ
  Basis Set: (AUG-CC-PVTZ AUX)
    Blend: AUG-CC-PVTZ-JKFIT
  @DF-RHF Final Energy:  -551.65298608460660
    Total Energy =                       -551.6529860846065958
  Basis Set: (AUG-CC-PVTZ AUX)
    Blend: AUG-CC-PVTZ-RI
	 Reference Energy          =    -551.6529860846065958 [Eh]
	 Singles Energy            =      -0.0000000000000000 [Eh]
	 Same-Spin Energy          =      -0.2104364307997249 [Eh]
	 Opposite-Spin Energy      =      -0.6823711316300389 [Eh]
	 Correlation Energy        =      -0.8928075624297638 [Eh]
	 Total Energy              =    -552.5457936470363620 [Eh]
	 SCS Total Energy          =    -552.5419769194959372 [Eh]
    Molecular point group: c1
  Basis Set: AUG-CC-PVQZ
    Blend: AUG-CC-PVQZ
  Basis Set: (AUG-CC-PVQZ AUX)
    Blend: AUG-CC-PVQZ-JKFIT
  @DF-RHF Final Energy:  -551.67069764129542
    Total Energy =                       -551.6706976412954191
  Basis Set: (AUG-CC-PVQZ AUX)
  @DF-RHF Final Energy:  -551.65325891819816
    Total Energy =                       -551.6532589181981621
  @DF-RHF Final Energy:  -551.67081440708307
    Total Energy =                       -551.6708144070830713
  @DF-RHF Final Energy:  -551.65344138412024
    Total Energy =                       -551.6534413841202422
  @DF-RHF Final Energy:  -551.67086052077582
    Total Energy =                       -551.6708605207758183
  @DF-RHF Final Energy:  -551.65303249128249
    Total Energy =                       -551.6530324912824881
  @DF-RHF Final Energy:  -551.67072777681562
    Total Energy =                       -551.6707277768156246
  Multiplicity = 1
  @DF-RHF Final Energy: -1103.24763537213698
    Total Energy =                      -1103.2476353721369833
	 Singles Energy            =      -0.0000000000000000 [Eh]
	 Same-Spin Energy          =      -0.4378170666504517 [Eh]
	 Opposite-Spin Energy      =      -1.3854065543015999 [Eh]
	 Correlation Energy        =      -1.8232236209520516 [Eh]
	 Total Energy              =   -1105.0708589930891321 [Eh]
	 SCS Total Energy          =   -1105.0560622595157838 [Eh]
    Molecular point group: c1

    Geometry (in Angstrom), charge = 0, multiplicity = 1:

       Center              X                  Y                   Z               Mass
    ------------   -----------------  -----------------  -----------------  -----------------
         C            0.193123732972    -1.715289458472    -1.097970181907    12.000000000000
         O            0.890479732972    -0.284129458472     1.025571818093    15.994914619570
         S           -0.169870267028    -1.269347458472     0.604403818093    31.972071174400
         C            0.329243732972    -2.844183458472     1.327988818093    12.000000000000
         H           -0.437777267028    -2.550512458472    -1.396762181907     1.007825032230
         H           -0.036910267028    -0.832451458472    -1.688889181907     1.007825032230
         H            1.249115732972    -1.972961458472    -1.160112181907     1.007825032230
         H           -0.323200267028    -3.639547458472     0.972904818093     1.007825032230
         H            1.366689732972    -3.030743458472     1.057426818093     1.007825032230
         H            0.240025732972    -2.740070458472     2.405936818093     1.007825032230
         C           -0.707098267028     1.810001541528     1.001913818093    12.000000000000
         O           -0.911449267028     0.420938541528    -1.251650181907    15.994914619570
         S           -0.419593267028     1.762374541528    -0.776322181907    31.972071174400
         C            1.374341732972     1.631239541528    -0.660155181907    12.000000000000
         H           -0.301500267028     2.735737541528     1.406795818093     1.007825032230
         H           -1.784604267028     1.784435541528     1.142780818093     1.007825032230
         H           -0.232973267028     0.935670541528     1.445743818093     1.007825032230
         H            1.775837732972     2.538070541528    -0.211125181907     1.007825032230
         H            1.606934732972     0.749371541528    -0.064797181907     1.007825032230
         H            1.746711732972     1.525628541528    -1.676020181907     1.007825032230

  Charge       = 0
  Multiplicity = 1
  Basis Set: AUG-CC-PVQZ
    Blend: AUG-CC-PVQZ
  Basis Set: (AUG-CC-PVQZ AUX)
    Blend: AUG-CC-PVQZ-JKFIT

    Orbital Energies [Eh]
    ---------------------

    Doubly Occupied:

       1A    -92.055031     2A    -92.049491     3A    -20.502897
       4A    -20.496904     5A    -11.251938     6A    -11.224805
       7A    -11.222353     8A    -11.220343     9A     -9.043942
      10A     -9.038260    11A     -6.725940    12A     -6.725525
      13A     -6.724321    14A     -6.720266    15A     -6.720154
      16A     -6.718921    17A     -1.354955    18A     -1.334984
      19A     -1.066953    20A     -1.040517    21A     -0.960564
      22A     -0.951039    23A     -0.820936    24A     -0.797979
      25A     -0.664383    26A     -0.650357    27A     -0.634865
      28A     -0.615455    29A     -0.603371    30A     -0.598338
      31A     -0.595081    32A     -0.572748    33A     -0.552521
      34A     -0.537730    35A     -0.526770    36A     -0.515125
      37A     -0.500367    38A     -0.482407    39A     -0.419718
      40A     -0.407215    41A     -0.369957    42A     -0.354164

  @DF-RHF Final Energy: -1103.28259649155711

   => Energetics <=

    Nuclear Repulsion Energy =            643.1837446114444674
    One-Electron Energy =               -2800.1934897987343902
    Two-Electron Energy =                1053.7271486957326943
    Total Energy =                      -1103.2825964915571149

  Dipole Moment: [D]
     X:     0.8107      Y:    -1.3106      Z:     1.0366     Total:     1.8572

  Basis Set: (AUG-CC-PVQZ AUX)
    Blend: AUG-CC-PVQZ-RI
	 Reference Energy          =   -1103.2825964915571149 [Eh]
	 Singles Energy            =      -0.0000000000000000 [Eh]
	 Same-Spin Energy          =      -0.4697571439865083 [Eh]
	 Opposite-Spin Energy      =      -1.5592377994935369 [Eh]
	 Correlation Energy        =      -2.0289949434800452 [Eh]
	 Total Energy              =   -1105.3115914350371440 [Eh]

	 ================> DF-SCS-MP2 Energies <==================
	-----------------------------------------------------------
	 SCS Same-Spin Scale       =       0.3333333333333333 [-]
	 SCS Opposite-Spin Scale   =       1.2000000000000000 [-]
	 SCS Same-Spin Energy      =      -0.1565857146621694 [Eh]
	 SCS Opposite-Spin Energy  =      -1.8710853593922443 [Eh]
	 SCS Correlation Energy    =      -2.0276710740544139 [Eh]
	 SCS Total Energy          =   -1105.3102675656116389 [Eh]
	-----------------------------------------------------------

*** Psi4 exiting successfully. Buy a developer a beer!
