                               Psi4 1.4a2.dev224

  ==> Input File <==

--------------------------------------------------------------------------
#Generated by lconvert.py for cbs job

memory 40 GB

molecule  {
0 1
  C       -2.1078120    -0.3387290    -0.0969620
  O       -1.4104560     1.0924310     2.0265800
  S       -2.4708060     0.1072130     1.6054120
  C       -1.9716920    -1.4676230     2.3289970
  H       -2.7387130    -1.1739520    -0.3957540
  H       -2.3378460     0.5441090    -0.6878810
  H       -1.0518200    -0.5964010    -0.1591040
  H       -2.6241360    -2.2629870     1.9739130
  H       -0.9342460    -1.6541830     2.0584350
  H       -2.0609100    -1.3635100     3.4069450
--
0 1
  C       -3.0080340     3.1865620     2.0029220
  O       -3.2123850     1.7974990    -0.2506420
  S       -2.7205290     3.1389350     0.2246860
  C       -0.9265940     3.0078000     0.3408530
  H       -2.6024360     4.1122980     2.4078040
  H       -4.0855400     3.1609960     2.1437890
  H       -2.5339090     2.3122310     2.4467520
  H       -0.5250980     3.9146310     0.7898830
  H       -0.6940010     2.1259320     0.9362110
  H       -0.5542240     2.9021890    -0.6750120
units angstrom
no_reorient
symmetry c1
}

set {
scf_type DF
mp2_type DF
e_convergence 7
reference rhf
}

energy('mp2/aug-cc-pv[tq]z', bsse_type='cp')
--------------------------------------------------------------------------

    Molecular point group: c1
  Charge       = 0
  Multiplicity = 1
  Basis Set: AUG-CC-PVTZ
    Blend: AUG-CC-PVTZ
  Basis Set: (AUG-CC-PVTZ AUX)
    Blend: AUG-CC-PVTZ-JKFIT
  @DF-RHF Final Energy:  -551.65298608460660
    Total Energy =                       -551.6529860846065958
  Basis Set: (AUG-CC-PVTZ AUX)
    Blend: AUG-CC-PVTZ-RI
	 Reference Energy          =    -551.6529860846065958 [Eh]
	 Singles Energy            =      -0.0000000000000000 [Eh]
	 Same-Spin Energy          =      -0.2104364307997249 [Eh]
	 Opposite-Spin Energy      =      -0.6823711316300389 [Eh]
	 Correlation Energy        =      -0.8928075624297638 [Eh]
	 Total Energy              =    -552.5457936470363620 [Eh]
	 SCS Total Energy          =    -552.5419769194959372 [Eh]
    Molecular point group: c1
  Basis Set: AUG-CC-PVQZ
    Blend: AUG-CC-PVQZ
  Basis Set: (AUG-CC-PVQZ AUX)
    Blend: AUG-CC-PVQZ-JKFIT
  @DF-RHF Final Energy:  -551.67069764129542
    Total Energy =                       -551.6706976412954191
  Basis Set: (AUG-CC-PVQZ AUX)
  @DF-RHF Final Energy:  -551.65325891819816
    Total Energy =                       -551.6532589181981621
  @DF-RHF Final Energy:  -551.67081440708307
    Total Energy =                       -551.6708144070830713
  @DF-RHF Final Energy:  -551.65344138412024
    Total Energy =                       -551.6534413841202422
  @DF-RHF Final Energy:  -551.67086052077582
    Total Energy =                       -551.6708605207758183
  @DF-RHF Final Energy:  -551.65303249128249
    Total Energy =                       -551.6530324912824881
  @DF-RHF Final Energy:  -551.67072777681562
    Total Energy =                       -551.6707277768156246
  @DF-RHF Final Energy: -1103.24763537213698
    Total Energy =                      -1103.2476353721369833
  @DF-RHF Final Energy: -1103.28259649155711
    Total Energy =                      -1103.2825964915571149
*** Psi4 exiting successfully. Buy a developer a beer!
                               Psi4 1.4a2.dev224
  @DF-RHF Final Energy:  -551.65298608508897
    Total Energy =                       -551.6529860850889690
  @DF-RHF Final Energy:  -551.67069764256109
    Total Energy =                       -551.6706976425610947
  @DF-RHF Final Energy:  -551.65320242970733
    Total Energy =                       -551.6532024297073349
  @DF-RHF Final Energy:  -551.67079215545925
    Total Energy =                       -551.6707921554593668
  @DF-RHF Final Energy:  -551.65335157982429
    Total Energy =                       -551.6533515798244025
  @DF-RHF Final Energy:  -551.67083387979426
    Total Energy =                       -551.6708338797943725
  @DF-RHF Final Energy:  -551.65303249122462
    Total Energy =                       -551.6530324912246215
  @DF-RHF Final Energy:  -551.67072777708393
    Total Energy =                       -551.6707277770840392
  @DF-RHF Final Energy: -1103.29382596270125
    Total Energy =                      -1103.2938259627012485
  @DF-RHF Final Energy: -1103.32886493714818
    Total Energy =                      -1103.3288649371481824
*** Psi4 exiting successfully. Buy a developer a beer!
                               Psi4 1.4a2.dev224
                               Psi4 1.4a2.dev224
                               Psi4 1.4a2.dev224
                               Psi4 1.4a2.dev224
                               Psi4 1.4a2.dev224
                               Psi4 1.4a2.dev224
                               Psi4 1.4a2.dev224
  @DF-RHF Final Energy:  -551.65298626750825
    Total Energy =                       -551.6529862675081404
  @DF-RHF Final Energy:  -551.67069791143740
    Total Energy =                       -551.6706979114374008
  @DF-RHF Final Energy:  -551.65301285790383
    Total Energy =                       -551.6530128579038319
  @DF-RHF Final Energy:  -551.67071687015891
    Total Energy =                       -551.6707168701589126
  @DF-RHF Final Energy:  -551.65306854389610
    Total Energy =                       -551.6530685438960973
  @DF-RHF Final Energy:  -551.67074478549705
    Total Energy =                       -551.6707447854969359
  @DF-RHF Final Energy:  -551.65303242408299
    Total Energy =                       -551.6530324240829941
  @DF-RHF Final Energy:  -551.67072769130095
    Total Energy =                       -551.6707276913009537
  @DF-RHF Final Energy: -1103.31012762731689
    Total Energy =                      -1103.3101276273168878
  @DF-RHF Final Energy: -1103.34547725407015
    Total Energy =                      -1103.3454772540701470
*** Psi4 exiting successfully. Buy a developer a beer!
                               Psi4 1.4a2.dev224
  @DF-RHF Final Energy:  -551.65298592869556
    Total Energy =                       -551.6529859286954434
  @DF-RHF Final Energy:  -551.67069738998873
    Total Energy =                       -551.6706973899887316
  @DF-RHF Final Energy:  -551.65299773308175
    Total Energy =                       -551.6529977330817474
  @DF-RHF Final Energy:  -551.67070688936110
    Total Energy =                       -551.6707068893610995
  @DF-RHF Final Energy:  -551.65304956027239
    Total Energy =                       -551.6530495602723931
  @DF-RHF Final Energy:  -551.67073731271580
    Total Energy =                       -551.6707373127158007
  @DF-RHF Final Energy:  -551.65303242395737
    Total Energy =                       -551.6530324239573702
  @DF-RHF Final Energy:  -551.67072769321408
    Total Energy =                       -551.6707276932140758
  Multiplicity = 1
  @DF-RHF Final Energy: -1103.30826030609728
    Total Energy =                      -1103.3082603060975089
	 Singles Energy            =      -0.0000000000000000 [Eh]
	 Same-Spin Energy          =      -0.4209510370488082 [Eh]
	 Opposite-Spin Energy      =      -1.3649118263875595 [Eh]
	 Correlation Energy        =      -1.7858628634363676 [Eh]
	 Total Energy              =   -1105.0941231695337592 [Eh]
	 SCS Total Energy          =   -1105.0864715101120055 [Eh]
    Molecular point group: c1

    Geometry (in Angstrom), charge = 0, multiplicity = 1:

       Center              X                  Y                   Z               Mass
    ------------   -----------------  -----------------  -----------------  -----------------
         C            0.435242597387    -3.335705913512    -0.551553725707    12.000000000000
         O            1.132592597387    -1.904545913512     1.571986274293    15.994914619570
         S            0.072242597387    -2.889765913512     1.150816274293    31.972071174400
         C            0.571362597387    -4.464595913512     1.874406274293    12.000000000000
         H           -0.195657402613    -4.170925913512    -0.850343725707     1.007825032230
         H            0.205202597387    -2.452865913512    -1.142473725707     1.007825032230
         H            1.491232597387    -3.593375913512    -0.613693725707     1.007825032230
         H           -0.081087402613    -5.259965913512     1.519316274293     1.007825032230
         H            1.608802597387    -4.651155913512     1.603836274293     1.007825032230
         H            0.482142597387    -4.360485913512     2.952346274293     1.007825032230
         C           -0.949217402613     3.430414086488     0.455496274293    12.000000000000
         O           -1.153567402613     2.041354086488    -1.798063725707    15.994914619570
         S           -0.661707402613     3.382794086488    -1.322733725707    31.972071174400
         C            1.132232597387     3.251654086488    -1.206573725707    12.000000000000
         H           -0.543617402613     4.356154086488     0.860376274293     1.007825032230
         H           -2.026717402613     3.404854086488     0.596366274293     1.007825032230
         H           -0.475087402613     2.556084086488     0.899326274293     1.007825032230
         H            1.533722597387     4.158484086488    -0.757543725707     1.007825032230
         H            1.364822597387     2.369784086488    -0.611213725707     1.007825032230
         H            1.504602597387     3.146044086488    -2.222433725707     1.007825032230

  Charge       = 0
  Multiplicity = 1
  Basis Set: AUG-CC-PVQZ
    Blend: AUG-CC-PVQZ
  Basis Set: (AUG-CC-PVQZ AUX)
    Blend: AUG-CC-PVQZ-JKFIT

    Orbital Energies [Eh]
    ---------------------

    Doubly Occupied:

       1A    -92.061344     2A    -92.058927     3A    -20.497180
       4A    -20.495002     5A    -11.257960     6A    -11.256659
       7A    -11.254824     8A    -11.254559     9A     -9.049063
      10A     -9.046593    11A     -6.731258    12A     -6.730915
      13A     -6.729586    14A     -6.728797    15A     -6.728473
      16A     -6.727154    17A     -1.324955    18A     -1.323183
      19A     -1.063240    20A     -1.060734    21A     -0.973819
      22A     -0.970112    23A     -0.812807    24A     -0.809864
      25A     -0.642004    26A     -0.640542    27A     -0.626113
      28A     -0.622675    29A     -0.619161    30A     -0.615205
      31A     -0.584359    32A     -0.580609    33A     -0.557823
      34A     -0.555590    35A     -0.540619    36A     -0.538261
      37A     -0.508806    38A     -0.507183    39A     -0.415454
      40A     -0.412968    41A     -0.366765    42A     -0.363910

  @DF-RHF Final Energy: -1103.34364045390726

   => Energetics <=

    Nuclear Repulsion Energy =            507.5425576313875240
    One-Electron Energy =               -2528.4822932539182148
    Two-Electron Energy =                 917.5960951686233784
    Total Energy =                      -1103.3436404539072555

  Dipole Moment: [D]
     X:     0.9310      Y:    -1.1938      Z:     0.9389     Total:     1.7815

  Basis Set: (AUG-CC-PVQZ AUX)
    Blend: AUG-CC-PVQZ-RI
	 Reference Energy          =   -1103.3436404539072555 [Eh]
	 Singles Energy            =      -0.0000000000000000 [Eh]
	 Same-Spin Energy          =      -0.4533955476981201 [Eh]
	 Opposite-Spin Energy      =      -1.5427532713068586 [Eh]
	 Correlation Energy        =      -1.9961488190049788 [Eh]
	 Total Energy              =   -1105.3397892729121850 [Eh]

	 ================> DF-SCS-MP2 Energies <==================
	-----------------------------------------------------------
	 SCS Same-Spin Scale       =       0.3333333333333333 [-]
	 SCS Opposite-Spin Scale   =       1.2000000000000000 [-]
	 SCS Same-Spin Energy      =      -0.1511318492327067 [Eh]
	 SCS Opposite-Spin Energy  =      -1.8513039255682302 [Eh]
	 SCS Correlation Energy    =      -2.0024357748009369 [Eh]
	 SCS Total Energy          =   -1105.3460762287081707 [Eh]
	-----------------------------------------------------------

*** Psi4 exiting successfully. Buy a developer a beer!
