                               Psi4 1.4a2.dev224

  ==> Input File <==

--------------------------------------------------------------------------
#Generated by lconvert.py for cbs job

memory 20 GB

molecule  {
0 1
  C      -2.107810   -0.338730   -0.096960
  O      -1.410460    1.092430    2.026580
  S      -2.470810    0.107210    1.605410
  C      -1.971690   -1.467620    2.329000
  H      -2.738710   -1.173950   -0.395750
  H      -2.337850    0.544110   -0.687880
  H      -1.051820   -0.596400   -0.159100
  H      -2.624140   -2.262990    1.973910
  H      -0.934250   -1.654180    2.058430
  H      -2.060910   -1.363510    3.406940
--
0 1
  C      -3.367920    5.595210    1.190710
  O      -3.572270    4.206150   -1.062860
  S      -3.080420    5.547580   -0.587530
  C      -1.286480    5.416450   -0.471360
  H      -2.962330    6.520950    1.595590
  H      -4.445430    5.569650    1.331570
  H      -2.893800    4.720880    1.634540
  H      -0.884990    6.323280   -0.022330
  H      -1.053890    4.534580    0.124000
  H      -0.914110    5.310840   -1.487230
units angstrom
no_reorient
symmetry c1
}

set {
scf_type DF
mp2_type DF
e_convergence 7
reference rhf
}

energy('mp2/aug-cc-pv[tq]z', bsse_type='cp')
--------------------------------------------------------------------------

    Molecular point group: c1
  Charge       = 0
  Multiplicity = 1
  Basis Set: AUG-CC-PVTZ
    Blend: AUG-CC-PVTZ
  Basis Set: (AUG-CC-PVTZ AUX)
    Blend: AUG-CC-PVTZ-JKFIT
  @DF-RHF Final Energy:  -551.65298626750825
    Total Energy =                       -551.6529862675081404
  Basis Set: (AUG-CC-PVTZ AUX)
    Blend: AUG-CC-PVTZ-RI
	 Reference Energy          =    -551.6529862675082541 [Eh]
	 Singles Energy            =      -0.0000000000000000 [Eh]
	 Same-Spin Energy          =      -0.2104363517368763 [Eh]
	 Opposite-Spin Energy      =      -0.6823710098419190 [Eh]
	 Correlation Energy        =      -0.8928073615787953 [Eh]
	 Total Energy              =    -552.5457936290870293 [Eh]
	 SCS Total Energy          =    -552.5419769298974870 [Eh]
    Molecular point group: c1
  Basis Set: AUG-CC-PVQZ
    Blend: AUG-CC-PVQZ
  Basis Set: (AUG-CC-PVQZ AUX)
    Blend: AUG-CC-PVQZ-JKFIT
  @DF-RHF Final Energy:  -551.67069791143740
    Total Energy =                       -551.6706979114374008
  Basis Set: (AUG-CC-PVQZ AUX)
  @DF-RHF Final Energy:  -551.65301285790383
    Total Energy =                       -551.6530128579038319
  @DF-RHF Final Energy:  -551.67071687015891
    Total Energy =                       -551.6707168701589126
  @DF-RHF Final Energy:  -551.65306854389610
    Total Energy =                       -551.6530685438960973
  @DF-RHF Final Energy:  -551.67074478549705
    Total Energy =                       -551.6707447854969359
  @DF-RHF Final Energy:  -551.65303242408299
    Total Energy =                       -551.6530324240829941
  @DF-RHF Final Energy:  -551.67072769130095
    Total Energy =                       -551.6707276913009537
  Multiplicity = 1
  @DF-RHF Final Energy: -1103.31012762731689
    Total Energy =                      -1103.3101276273168878
	 Singles Energy            =      -0.0000000000000000 [Eh]
	 Same-Spin Energy          =      -0.4211853480319337 [Eh]
	 Opposite-Spin Energy      =      -1.3653161043186752 [Eh]
	 Correlation Energy        =      -1.7865014523506089 [Eh]
	 Total Energy              =   -1105.0966290796675366 [Eh]
	 SCS Total Energy          =   -1105.0889020685099240 [Eh]
    Molecular point group: c1

    Geometry (in Angstrom), charge = 0, multiplicity = 1:

       Center              X                  Y                   Z               Mass
    ------------   -----------------  -----------------  -----------------  -----------------
         C            0.373070803162    -2.919613864386    -0.691860522264    12.000000000000
         O            1.070420803162    -1.488453864386     1.431679477736    15.994914619570
         S            0.010070803162    -2.473673864386     1.010509477736    31.972071174400
         C            0.509190803162    -4.048503864386     1.734099477736    12.000000000000
         H           -0.257829196838    -3.754833864386    -0.990650522264     1.007825032230
         H            0.143030803162    -2.036773864386    -1.282780522264     1.007825032230
         H            1.429060803162    -3.177283864386    -0.754000522264     1.007825032230
         H           -0.143259196838    -4.843873864386     1.379009477736     1.007825032230
         H            1.546630803162    -4.235063864386     1.463529477736     1.007825032230
         H            0.419970803162    -3.944393864386     2.812039477736     1.007825032230
         C           -0.887039196838     3.014326135614     0.595809477736    12.000000000000
         O           -1.091389196838     1.625266135614    -1.657760522264    15.994914619570
         S           -0.599539196838     2.966696135614    -1.182430522264    31.972071174400
         C            1.194400803162     2.835566135614    -1.066260522264    12.000000000000
         H           -0.481449196838     3.940066135614     1.000689477736     1.007825032230
         H           -1.964549196838     2.988766135614     0.736669477736     1.007825032230
         H           -0.412919196838     2.139996135614     1.039639477736     1.007825032230
         H            1.595890803162     3.742396135614    -0.617230522264     1.007825032230
         H            1.426990803162     1.953696135614    -0.470900522264     1.007825032230
         H            1.566770803162     2.729956135614    -2.082130522264     1.007825032230

  Charge       = 0
  Multiplicity = 1
  Basis Set: AUG-CC-PVQZ
    Blend: AUG-CC-PVQZ
  Basis Set: (AUG-CC-PVQZ AUX)
    Blend: AUG-CC-PVQZ-JKFIT

    Orbital Energies [Eh]
    ---------------------

    Doubly Occupied:

       1A    -92.060389     2A    -92.057378     3A    -20.497066
       4A    -20.494105     5A    -11.257220     6A    -11.254502
       7A    -11.252518     8A    -11.252190     9A     -9.048125
      10A     -9.045069    11A     -6.730305    12A     -6.729971
      13A     -6.728648    14A     -6.727271    15A     -6.726954
      16A     -6.725640    17A     -1.324782    18A     -1.322266
      19A     -1.062115    20A     -1.058822    21A     -0.972383
      22A     -0.967894    23A     -0.811780    24A     -0.808060
      25A     -0.640747    26A     -0.638212    27A     -0.624761
      28A     -0.620792    29A     -0.618019    30A     -0.613329
      31A     -0.583024    32A     -0.577970    33A     -0.557400
      34A     -0.554410    35A     -0.539123    36A     -0.536415
      37A     -0.508581    38A     -0.505896    39A     -0.415278
      40A     -0.411978    41A     -0.366229    42A     -0.362695

  @DF-RHF Final Energy: -1103.34547725407015

   => Energetics <=

    Nuclear Repulsion Energy =            528.1920106486169288
    One-Electron Energy =               -2569.8943538154276212
    Two-Electron Energy =                 938.3568659127406590
    Total Energy =                      -1103.3454772540701470

  Dipole Moment: [D]
     X:     0.9305      Y:    -1.2091      Z:     0.9436     Total:     1.7939

  Basis Set: (AUG-CC-PVQZ AUX)
    Blend: AUG-CC-PVQZ-RI
	 Reference Energy          =   -1103.3454772540701470 [Eh]
	 Singles Energy            =      -0.0000000000000000 [Eh]
	 Same-Spin Energy          =      -0.4535987453060652 [Eh]
	 Opposite-Spin Energy      =      -1.5429247180910202 [Eh]
	 Correlation Energy        =      -1.9965234633970854 [Eh]
	 Total Energy              =   -1105.3420007174672719 [Eh]

	 ================> DF-SCS-MP2 Energies <==================
	-----------------------------------------------------------
	 SCS Same-Spin Scale       =       0.3333333333333333 [-]
	 SCS Opposite-Spin Scale   =       1.2000000000000000 [-]
	 SCS Same-Spin Energy      =      -0.1511995817686884 [Eh]
	 SCS Opposite-Spin Energy  =      -1.8515096617092242 [Eh]
	 SCS Correlation Energy    =      -2.0027092434779123 [Eh]
	 SCS Total Energy          =   -1105.3481864975481130 [Eh]
	-----------------------------------------------------------

*** Psi4 exiting successfully. Buy a developer a beer!
