                               Psi4 1.4a2.dev224

  ==> Input File <==

--------------------------------------------------------------------------
#Generated by lconvert.py for cbs job

memory 40 GB

molecule  {
0 1
  C       -2.1078120    -0.3387290    -0.0969620
  O       -1.4104560     1.0924310     2.0265800
  S       -2.4708060     0.1072130     1.6054120
  C       -1.9716920    -1.4676230     2.3289970
  H       -2.7387130    -1.1739520    -0.3957540
  H       -2.3378460     0.5441090    -0.6878810
  H       -1.0518200    -0.5964010    -0.1591040
  H       -2.6241360    -2.2629870     1.9739130
  H       -0.9342460    -1.6541830     2.0584350
  H       -2.0609100    -1.3635100     3.4069450
--
0 1
  C       -3.1066500     3.8465730     1.7803610
  O       -3.3110010     2.4575100    -0.4732030
  S       -2.8191450     3.7989460     0.0021250
  C       -1.0252100     3.6678110     0.1182920
  H       -2.7010520     4.7723090     2.1852430
  H       -4.1841560     3.8210070     1.9212280
  H       -2.6325250     2.9722420     2.2241910
  H       -0.6237140     4.5746420     0.5673220
  H       -0.7926170     2.7859430     0.7136500
  H       -0.6528400     3.5622000    -0.8975730
units angstrom
no_reorient
symmetry c1
}

set {
scf_type DF
mp2_type DF
e_convergence 7
reference rhf
}

energy('mp2/aug-cc-pv[tq]z', bsse_type='cp')
--------------------------------------------------------------------------

    Molecular point group: c1
  Charge       = 0
  Multiplicity = 1
  Basis Set: AUG-CC-PVTZ
    Blend: AUG-CC-PVTZ
  Basis Set: (AUG-CC-PVTZ AUX)
    Blend: AUG-CC-PVTZ-JKFIT
  @DF-RHF Final Energy:  -551.65298608477394
    Total Energy =                       -551.6529860847739428
  Basis Set: (AUG-CC-PVTZ AUX)
    Blend: AUG-CC-PVTZ-RI
	 Reference Energy          =    -551.6529860847739428 [Eh]
	 Singles Energy            =      -0.0000000000000000 [Eh]
	 Same-Spin Energy          =      -0.2104364308020300 [Eh]
	 Opposite-Spin Energy      =      -0.6823711316400382 [Eh]
	 Correlation Energy        =      -0.8928075624420682 [Eh]
	 Total Energy              =    -552.5457936472159872 [Eh]
	 SCS Total Energy          =    -552.5419769196760171 [Eh]
    Molecular point group: c1
  Basis Set: AUG-CC-PVQZ
    Blend: AUG-CC-PVQZ
  Basis Set: (AUG-CC-PVQZ AUX)
    Blend: AUG-CC-PVQZ-JKFIT
  @DF-RHF Final Energy:  -551.67069764087194
    Total Energy =                       -551.6706976408719356
  Basis Set: (AUG-CC-PVQZ AUX)
  @DF-RHF Final Energy:  -551.65314065820985
    Total Energy =                       -551.6531406582098498
  @DF-RHF Final Energy:  -551.67076990634655
    Total Energy =                       -551.6707699063465498
  @DF-RHF Final Energy:  -551.65326570026934
    Total Energy =                       -551.6532657002693441
  @DF-RHF Final Energy:  -551.67080904716101
    Total Energy =                       -551.6708090471611285
  @DF-RHF Final Energy:  -551.65303249131534
    Total Energy =                       -551.6530324913153436
  @DF-RHF Final Energy:  -551.67072777727469
    Total Energy =                       -551.6707277772746920
  Multiplicity = 1
  @DF-RHF Final Energy: -1103.31420639739122
    Total Energy =                      -1103.3142063973909899
	 Singles Energy            =      -0.0000000000000000 [Eh]
	 Same-Spin Energy          =      -0.4264026805069593 [Eh]
	 Opposite-Spin Energy      =      -1.3721758161152742 [Eh]
	 Correlation Energy        =      -1.7985784966222336 [Eh]
	 Total Energy              =   -1105.1127848940134299 [Eh]
	 SCS Total Energy          =   -1105.1029516035650886 [Eh]
    Molecular point group: c1

    Geometry (in Angstrom), charge = 0, multiplicity = 1:

       Center              X                  Y                   Z               Mass
    ------------   -----------------  -----------------  -----------------  -----------------
         C            0.242431732972    -2.045294958472    -0.986689681907    12.000000000000
         O            0.939787732972    -0.614134958472     1.136852318093    15.994914619570
         S           -0.120562267028    -1.599352958472     0.715684318093    31.972071174400
         C            0.378551732972    -3.174188958472     1.439269318093    12.000000000000
         H           -0.388469267028    -2.880517958472    -1.285481681907     1.007825032230
         H            0.012397732972    -1.162456958472    -1.577608681907     1.007825032230
         H            1.298423732972    -2.302966958472    -1.048831681907     1.007825032230
         H           -0.273892267028    -3.969552958472     1.084185318093     1.007825032230
         H            1.415997732972    -3.360748958472     1.168707318093     1.007825032230
         H            0.289333732972    -3.070075958472     2.517217318093     1.007825032230
         C           -0.756406267028     2.140007041528     0.890633318093    12.000000000000
         O           -0.960757267028     0.750944041528    -1.362930681907    15.994914619570
         S           -0.468901267028     2.092380041528    -0.887602681907    31.972071174400
         C            1.325033732972     1.961245041528    -0.771435681907    12.000000000000
         H           -0.350808267028     3.065743041528     1.295515318093     1.007825032230
         H           -1.833912267028     2.114441041528     1.031500318093     1.007825032230
         H           -0.282281267028     1.265676041528     1.334463318093     1.007825032230
         H            1.726529732972     2.868076041528    -0.322405681907     1.007825032230
         H            1.557626732972     1.079377041528    -0.176077681907     1.007825032230
         H            1.697403732972     1.855634041528    -1.787300681907     1.007825032230

  Charge       = 0
  Multiplicity = 1
  Basis Set: AUG-CC-PVQZ
    Blend: AUG-CC-PVQZ
  Basis Set: (AUG-CC-PVQZ AUX)
    Blend: AUG-CC-PVQZ-JKFIT

    Orbital Energies [Eh]
    ---------------------

    Doubly Occupied:

       1A    -92.057305     2A    -92.051909     3A    -20.499915
       4A    -20.493637     5A    -11.254859     6A    -11.240345
       7A    -11.239315     8A    -11.239124     9A     -9.045320
      10A     -9.039901    11A     -6.727388    12A     -6.727127
      13A     -6.725842    14A     -6.722046    15A     -6.721809
      16A     -6.720516    17A     -1.331016    18A     -1.323625
      19A     -1.059252    20A     -1.050122    21A     -0.965229
      22A     -0.957479    23A     -0.810447    24A     -0.801061
      25A     -0.642848    26A     -0.629486    27A     -0.623480
      28A     -0.613468    29A     -0.609335    30A     -0.605684
      31A     -0.577105    32A     -0.573267    33A     -0.555783
      34A     -0.552715    35A     -0.529905    36A     -0.525167
      37A     -0.513777    38A     -0.498382    39A     -0.419699
      40A     -0.411082    41A     -0.367210    42A     -0.358887

  @DF-RHF Final Energy: -1103.34931107512557

   => Energetics <=

    Nuclear Repulsion Energy =            598.8985220262351277
    One-Electron Energy =               -2711.6719000904945460
    Two-Electron Energy =                1009.4240669891336211
    Total Energy =                      -1103.3493110751255699

  Dipole Moment: [D]
     X:     0.9194      Y:    -1.3049      Z:     0.9944     Total:     1.8806

  Basis Set: (AUG-CC-PVQZ AUX)
    Blend: AUG-CC-PVQZ-RI
	 Reference Energy          =   -1103.3493110751255699 [Eh]
	 Singles Energy            =      -0.0000000000000000 [Eh]
	 Same-Spin Energy          =      -0.4584801199704999 [Eh]
	 Opposite-Spin Energy      =      -1.5477425815810708 [Eh]
	 Correlation Energy        =      -2.0062227015515708 [Eh]
	 Total Energy              =   -1105.3555337766772482 [Eh]

	 ================> DF-SCS-MP2 Energies <==================
	-----------------------------------------------------------
	 SCS Same-Spin Scale       =       0.3333333333333333 [-]
	 SCS Opposite-Spin Scale   =       1.2000000000000000 [-]
	 SCS Same-Spin Energy      =      -0.1528267066568333 [Eh]
	 SCS Opposite-Spin Energy  =      -1.8572910978972850 [Eh]
	 SCS Correlation Energy    =      -2.0101178045541181 [Eh]
	 SCS Total Energy          =   -1105.3594288796796263 [Eh]
	-----------------------------------------------------------

*** Psi4 exiting successfully. Buy a developer a beer!
