                               Psi4 1.4a2.dev224

  ==> Input File <==

--------------------------------------------------------------------------
#Generated by lconvert.py for cbs job

memory 40 GB

molecule  {
0 1
  C       -2.1078120    -0.3387290    -0.0969620
  O       -1.4104560     1.0924310     2.0265800
  S       -2.4708060     0.1072130     1.6054120
  C       -1.9716920    -1.4676230     2.3289970
  H       -2.7387130    -1.1739520    -0.3957540
  H       -2.3378460     0.5441090    -0.6878810
  H       -1.0518200    -0.5964010    -0.1591040
  H       -2.6241360    -2.2629870     1.9739130
  H       -0.9342460    -1.6541830     2.0584350
  H       -2.0609100    -1.3635100     3.4069450
--
0 1
  C       -3.0494810     3.4639560     1.9093830
  O       -3.2538320     2.0748930    -0.3441810
  S       -2.7619760     3.4163290     0.1311470
  C       -0.9680410     3.2851940     0.2473140
  H       -2.6438830     4.3896920     2.3142650
  H       -4.1269870     3.4383900     2.0502500
  H       -2.5753560     2.5896250     2.3532130
  H       -0.5665450     4.1920250     0.6963440
  H       -0.7354480     2.4033260     0.8426720
  H       -0.5956710     3.1795830    -0.7685510
units angstrom
no_reorient
symmetry c1
}

set {
scf_type DF
mp2_type DF
e_convergence 7
reference rhf
}

energy('mp2/aug-cc-pv[tq]z', bsse_type='cp')
--------------------------------------------------------------------------

    Molecular point group: c1
  Charge       = 0
  Multiplicity = 1
  Basis Set: AUG-CC-PVTZ
    Blend: AUG-CC-PVTZ
  Basis Set: (AUG-CC-PVTZ AUX)
    Blend: AUG-CC-PVTZ-JKFIT
  @DF-RHF Final Energy:  -551.65298608508897
    Total Energy =                       -551.6529860850889690
  Basis Set: (AUG-CC-PVTZ AUX)
    Blend: AUG-CC-PVTZ-RI
	 Reference Energy          =    -551.6529860850889690 [Eh]
	 Singles Energy            =      -0.0000000000000000 [Eh]
	 Same-Spin Energy          =      -0.2104364308003491 [Eh]
	 Opposite-Spin Energy      =      -0.6823711316339898 [Eh]
	 Correlation Energy        =      -0.8928075624343388 [Eh]
	 Total Energy              =    -552.5457936475232827 [Eh]
	 SCS Total Energy          =    -552.5419769199831990 [Eh]
    Molecular point group: c1
  Basis Set: AUG-CC-PVQZ
    Blend: AUG-CC-PVQZ
  Basis Set: (AUG-CC-PVQZ AUX)
    Blend: AUG-CC-PVQZ-JKFIT
  @DF-RHF Final Energy:  -551.67069764256109
    Total Energy =                       -551.6706976425610947
  Basis Set: (AUG-CC-PVQZ AUX)
  @DF-RHF Final Energy:  -551.65320242970733
    Total Energy =                       -551.6532024297073349
  @DF-RHF Final Energy:  -551.67079215545925
    Total Energy =                       -551.6707921554593668
  @DF-RHF Final Energy:  -551.65335157982429
    Total Energy =                       -551.6533515798244025
  @DF-RHF Final Energy:  -551.67083387979426
    Total Energy =                       -551.6708338797943725
  @DF-RHF Final Energy:  -551.65303249122462
    Total Energy =                       -551.6530324912246215
  @DF-RHF Final Energy:  -551.67072777708393
    Total Energy =                       -551.6707277770840392
  Multiplicity = 1
  @DF-RHF Final Energy: -1103.29382596270125
    Total Energy =                      -1103.2938259627012485
	 Singles Energy            =      -0.0000000000000000 [Eh]
	 Same-Spin Energy          =      -0.4314798107325698 [Eh]
	 Opposite-Spin Energy      =      -1.3781817865525938 [Eh]
	 Correlation Energy        =      -1.8096615972851637 [Eh]
	 Total Energy              =   -1105.1034875599864336 [Eh]
	 SCS Total Energy          =   -1105.0914707101419481 [Eh]
    Molecular point group: c1

    Geometry (in Angstrom), charge = 0, multiplicity = 1:

       Center              X                  Y                   Z               Mass
    ------------   -----------------  -----------------  -----------------  -----------------
         C            0.213847232972    -1.853986458472    -1.051200681907    12.000000000000
         O            0.911203232972    -0.422826458472     1.072341318093    15.994914619570
         S           -0.149146767028    -1.408044458472     0.651173318093    31.972071174400
         C            0.349967232972    -2.982880458472     1.374758318093    12.000000000000
         H           -0.417053767028    -2.689209458472    -1.349992681907     1.007825032230
         H           -0.016186767028    -0.971148458472    -1.642119681907     1.007825032230
         H            1.269839232972    -2.111658458472    -1.113342681907     1.007825032230
         H           -0.302476767028    -3.778244458472     1.019674318093     1.007825032230
         H            1.387413232972    -3.169440458472     1.104196318093     1.007825032230
         H            0.260749232972    -2.878767458472     2.452706318093     1.007825032230
         C           -0.727821767028     1.948698541528     0.955144318093    12.000000000000
         O           -0.932172767028     0.559635541528    -1.298419681907    15.994914619570
         S           -0.440316767028     1.901071541528    -0.823091681907    31.972071174400
         C            1.353618232972     1.769936541528    -0.706924681907    12.000000000000
         H           -0.322223767028     2.874434541528     1.360026318093     1.007825032230
         H           -1.805327767028     1.923132541528     1.096011318093     1.007825032230
         H           -0.253696767028     1.074367541528     1.398974318093     1.007825032230
         H            1.755114232972     2.676767541528    -0.257894681907     1.007825032230
         H            1.586211232972     0.888068541528    -0.111566681907     1.007825032230
         H            1.725988232972     1.664325541528    -1.722789681907     1.007825032230

  Charge       = 0
  Multiplicity = 1
  Basis Set: AUG-CC-PVQZ
    Blend: AUG-CC-PVQZ
  Basis Set: (AUG-CC-PVQZ AUX)
    Blend: AUG-CC-PVQZ-JKFIT

    Orbital Energies [Eh]
    ---------------------

    Doubly Occupied:

       1A    -92.056125     2A    -92.050278     3A    -20.501414
       4A    -20.494623     5A    -11.253736     6A    -11.231994
       7A    -11.230939     8A    -11.230792     9A     -9.044509
      10A     -9.038588    11A     -6.726528    12A     -6.726242
      13A     -6.724992    14A     -6.720674    15A     -6.720495
      16A     -6.719225    17A     -1.340258    18A     -1.327810
      19A     -1.061519    20A     -1.045382    21A     -0.962332
      22A     -0.953427    23A     -0.814041    24A     -0.798860
      25A     -0.652244    26A     -0.635443    27A     -0.627049
      28A     -0.612064    29A     -0.604395    30A     -0.602139
      31A     -0.584748    32A     -0.574361    33A     -0.555344
      34A     -0.545037    35A     -0.527317    36A     -0.518406
      37A     -0.510101    38A     -0.492031    39A     -0.421273
      40A     -0.410579    41A     -0.368799    42A     -0.356829

  @DF-RHF Final Energy: -1103.32886493714818

   => Energetics <=

    Nuclear Repulsion Energy =            622.8453900926120923
    One-Electron Energy =               -2759.6026089983370184
    Two-Electron Energy =                1033.4283539685768574
    Total Energy =                      -1103.3288649371481824

  Dipole Moment: [D]
     X:     0.8830      Y:    -1.3316      Z:     1.0201     Total:     1.8957

  Basis Set: (AUG-CC-PVQZ AUX)
    Blend: AUG-CC-PVQZ-RI
	 Reference Energy          =   -1103.3288649371481824 [Eh]
	 Singles Energy            =      -0.0000000000000000 [Eh]
	 Same-Spin Energy          =      -0.4634459695884634 [Eh]
	 Opposite-Spin Energy      =      -1.5526996769680266 [Eh]
	 Correlation Energy        =      -2.0161456465564900 [Eh]
	 Total Energy              =   -1105.3450105837046067 [Eh]

	 ================> DF-SCS-MP2 Energies <==================
	-----------------------------------------------------------
	 SCS Same-Spin Scale       =       0.3333333333333333 [-]
	 SCS Opposite-Spin Scale   =       1.2000000000000000 [-]
	 SCS Same-Spin Energy      =      -0.1544819898628211 [Eh]
	 SCS Opposite-Spin Energy  =      -1.8632396123616317 [Eh]
	 SCS Correlation Energy    =      -2.0177216022244528 [Eh]
	 SCS Total Energy          =   -1105.3465865393725380 [Eh]
	-----------------------------------------------------------

*** Psi4 exiting successfully. Buy a developer a beer!
