                               Psi4 1.4a2.dev224

  ==> Input File <==

--------------------------------------------------------------------------
#Generated by lconvert.py for cbs job

memory 40 GB

molecule  {
0 1
  C       -2.1078120    -0.3387290    -0.0969620
  O       -1.4104560     1.0924310     2.0265800
  S       -2.4708060     0.1072130     1.6054120
  C       -1.9716920    -1.4676230     2.3289970
  H       -2.7387130    -1.1739520    -0.3957540
  H       -2.3378460     0.5441090    -0.6878810
  H       -1.0518200    -0.5964010    -0.1591040
  H       -2.6241360    -2.2629870     1.9739130
  H       -0.9342460    -1.6541830     2.0584350
  H       -2.0609100    -1.3635100     3.4069450
--
0 1
  C       -3.1249150     3.9688180     1.7391390
  O       -3.3292660     2.5797550    -0.5144250
  S       -2.8374100     3.9211910    -0.0390970
  C       -1.0434750     3.7900560     0.0770700
  H       -2.7193170     4.8945540     2.1440210
  H       -4.2024210     3.9432520     1.8800060
  H       -2.6507900     3.0944870     2.1829690
  H       -0.6419790     4.6968870     0.5261000
  H       -0.8108820     2.9081880     0.6724280
  H       -0.6711050     3.6844450    -0.9387950
units angstrom
no_reorient
symmetry c1
}

set {
scf_type DF
mp2_type DF
e_convergence 7
reference rhf
}

energy('mp2/aug-cc-pv[tq]z', bsse_type='cp')
--------------------------------------------------------------------------

    Molecular point group: c1
  Charge       = 0
  Multiplicity = 1
  Basis Set: AUG-CC-PVTZ
    Blend: AUG-CC-PVTZ
  Basis Set: (AUG-CC-PVTZ AUX)
    Blend: AUG-CC-PVTZ-JKFIT
  @DF-RHF Final Energy:  -551.65298608467685
    Total Energy =                       -551.6529860846768543
  Basis Set: (AUG-CC-PVTZ AUX)
    Blend: AUG-CC-PVTZ-RI
	 Reference Energy          =    -551.6529860846768543 [Eh]
	 Singles Energy            =      -0.0000000000000000 [Eh]
	 Same-Spin Energy          =      -0.2104364308021494 [Eh]
	 Opposite-Spin Energy      =      -0.6823711316397589 [Eh]
	 Correlation Energy        =      -0.8928075624419083 [Eh]
	 Total Energy              =    -552.5457936471187850 [Eh]
	 SCS Total Energy          =    -552.5419769195785875 [Eh]
    Molecular point group: c1
  Basis Set: AUG-CC-PVQZ
    Blend: AUG-CC-PVQZ
  Basis Set: (AUG-CC-PVQZ AUX)
    Blend: AUG-CC-PVQZ-JKFIT
  @DF-RHF Final Energy:  -551.67069764095663
    Total Energy =                       -551.6706976409566323
  Basis Set: (AUG-CC-PVQZ AUX)
  @DF-RHF Final Energy:  -551.65312396955972
    Total Energy =                       -551.6531239695597151
  @DF-RHF Final Energy:  -551.67076477258695
    Total Energy =                       -551.6707647725869492
  @DF-RHF Final Energy:  -551.65324736491380
    Total Energy =                       -551.6532473649137955
  @DF-RHF Final Energy:  -551.67080119913123
    Total Energy =                       -551.6708011991313469
  @DF-RHF Final Energy:  -551.65303249183592
    Total Energy =                       -551.6530324918359156
  @DF-RHF Final Energy:  -551.67072777646445
    Total Energy =                       -551.6707277764644459
  Multiplicity = 1
  @DF-RHF Final Energy: -1103.31598927384448
    Total Energy =                      -1103.3159892738444796
	 Singles Energy            =      -0.0000000000000000 [Eh]
	 Same-Spin Energy          =      -0.4253655961162303 [Eh]
	 Opposite-Spin Energy      =      -1.3709034660881396 [Eh]
	 Correlation Energy        =      -1.7962690622043698 [Eh]
	 Total Energy              =   -1105.1122583360488534 [Eh]
	 SCS Total Energy          =   -1105.1028619651890494 [Eh]
    Molecular point group: c1

    Geometry (in Angstrom), charge = 0, multiplicity = 1:

       Center              X                  Y                   Z               Mass
    ------------   -----------------  -----------------  -----------------  -----------------
         C            0.251564232972    -2.106417458472    -0.966078681907    12.000000000000
         O            0.948920232972    -0.675257458472     1.157463318093    15.994914619570
         S           -0.111429767028    -1.660475458472     0.736295318093    31.972071174400
         C            0.387684232972    -3.235311458472     1.459880318093    12.000000000000
         H           -0.379336767028    -2.941640458472    -1.264870681907     1.007825032230
         H            0.021530232972    -1.223579458472    -1.556997681907     1.007825032230
         H            1.307556232972    -2.364089458472    -1.028220681907     1.007825032230
         H           -0.264759767028    -4.030675458472     1.104796318093     1.007825032230
         H            1.425130232972    -3.421871458472     1.189318318093     1.007825032230
         H            0.298466232972    -3.131198458472     2.537828318093     1.007825032230
         C           -0.765538767028     2.201129541528     0.870022318093    12.000000000000
         O           -0.969889767028     0.812066541528    -1.383541681907    15.994914619570
         S           -0.478033767028     2.153502541528    -0.908213681907    31.972071174400
         C            1.315901232972     2.022367541528    -0.792046681907    12.000000000000
         H           -0.359940767028     3.126865541528     1.274904318093     1.007825032230
         H           -1.843044767028     2.175563541528     1.010889318093     1.007825032230
         H           -0.291413767028     1.326798541528     1.313852318093     1.007825032230
         H            1.717397232972     2.929198541528    -0.343016681907     1.007825032230
         H            1.548494232972     1.140499541528    -0.196688681907     1.007825032230
         H            1.688271232972     1.916756541528    -1.807911681907     1.007825032230

  Charge       = 0
  Multiplicity = 1
  Basis Set: AUG-CC-PVQZ
    Blend: AUG-CC-PVQZ
  Basis Set: (AUG-CC-PVQZ AUX)
    Blend: AUG-CC-PVQZ-JKFIT

    Orbital Energies [Eh]
    ---------------------

    Doubly Occupied:

       1A    -92.057615     2A    -92.052431     3A    -20.499505
       4A    -20.493511     5A    -11.255096     6A    -11.242488
       7A    -11.241073     8A    -11.241024     9A     -9.045565
      10A     -9.040364    11A     -6.727648    12A     -6.727380
      13A     -6.726089    14A     -6.722520    15A     -6.722270
      16A     -6.720973    17A     -1.329468    18A     -1.322956
      19A     -1.059170    20A     -1.051236    21A     -0.966068
      22A     -0.958664    23A     -0.810071    24A     -0.801772
      25A     -0.641332    26A     -0.629625    27A     -0.622848
      28A     -0.614180    29A     -0.610817    30A     -0.606516
      31A     -0.577582    32A     -0.571922    33A     -0.555578
      34A     -0.554131    35A     -0.530839    36A     -0.527341
      37A     -0.513199    38A     -0.499596    39A     -0.419023
      40A     -0.411036    41A     -0.366867    42A     -0.359337

  @DF-RHF Final Energy: -1103.35110859112820

   => Energetics <=

    Nuclear Repulsion Energy =            592.1040176982925232
    One-Electron Energy =               -2698.0567765394707749
    Two-Electron Energy =                1002.6016502500501701
    Total Energy =                      -1103.3511085911281953

  Dipole Moment: [D]
     X:     0.9239      Y:    -1.2938      Z:     0.9871     Total:     1.8713

  Basis Set: (AUG-CC-PVQZ AUX)
    Blend: AUG-CC-PVQZ-RI
	 Reference Energy          =   -1103.3511085911281953 [Eh]
	 Singles Energy            =      -0.0000000000000000 [Eh]
	 Same-Spin Energy          =      -0.4574842627653974 [Eh]
	 Opposite-Spin Energy      =      -1.5467595592765564 [Eh]
	 Correlation Energy        =      -2.0042438220419538 [Eh]
	 Total Energy              =   -1105.3553524131700669 [Eh]

	 ================> DF-SCS-MP2 Energies <==================
	-----------------------------------------------------------
	 SCS Same-Spin Scale       =       0.3333333333333333 [-]
	 SCS Opposite-Spin Scale   =       1.2000000000000000 [-]
	 SCS Same-Spin Energy      =      -0.1524947542551325 [Eh]
	 SCS Opposite-Spin Energy  =      -1.8561114711318676 [Eh]
	 SCS Correlation Energy    =      -2.0086062253870001 [Eh]
	 SCS Total Energy          =   -1105.3597148165151793 [Eh]
	-----------------------------------------------------------

*** Psi4 exiting successfully. Buy a developer a beer!
