                               Psi4 1.4a2.dev224

  ==> Input File <==

--------------------------------------------------------------------------
#Generated by lconvert.py for cbs job

memory 20 GB

molecule  {
-2 1
  P      -0.321200   -0.025860    0.314430
  O       1.132510    0.129150    0.830850
  O      -0.696140    1.645480    0.021780
  O      -1.299460   -0.466420    1.414610
  O      -0.493910   -0.705980   -1.035360
  H       0.114110    2.006680    0.392980
--
0 1
  O       1.168500   -0.563710    4.431450
  H       1.664080   -0.320080    3.616820
  H       0.321450   -0.624090    3.930760
units angstrom
no_reorient
symmetry c1
}

set {
scf_type DF
mp2_type DF
e_convergence 7
reference rhf
}

energy('mp2/aug-cc-pv[tq]z', bsse_type='cp')
--------------------------------------------------------------------------

    Molecular point group: c1
  Charge       = 0
  Multiplicity = 1
  Basis Set: AUG-CC-PVTZ
    Blend: AUG-CC-PVTZ
  Basis Set: (AUG-CC-PVTZ AUX)
    Blend: AUG-CC-PVTZ-JKFIT
  @DF-RHF Final Energy:   -76.05255191678684
    Total Energy =                        -76.0525519167868396
  Basis Set: (AUG-CC-PVTZ AUX)
    Blend: AUG-CC-PVTZ-RI
	 Reference Energy          =     -76.0525519167868396 [Eh]
	 Singles Energy            =      -0.0000000000000000 [Eh]
	 Same-Spin Energy          =      -0.0692899154458580 [Eh]
	 Opposite-Spin Energy      =      -0.2176700801939070 [Eh]
	 Correlation Energy        =      -0.2869599956397650 [Eh]
	 Total Energy              =     -76.3395119124266017 [Eh]
	 SCS Total Energy          =     -76.3368526515014878 [Eh]
    Molecular point group: c1
  Basis Set: AUG-CC-PVQZ
    Blend: AUG-CC-PVQZ
  Basis Set: (AUG-CC-PVQZ AUX)
    Blend: AUG-CC-PVQZ-JKFIT
  @DF-RHF Final Energy:   -76.05782261532546
    Total Energy =                        -76.0578226153254491
  Basis Set: (AUG-CC-PVQZ AUX)
  @DF-RHF Final Energy:   -76.05257453584157
    Total Energy =                        -76.0525745358415861
  @DF-RHF Final Energy:   -76.05783408905231
    Total Energy =                        -76.0578340890523066
  @DF-RHF Final Energy:  -640.92157567138293
    Total Energy =                       -640.9215756713829251
  @DF-RHF Final Energy:  -640.95321333196091
    Total Energy =                       -640.9532133319609102
  @DF-RHF Final Energy:  -640.92148817638565
    Total Energy =                       -640.9214881763856511
  @DF-RHF Final Energy:  -640.95317796722645
    Total Energy =                       -640.9531779672264520
  Multiplicity = 1
  @DF-RHF Final Energy:  -717.00688046530752
    Total Energy =                       -717.0068804653075176
	 Singles Energy            =      -0.0000000000000000 [Eh]
	 Same-Spin Energy          =      -0.4103116920300281 [Eh]
	 Opposite-Spin Energy      =      -1.1538867134372928 [Eh]
	 Correlation Energy        =      -1.5641984054673208 [Eh]
	 Total Energy              =    -718.5710788707748407 [Eh]
	 SCS Total Energy          =    -718.5283150854422729 [Eh]
    Molecular point group: c1

    Geometry (in Angstrom), charge = -2, multiplicity = 1:

       Center              X                  Y                   Z               Mass
    ------------   -----------------  -----------------  -----------------  -----------------
         P           -0.226020814984    -0.033633560842    -0.636035336579    30.973761998420
         O            1.227689185016     0.121376439158    -0.119615336579    15.994914619570
         O           -0.600960814984     1.637706439158    -0.928685336579    15.994914619570
         O           -1.204280814984    -0.474193560842     0.464144663421    15.994914619570
         O           -0.398730814984    -0.713753560842    -1.985825336579    15.994914619570
         H            0.209289185016     1.998906439158    -0.557485336579     1.007825032230
         O            1.263679185016    -0.571483560842     3.480984663421    15.994914619570
         H            1.759259185016    -0.327853560842     2.666354663421     1.007825032230
         H            0.416629185016    -0.631863560842     2.980294663421     1.007825032230

  Charge       = -2
  Multiplicity = 1
  Basis Set: AUG-CC-PVQZ
    Blend: AUG-CC-PVQZ
  Basis Set: (AUG-CC-PVQZ AUX)
    Blend: AUG-CC-PVQZ-JKFIT

    Orbital Energies [Eh]
    ---------------------

    Doubly Occupied:

       1A    -79.659994     2A    -20.313128     3A    -20.199329
       4A    -20.115471     5A    -20.109242     6A    -20.108437
       7A     -7.174772     8A     -5.074731     9A     -5.072437
      10A     -5.072123    11A     -1.088785    12A     -0.999267
      13A     -0.915396    14A     -0.859033    15A     -0.853304
      16A     -0.419173    17A     -0.356092    18A     -0.351255
      19A     -0.289446    20A     -0.255935    21A     -0.228487
      22A     -0.208219    23A     -0.182047    24A     -0.146210
      25A     -0.095960    26A     -0.091150    27A     -0.088785
      28A     -0.055364    29A     -0.045155    30A     -0.022824

  @DF-RHF Final Energy:  -717.04375806022961

   => Energetics <=

    Nuclear Repulsion Energy =            320.0255466363519190
    One-Electron Energy =               -1653.2355089845584644
    Two-Electron Energy =                 616.1662042879769388
    Total Energy =                       -717.0437580602296066

  Dipole Moment: [D]
     X:     1.6733      Y:     2.0894      Z:     2.7283     Total:     3.8222

  Basis Set: (AUG-CC-PVQZ AUX)
    Blend: AUG-CC-PVQZ-RI
	 Reference Energy          =    -717.0437580602296066 [Eh]
	 Singles Energy            =      -0.0000000000000000 [Eh]
	 Same-Spin Energy          =      -0.4351300378822641 [Eh]
	 Opposite-Spin Energy      =      -1.3100645601074916 [Eh]
	 Correlation Energy        =      -1.7451945979897556 [Eh]
	 Total Energy              =    -718.7889526582193866 [Eh]

	 ================> DF-SCS-MP2 Energies <==================
	-----------------------------------------------------------
	 SCS Same-Spin Scale       =       0.3333333333333333 [-]
	 SCS Opposite-Spin Scale   =       1.2000000000000000 [-]
	 SCS Same-Spin Energy      =      -0.1450433459607547 [Eh]
	 SCS Opposite-Spin Energy  =      -1.5720774721289899 [Eh]
	 SCS Correlation Energy    =      -1.7171208180897446 [Eh]
	 SCS Total Energy          =    -718.7608788783193177 [Eh]
	-----------------------------------------------------------

*** Psi4 exiting successfully. Buy a developer a beer!
