                               Psi4 1.4a2.dev224

  ==> Input File <==

--------------------------------------------------------------------------
#Generated by lconvert.py for cbs job

memory 40 GB

molecule  {
-2 1
  P       -0.3212000    -0.0258600     0.3144250
  O        1.1325150     0.1291540     0.8308480
  O       -0.6961380     1.6454840     0.0217810
  O       -1.2994630    -0.4664240     1.4146150
  O       -0.4939090    -0.7059760    -1.0353590
  H        0.1141110     2.0066780     0.3929770
--
0 1
  O        0.6657200    -0.5148020     3.6509850
  H        1.1613060    -0.2711740     2.8363580
  H       -0.1813210    -0.5751880     3.1503030
units angstrom
no_reorient
symmetry c1
}

set {
scf_type DF
mp2_type DF
e_convergence 7
reference rhf
}

energy('mp2/aug-cc-pv[tq]z', bsse_type='cp')
--------------------------------------------------------------------------

    Molecular point group: c1
  Charge       = 0
  Multiplicity = 1
  Basis Set: AUG-CC-PVTZ
    Blend: AUG-CC-PVTZ
  Basis Set: (AUG-CC-PVTZ AUX)
    Blend: AUG-CC-PVTZ-JKFIT
  @DF-RHF Final Energy:   -76.05255317366229
    Total Energy =                        -76.0525531736623037
  Basis Set: (AUG-CC-PVTZ AUX)
    Blend: AUG-CC-PVTZ-RI
	 Reference Energy          =     -76.0525531736622895 [Eh]
	 Singles Energy            =      -0.0000000000000000 [Eh]
	 Same-Spin Energy          =      -0.0692897795299444 [Eh]
	 Opposite-Spin Energy      =      -0.2176696965687992 [Eh]
	 Correlation Energy        =      -0.2869594760987436 [Eh]
	 Total Energy              =     -76.3395126497610335 [Eh]
	 SCS Total Energy          =     -76.3368534027215020 [Eh]
    Molecular point group: c1
  Basis Set: AUG-CC-PVQZ
    Blend: AUG-CC-PVQZ
  Basis Set: (AUG-CC-PVQZ AUX)
    Blend: AUG-CC-PVQZ-JKFIT
  @DF-RHF Final Energy:   -76.05782389858548
    Total Energy =                        -76.0578238985854824
  Basis Set: (AUG-CC-PVQZ AUX)
  @DF-RHF Final Energy:   -76.05261812998739
    Total Energy =                        -76.0526181299873940
  @DF-RHF Final Energy:   -76.05785477466809
    Total Energy =                        -76.0578547746680869
  @DF-RHF Final Energy:  -640.92171250574722
    Total Energy =                       -640.9217125057472231
  @DF-RHF Final Energy:  -640.95325657000808
    Total Energy =                       -640.9532565700080795
  @DF-RHF Final Energy:  -640.92148755740834
    Total Energy =                       -640.9214875574083408
  @DF-RHF Final Energy:  -640.95317724194308
    Total Energy =                       -640.9531772419430808
  Multiplicity = 1
  @DF-RHF Final Energy:  -717.02304151098895
    Total Energy =                       -717.0230415109889464
	 Singles Energy            =      -0.0000000000000000 [Eh]
	 Same-Spin Energy          =      -0.4127014306798165 [Eh]
	 Opposite-Spin Energy      =      -1.1566217727593169 [Eh]
	 Correlation Energy        =      -1.5693232034391333 [Eh]
	 Total Energy              =    -718.5923647144280721 [Eh]
	 SCS Total Energy          =    -718.5485547818600480 [Eh]
    Molecular point group: c1

    Geometry (in Angstrom), charge = -2, multiplicity = 1:

       Center              X                  Y                   Z               Mass
    ------------   -----------------  -----------------  -----------------  -----------------
         P           -0.146569101470    -0.041363354527    -0.512705608685    30.973761998420
         O            1.307145898530     0.113650645473     0.003717391315    15.994914619570
         O           -0.521507101470     1.629980645473    -0.805349608685    15.994914619570
         O           -1.124832101470    -0.481927354527     0.587484391315    15.994914619570
         O           -0.319278101470    -0.721479354527    -1.862489608685    15.994914619570
         H            0.288741898530     1.991174645473    -0.434153608685     1.007825032230
         O            0.840350898530    -0.530305354527     2.823854391315    15.994914619570
         H            1.335936898530    -0.286677354527     2.009227391315     1.007825032230
         H           -0.006690101470    -0.590691354527     2.323172391315     1.007825032230

  Charge       = -2
  Multiplicity = 1
  Basis Set: AUG-CC-PVQZ
    Blend: AUG-CC-PVQZ
  Basis Set: (AUG-CC-PVQZ AUX)
    Blend: AUG-CC-PVQZ-JKFIT

    Orbital Energies [Eh]
    ---------------------

    Doubly Occupied:

       1A    -79.670812     2A    -20.235208     3A    -20.206479
       4A    -20.126430     5A    -20.121028     6A    -20.117099
       7A     -7.185649     8A     -5.085552     9A     -5.083368
      10A     -5.083026    11A     -1.017405    12A     -1.007015
      13A     -0.926204    14A     -0.870496    15A     -0.867060
      16A     -0.365192    17A     -0.350607    18A     -0.299926
      19A     -0.285918    20A     -0.238632    21A     -0.217841
      22A     -0.192950    23A     -0.183706    24A     -0.155048
      25A     -0.106556    26A     -0.102195    27A     -0.098994
      28A     -0.067299    29A     -0.056520    30A     -0.036495

  @DF-RHF Final Energy:  -717.05992471615832

   => Energetics <=

    Nuclear Repulsion Energy =            335.0095372971720167
    One-Electron Energy =               -1683.4175046598998051
    Two-Electron Energy =                 631.3480426465694109
    Total Energy =                       -717.0599247161583207

  Dipole Moment: [D]
     X:     0.7684      Y:     2.3057      Z:     0.8221     Total:     2.5657

  Basis Set: (AUG-CC-PVQZ AUX)
    Blend: AUG-CC-PVQZ-RI
	 Reference Energy          =    -717.0599247161583207 [Eh]
	 Singles Energy            =      -0.0000000000000000 [Eh]
	 Same-Spin Energy          =      -0.4374207261949588 [Eh]
	 Opposite-Spin Energy      =      -1.3119039424059835 [Eh]
	 Correlation Energy        =      -1.7493246686009423 [Eh]
	 Total Energy              =    -718.8092493847592550 [Eh]

	 ================> DF-SCS-MP2 Energies <==================
	-----------------------------------------------------------
	 SCS Same-Spin Scale       =       0.3333333333333333 [-]
	 SCS Opposite-Spin Scale   =       1.2000000000000000 [-]
	 SCS Same-Spin Energy      =      -0.1458069087316529 [Eh]
	 SCS Opposite-Spin Energy  =      -1.5742847308871801 [Eh]
	 SCS Correlation Energy    =      -1.7200916396188330 [Eh]
	 SCS Total Energy          =    -718.7800163557772066 [Eh]
	-----------------------------------------------------------

*** Psi4 exiting successfully. Buy a developer a beer!
