                               Psi4 1.4a2.dev224

  ==> Input File <==

--------------------------------------------------------------------------
#Generated by lconvert.py for cbs job

memory 40 GB

molecule  {
-2 1
  P       -0.3212000    -0.0258600     0.3144250
  O        1.1325150     0.1291540     0.8308480
  O       -0.6961380     1.6454840     0.0217810
  O       -1.2994630    -0.4664240     1.4146150
  O       -0.4939090    -0.7059760    -1.0353590
  H        0.1141110     2.0066780     0.3929770
--
0 1
  O        0.2514690    -0.4745070     3.0079440
  H        0.7470550    -0.2308790     2.1933170
  H       -0.5955720    -0.5348930     2.5072620
units angstrom
no_reorient
symmetry c1
}

set {
scf_type DF
mp2_type DF
e_convergence 7
reference rhf
}

energy('mp2/aug-cc-pv[tq]z', bsse_type='cp')
--------------------------------------------------------------------------

    Molecular point group: c1
  Charge       = 0
  Multiplicity = 1
  Basis Set: AUG-CC-PVTZ
    Blend: AUG-CC-PVTZ
  Basis Set: (AUG-CC-PVTZ AUX)
    Blend: AUG-CC-PVTZ-JKFIT
  @DF-RHF Final Energy:   -76.05255317367413
    Total Energy =                        -76.0525531736741414
  Basis Set: (AUG-CC-PVTZ AUX)
    Blend: AUG-CC-PVTZ-RI
	 Reference Energy          =     -76.0525531736741272 [Eh]
	 Singles Energy            =      -0.0000000000000000 [Eh]
	 Same-Spin Energy          =      -0.0692897795299553 [Eh]
	 Opposite-Spin Energy      =      -0.2176696965688560 [Eh]
	 Correlation Energy        =      -0.2869594760988113 [Eh]
	 Total Energy              =     -76.3395126497729422 [Eh]
	 SCS Total Energy          =     -76.3368534027334107 [Eh]
    Molecular point group: c1
  Basis Set: AUG-CC-PVQZ
    Blend: AUG-CC-PVQZ
  Basis Set: (AUG-CC-PVQZ AUX)
    Blend: AUG-CC-PVQZ-JKFIT
  @DF-RHF Final Energy:   -76.05782389859758
    Total Energy =                        -76.0578238985975759
  Basis Set: (AUG-CC-PVQZ AUX)
  @DF-RHF Final Energy:   -76.05271930496042
    Total Energy =                        -76.0527193049604193
  @DF-RHF Final Energy:   -76.05787971903987
    Total Energy =                        -76.0578797190398745
  @DF-RHF Final Energy:  -640.92198457698339
    Total Energy =                       -640.9219845769833910
  @DF-RHF Final Energy:  -640.95333102869267
    Total Energy =                       -640.9533310286926735
  @DF-RHF Final Energy:  -640.92148755735570
    Total Energy =                       -640.9214875573557038
  @DF-RHF Final Energy:  -640.95317724199595
    Total Energy =                       -640.9531772419959452
  @DF-RHF Final Energy:  -716.97802129485467
    Total Energy =                       -716.9780212948546705
  @DF-RHF Final Energy:  -717.01473265037271
    Total Energy =                       -717.0147326503727072
*** Psi4 exiting successfully. Buy a developer a beer!
                               Psi4 1.4a2.dev224
  @DF-RHF Final Energy:   -76.05255317367065
    Total Energy =                        -76.0525531736706455
  @DF-RHF Final Energy:   -76.05782389858446
    Total Energy =                        -76.0578238985844592
  @DF-RHF Final Energy:   -76.05268385369340
    Total Energy =                        -76.0526838536933951
  @DF-RHF Final Energy:   -76.05787248618930
    Total Energy =                        -76.0578724861892965
  @DF-RHF Final Energy:  -640.92190277742361
    Total Energy =                       -640.9219027774236110
  @DF-RHF Final Energy:  -640.95330497140594
    Total Energy =                       -640.9533049714059416
  @DF-RHF Final Energy:  -640.92148755692256
    Total Energy =                       -640.9214875569225569
  @DF-RHF Final Energy:  -640.95317724246411
    Total Energy =                       -640.9531772424641076
  @DF-RHF Final Energy:  -717.00709862779138
    Total Energy =                       -717.0070986277913789
  @DF-RHF Final Energy:  -717.04384190874043
    Total Energy =                       -717.0438419087404327
*** Psi4 exiting successfully. Buy a developer a beer!
                               Psi4 1.4a2.dev224
                               Psi4 1.4a2.dev224
                               Psi4 1.4a2.dev224
                               Psi4 1.4a2.dev224
                               Psi4 1.4a2.dev224
                               Psi4 1.4a2.dev224
                               Psi4 1.4a2.dev224
  @DF-RHF Final Energy:   -76.05255191678684
    Total Energy =                        -76.0525519167868396
  @DF-RHF Final Energy:   -76.05782261532546
    Total Energy =                        -76.0578226153254491
  @DF-RHF Final Energy:   -76.05257453584157
    Total Energy =                        -76.0525745358415861
  @DF-RHF Final Energy:   -76.05783408905231
    Total Energy =                        -76.0578340890523066
  @DF-RHF Final Energy:  -640.92157567138293
    Total Energy =                       -640.9215756713829251
  @DF-RHF Final Energy:  -640.95321333196091
    Total Energy =                       -640.9532133319609102
  @DF-RHF Final Energy:  -640.92148817638565
    Total Energy =                       -640.9214881763856511
  @DF-RHF Final Energy:  -640.95317796722645
    Total Energy =                       -640.9531779672264520
  @DF-RHF Final Energy:  -717.00688046530752
    Total Energy =                       -717.0068804653075176
  @DF-RHF Final Energy:  -717.04375806022961
    Total Energy =                       -717.0437580602296066
*** Psi4 exiting successfully. Buy a developer a beer!
                               Psi4 1.4a2.dev224
  @DF-RHF Final Energy:   -76.05255312844373
    Total Energy =                        -76.0525531284437335
  @DF-RHF Final Energy:   -76.05782384510792
    Total Energy =                        -76.0578238451079187
  @DF-RHF Final Energy:   -76.05256524281953
    Total Energy =                        -76.0525652428195258
  @DF-RHF Final Energy:   -76.05783037603653
    Total Energy =                        -76.0578303760365344
  @DF-RHF Final Energy:  -640.92153777857061
    Total Energy =                       -640.9215377785706096
  @DF-RHF Final Energy:  -640.95319715156370
    Total Energy =                       -640.9531971515636997
  @DF-RHF Final Energy:  -640.92148817631335
    Total Energy =                       -640.9214881763133462
  @DF-RHF Final Energy:  -640.95317796779295
    Total Energy =                       -640.9531779677929535
  Multiplicity = 1
  @DF-RHF Final Energy:  -716.99917875233882
    Total Energy =                       -716.9991787523388211
	 Singles Energy            =      -0.0000000000000000 [Eh]
	 Same-Spin Energy          =      -0.4098889205991805 [Eh]
	 Opposite-Spin Energy      =      -1.1533189423277106 [Eh]
	 Correlation Energy        =      -1.5632078629268911 [Eh]
	 Total Energy              =    -718.5623866152657229 [Eh]
	 SCS Total Energy          =    -718.5197911233318564 [Eh]
    Molecular point group: c1

    Geometry (in Angstrom), charge = -2, multiplicity = 1:

       Center              X                  Y                   Z               Mass
    ------------   -----------------  -----------------  -----------------  -----------------
         P           -0.273691261648    -0.028996975311    -0.710034487672    30.973761998420
         O            1.180018738352     0.126013024689    -0.193614487672    15.994914619570
         O           -0.648631261648     1.642343024689    -1.002684487672    15.994914619570
         O           -1.251951261648    -0.469556975311     0.390145512328    15.994914619570
         O           -0.446401261648    -0.709116975311    -2.059824487672    15.994914619570
         H            0.161618738352     2.003543024689    -0.631484487672     1.007825032230
         O            1.517668738352    -0.596186975311     3.875255512328    15.994914619570
         H            2.013258738352    -0.352556975311     3.060625512328     1.007825032230
         H            0.670628738352    -0.656576975311     3.374575512328     1.007825032230

  Charge       = -2
  Multiplicity = 1
  Basis Set: AUG-CC-PVQZ
    Blend: AUG-CC-PVQZ
  Basis Set: (AUG-CC-PVQZ AUX)
    Blend: AUG-CC-PVQZ-JKFIT

    Orbital Energies [Eh]
    ---------------------

    Doubly Occupied:

       1A    -79.656027     2A    -20.344232     3A    -20.196546
       4A    -20.110904     5A    -20.106274     6A    -20.103651
       7A     -7.170805     8A     -5.070781     9A     -5.068450
      10A     -5.068152    11A     -1.119356    12A     -0.996109
      13A     -0.911576    14A     -0.855134    15A     -0.848546
      16A     -0.449364    17A     -0.381079    18A     -0.352068
      19A     -0.286120    20A     -0.285783    21A     -0.224897
      22A     -0.204532    23A     -0.177758    24A     -0.142811
      25A     -0.091307    26A     -0.087211    27A     -0.084744
      28A     -0.051161    29A     -0.041011    30A     -0.018272

  @DF-RHF Final Energy:  -717.03608540402331

   => Energetics <=

    Nuclear Repulsion Energy =            313.5340724773266174
    One-Electron Energy =               -1640.1309962446471218
    Two-Electron Energy =                 609.5608383632971936
    Total Energy =                       -717.0360854040233107

  Dipole Moment: [D]
     X:     2.1964      Y:     1.9985      Z:     3.7003     Total:     4.7446

  Basis Set: (AUG-CC-PVQZ AUX)
    Blend: AUG-CC-PVQZ-RI
	 Reference Energy          =    -717.0360854040233107 [Eh]
	 Singles Energy            =      -0.0000000000000000 [Eh]
	 Same-Spin Energy          =      -0.4347420055161894 [Eh]
	 Opposite-Spin Energy      =      -1.3097910070190157 [Eh]
	 Correlation Energy        =      -1.7445330125352050 [Eh]
	 Total Energy              =    -718.7806184165584682 [Eh]

	 ================> DF-SCS-MP2 Energies <==================
	-----------------------------------------------------------
	 SCS Same-Spin Scale       =       0.3333333333333333 [-]
	 SCS Opposite-Spin Scale   =       1.2000000000000000 [-]
	 SCS Same-Spin Energy      =      -0.1449140018387298 [Eh]
	 SCS Opposite-Spin Energy  =      -1.5717492084228188 [Eh]
	 SCS Correlation Energy    =      -1.7166632102615487 [Eh]
	 SCS Total Energy          =    -718.7527486142848829 [Eh]
	-----------------------------------------------------------

*** Psi4 exiting successfully. Buy a developer a beer!
