                               Psi4 1.4a2.dev224

  ==> Input File <==

--------------------------------------------------------------------------
#Generated by lconvert.py for cbs job

memory 40 GB

molecule  {
-2 1
  P       -0.3212000    -0.0258600     0.3144250
  O        1.1325150     0.1291540     0.8308480
  O       -0.6961380     1.6454840     0.0217810
  O       -1.2994630    -0.4664240     1.4146150
  O       -0.4939090    -0.7059760    -1.0353590
  H        0.1141110     2.0066780     0.3929770
--
0 1
  O        0.2514690    -0.4745070     3.0079440
  H        0.7470550    -0.2308790     2.1933170
  H       -0.5955720    -0.5348930     2.5072620
units angstrom
no_reorient
symmetry c1
}

set {
scf_type DF
mp2_type DF
e_convergence 7
reference rhf
}

energy('mp2/aug-cc-pv[tq]z', bsse_type='cp')
--------------------------------------------------------------------------

    Molecular point group: c1
  Charge       = 0
  Multiplicity = 1
  Basis Set: AUG-CC-PVTZ
    Blend: AUG-CC-PVTZ
  Basis Set: (AUG-CC-PVTZ AUX)
    Blend: AUG-CC-PVTZ-JKFIT
  @DF-RHF Final Energy:   -76.05255317367413
    Total Energy =                        -76.0525531736741414
  Basis Set: (AUG-CC-PVTZ AUX)
    Blend: AUG-CC-PVTZ-RI
	 Reference Energy          =     -76.0525531736741272 [Eh]
	 Singles Energy            =      -0.0000000000000000 [Eh]
	 Same-Spin Energy          =      -0.0692897795299553 [Eh]
	 Opposite-Spin Energy      =      -0.2176696965688560 [Eh]
	 Correlation Energy        =      -0.2869594760988113 [Eh]
	 Total Energy              =     -76.3395126497729422 [Eh]
	 SCS Total Energy          =     -76.3368534027334107 [Eh]
    Molecular point group: c1
  Basis Set: AUG-CC-PVQZ
    Blend: AUG-CC-PVQZ
  Basis Set: (AUG-CC-PVQZ AUX)
    Blend: AUG-CC-PVQZ-JKFIT
  @DF-RHF Final Energy:   -76.05782389859758
    Total Energy =                        -76.0578238985975759
  Basis Set: (AUG-CC-PVQZ AUX)
  @DF-RHF Final Energy:   -76.05271930496042
    Total Energy =                        -76.0527193049604193
  @DF-RHF Final Energy:   -76.05787971903987
    Total Energy =                        -76.0578797190398745
  @DF-RHF Final Energy:  -640.92198457698339
    Total Energy =                       -640.9219845769833910
  @DF-RHF Final Energy:  -640.95333102869267
    Total Energy =                       -640.9533310286926735
  @DF-RHF Final Energy:  -640.92148755735570
    Total Energy =                       -640.9214875573557038
  @DF-RHF Final Energy:  -640.95317724199595
    Total Energy =                       -640.9531772419959452
  Multiplicity = 1
  @DF-RHF Final Energy:  -716.97802129485467
    Total Energy =                       -716.9780212948546705
	 Singles Energy            =      -0.0000000000000000 [Eh]
	 Same-Spin Energy          =      -0.4194909073728885 [Eh]
	 Opposite-Spin Energy      =      -1.1632645710960521 [Eh]
	 Correlation Energy        =      -1.5827554784689406 [Eh]
	 Total Energy              =    -718.5607767733235960 [Eh]
	 SCS Total Energy          =    -718.5137690826276184 [Eh]
    Molecular point group: c1

    Geometry (in Angstrom), charge = -2, multiplicity = 1:

       Center              X                  Y                   Z               Mass
    ------------   -----------------  -----------------  -----------------  -----------------
         P           -0.081106471559    -0.047731031786    -0.411088099009    30.973761998420
         O            1.372608528441     0.107282968214     0.105334900991    15.994914619570
         O           -0.456044471559     1.623612968214    -0.703732099009    15.994914619570
         O           -1.059369471559    -0.488295031786     0.689101900991    15.994914619570
         O           -0.253815471559    -0.727847031786    -1.760872099009    15.994914619570
         H            0.354204528441     1.984806968214    -0.332536099009     1.007825032230
         O            0.491562528441    -0.496378031786     2.282430900991    15.994914619570
         H            0.987148528441    -0.252750031786     1.467803900991     1.007825032230
         H           -0.355478471559    -0.556764031786     1.781748900991     1.007825032230

  Charge       = -2
  Multiplicity = 1
  Basis Set: AUG-CC-PVQZ
    Blend: AUG-CC-PVQZ
  Basis Set: (AUG-CC-PVQZ AUX)
    Blend: AUG-CC-PVQZ-JKFIT

    Orbital Energies [Eh]
    ---------------------

    Doubly Occupied:

       1A    -79.688527     2A    -20.217401     3A    -20.140309
       4A    -20.134281     5A    -20.129372     6A    -20.113157
       7A     -7.204037     8A     -5.103762     9A     -5.101775
      10A     -5.101493    11A     -1.028905    12A     -0.973756
      13A     -0.914964    14A     -0.902942    15A     -0.873747
      16A     -0.386095    17A     -0.323309    18A     -0.312428
      19A     -0.266563    20A     -0.252960    21A     -0.213490
      22A     -0.185105    23A     -0.164558    24A     -0.128573
      25A     -0.120154    26A     -0.088347    27A     -0.084341
      28A     -0.075725    29A     -0.061774    30A     -0.045492

  @DF-RHF Final Energy:  -717.01473265037271

   => Energetics <=

    Nuclear Repulsion Energy =            353.8444758314846581
    One-Electron Energy =               -1721.0437323193089014
    Two-Electron Energy =                 650.1845238374514793
    Total Energy =                       -717.0147326503727072

  Dipole Moment: [D]
     X:    -0.0788      Y:     2.6198      Z:    -1.3772     Total:     2.9608

  Basis Set: (AUG-CC-PVQZ AUX)
    Blend: AUG-CC-PVQZ-RI
	 Reference Energy          =    -717.0147326503727072 [Eh]
	 Singles Energy            =      -0.0000000000000000 [Eh]
	 Same-Spin Energy          =      -0.4443214223860087 [Eh]
	 Opposite-Spin Energy      =      -1.3176895964941018 [Eh]
	 Correlation Energy        =      -1.7620110188801106 [Eh]
	 Total Energy              =    -718.7767436692528236 [Eh]

	 ================> DF-SCS-MP2 Energies <==================
	-----------------------------------------------------------
	 SCS Same-Spin Scale       =       0.3333333333333333 [-]
	 SCS Opposite-Spin Scale   =       1.2000000000000000 [-]
	 SCS Same-Spin Energy      =      -0.1481071407953362 [Eh]
	 SCS Opposite-Spin Energy  =      -1.5812275157929221 [Eh]
	 SCS Correlation Energy    =      -1.7293346565882584 [Eh]
	 SCS Total Energy          =    -718.7440673069609147 [Eh]
	-----------------------------------------------------------

*** Psi4 exiting successfully. Buy a developer a beer!
