                               Psi4 1.4a2.dev224

  ==> Input File <==

--------------------------------------------------------------------------
#Generated by lconvert.py for cbs job

memory 40 GB

molecule  {
-2 1
  P       -0.3212000    -0.0258600     0.3144250
  O        1.1325150     0.1291540     0.8308480
  O       -0.6961380     1.6454840     0.0217810
  O       -1.2994630    -0.4664240     1.4146150
  O       -0.4939090    -0.7059760    -1.0353590
  H        0.1141110     2.0066780     0.3929770
--
0 1
  O        0.6053390    -0.5089290     3.5572560
  H        1.1009250    -0.2653010     2.7426290
  H       -0.2417020    -0.5693150     3.0565740
units angstrom
no_reorient
symmetry c1
}

set {
scf_type DF
mp2_type DF
e_convergence 7
reference rhf
}

energy('mp2/aug-cc-pv[tq]z', bsse_type='cp')
--------------------------------------------------------------------------

    Molecular point group: c1
  Charge       = 0
  Multiplicity = 1
  Basis Set: AUG-CC-PVTZ
    Blend: AUG-CC-PVTZ
  Basis Set: (AUG-CC-PVTZ AUX)
    Blend: AUG-CC-PVTZ-JKFIT
  @DF-RHF Final Energy:   -76.05255317367195
    Total Energy =                        -76.0525531736719671
  Basis Set: (AUG-CC-PVTZ AUX)
    Blend: AUG-CC-PVTZ-RI
	 Reference Energy          =     -76.0525531736719529 [Eh]
	 Singles Energy            =      -0.0000000000000000 [Eh]
	 Same-Spin Energy          =      -0.0692897795299755 [Eh]
	 Opposite-Spin Energy      =      -0.2176696965689319 [Eh]
	 Correlation Energy        =      -0.2869594760989074 [Eh]
	 Total Energy              =     -76.3395126497708532 [Eh]
	 SCS Total Energy          =     -76.3368534027313359 [Eh]
    Molecular point group: c1
  Basis Set: AUG-CC-PVQZ
    Blend: AUG-CC-PVQZ
  Basis Set: (AUG-CC-PVQZ AUX)
    Blend: AUG-CC-PVQZ-JKFIT
  @DF-RHF Final Energy:   -76.05782389858737
    Total Energy =                        -76.0578238985873725
  Basis Set: (AUG-CC-PVQZ AUX)
  @DF-RHF Final Energy:   -76.05262845398308
    Total Energy =                        -76.0526284539830755
  @DF-RHF Final Energy:   -76.05785777172305
    Total Energy =                        -76.0578577717230360
  @DF-RHF Final Energy:  -640.92173181400483
    Total Energy =                       -640.9217318140048292
  @DF-RHF Final Energy:  -640.95326305626986
    Total Energy =                       -640.9532630562698614
  @DF-RHF Final Energy:  -640.92148755711048
    Total Energy =                       -640.9214875571104812
  @DF-RHF Final Energy:  -640.95317724194763
    Total Energy =                       -640.9531772419476283
  Multiplicity = 1
  @DF-RHF Final Energy:  -717.02382458233660
    Total Energy =                       -717.0238245823366015
	 Singles Energy            =      -0.0000000000000000 [Eh]
	 Same-Spin Energy          =      -0.4132902576644203 [Eh]
	 Opposite-Spin Energy      =      -1.1572685178188447 [Eh]
	 Correlation Energy        =      -1.5705587754832648 [Eh]
	 Total Energy              =    -718.5943833578198792 [Eh]
	 SCS Total Energy          =    -718.5503102229406522 [Eh]
    Molecular point group: c1

    Geometry (in Angstrom), charge = -2, multiplicity = 1:

       Center              X                  Y                   Z               Mass
    ------------   -----------------  -----------------  -----------------  -----------------
         P           -0.137027304210    -0.042291444080    -0.497893944165    30.973761998420
         O            1.316687695790     0.112722555920     0.018529055835    15.994914619570
         O           -0.511965304210     1.629052555920    -0.790537944165    15.994914619570
         O           -1.115290304210    -0.482855444080     0.602296055835    15.994914619570
         O           -0.309736304210    -0.722407444080    -1.847677944165    15.994914619570
         H            0.298283695790     1.990246555920    -0.419341944165     1.007825032230
         O            0.789511695790    -0.525360444080     2.744937055835    15.994914619570
         H            1.285097695790    -0.281732444080     1.930310055835     1.007825032230
         H           -0.057529304210    -0.585746444080     2.244255055835     1.007825032230

  Charge       = -2
  Multiplicity = 1
  Basis Set: AUG-CC-PVQZ
    Blend: AUG-CC-PVQZ
  Basis Set: (AUG-CC-PVQZ AUX)
    Blend: AUG-CC-PVQZ-JKFIT

    Orbital Energies [Eh]
    ---------------------

    Doubly Occupied:

       1A    -79.672669     2A    -20.222029     3A    -20.207668
       4A    -20.128119     5A    -20.122909     6A    -20.118420
       7A     -7.187535     8A     -5.087426     9A     -5.085261
      10A     -5.084918    11A     -1.011644    12A     -1.003435
      13A     -0.928002    14A     -0.872912    15A     -0.869340
      16A     -0.366962    17A     -0.341504    18A     -0.300748
      19A     -0.278407    20A     -0.240386    21A     -0.219025
      22A     -0.194116    23A     -0.172309    24A     -0.156372
      25A     -0.107172    26A     -0.104177    27A     -0.100520
      28A     -0.069486    29A     -0.058390    30A     -0.038827

  @DF-RHF Final Energy:  -717.06071393573075

   => Energetics <=

    Nuclear Repulsion Energy =            337.2967671041226936
    One-Electron Energy =               -1688.0135893056751684
    Two-Electron Energy =                 633.6561082658217856
    Total Energy =                       -717.0607139357307460

  Dipole Moment: [D]
     X:     0.6552      Y:     2.3411      Z:     0.5523     Total:     2.4930

  Basis Set: (AUG-CC-PVQZ AUX)
    Blend: AUG-CC-PVQZ-RI
	 Reference Energy          =    -717.0607139357307460 [Eh]
	 Singles Energy            =      -0.0000000000000000 [Eh]
	 Same-Spin Energy          =      -0.4380029135883150 [Eh]
	 Opposite-Spin Energy      =      -1.3123641963199226 [Eh]
	 Correlation Energy        =      -1.7503671099082376 [Eh]
	 Total Energy              =    -718.8110810456389572 [Eh]

	 ================> DF-SCS-MP2 Energies <==================
	-----------------------------------------------------------
	 SCS Same-Spin Scale       =       0.3333333333333333 [-]
	 SCS Opposite-Spin Scale   =       1.2000000000000000 [-]
	 SCS Same-Spin Energy      =      -0.1460009711961050 [Eh]
	 SCS Opposite-Spin Energy  =      -1.5748370355839072 [Eh]
	 SCS Correlation Energy    =      -1.7208380067800122 [Eh]
	 SCS Total Energy          =    -718.7815519425107595 [Eh]
	-----------------------------------------------------------

*** Psi4 exiting successfully. Buy a developer a beer!
