                               Psi4 1.4a2.dev224

  ==> Input File <==

--------------------------------------------------------------------------
#Generated by lconvert.py for cbs job

memory 40 GB

molecule  {
-2 1
  P       -0.3212000    -0.0258600     0.3144250
  O        1.1325150     0.1291540     0.8308480
  O       -0.6961380     1.6454840     0.0217810
  O       -1.2994630    -0.4664240     1.4146150
  O       -0.4939090    -0.7059760    -1.0353590
  H        0.1141110     2.0066780     0.3929770
--
0 1
  O        0.3520240    -0.4842880     3.1640360
  H        0.8476100    -0.2406600     2.3494090
  H       -0.4950170    -0.5446740     2.6633540
units angstrom
no_reorient
symmetry c1
}

set {
scf_type DF
mp2_type DF
e_convergence 7
reference rhf
}

energy('mp2/aug-cc-pv[tq]z', bsse_type='cp')
--------------------------------------------------------------------------

    Molecular point group: c1
  Charge       = 0
  Multiplicity = 1
  Basis Set: AUG-CC-PVTZ
    Blend: AUG-CC-PVTZ
  Basis Set: (AUG-CC-PVTZ AUX)
    Blend: AUG-CC-PVTZ-JKFIT
  @DF-RHF Final Energy:   -76.05255317367065
    Total Energy =                        -76.0525531736706455
  Basis Set: (AUG-CC-PVTZ AUX)
    Blend: AUG-CC-PVTZ-RI
	 Reference Energy          =     -76.0525531736706455 [Eh]
	 Singles Energy            =      -0.0000000000000000 [Eh]
	 Same-Spin Energy          =      -0.0692897795299448 [Eh]
	 Opposite-Spin Energy      =      -0.2176696965688033 [Eh]
	 Correlation Energy        =      -0.2869594760987481 [Eh]
	 Total Energy              =     -76.3395126497693894 [Eh]
	 SCS Total Energy          =     -76.3368534027298580 [Eh]
    Molecular point group: c1
  Basis Set: AUG-CC-PVQZ
    Blend: AUG-CC-PVQZ
  Basis Set: (AUG-CC-PVQZ AUX)
    Blend: AUG-CC-PVQZ-JKFIT
  @DF-RHF Final Energy:   -76.05782389858446
    Total Energy =                        -76.0578238985844592
  Basis Set: (AUG-CC-PVQZ AUX)
  @DF-RHF Final Energy:   -76.05268385369340
    Total Energy =                        -76.0526838536933951
  @DF-RHF Final Energy:   -76.05787248618930
    Total Energy =                        -76.0578724861892965
  @DF-RHF Final Energy:  -640.92190277742361
    Total Energy =                       -640.9219027774236110
  @DF-RHF Final Energy:  -640.95330497140594
    Total Energy =                       -640.9533049714059416
  @DF-RHF Final Energy:  -640.92148755692256
    Total Energy =                       -640.9214875569225569
  @DF-RHF Final Energy:  -640.95317724246411
    Total Energy =                       -640.9531772424641076
  Multiplicity = 1
  @DF-RHF Final Energy:  -717.00709862779138
    Total Energy =                       -717.0070986277913789
	 Singles Energy            =      -0.0000000000000000 [Eh]
	 Same-Spin Energy          =      -0.4171421813787692 [Eh]
	 Opposite-Spin Energy      =      -1.1610929895920852 [Eh]
	 Correlation Energy        =      -1.5782351709708544 [Eh]
	 Total Energy              =    -718.5853337987622353 [Eh]
	 SCS Total Energy          =    -718.5394576090948249 [Eh]
    Molecular point group: c1

    Geometry (in Angstrom), charge = -2, multiplicity = 1:

       Center              X                  Y                   Z               Mass
    ------------   -----------------  -----------------  -----------------  -----------------
         P           -0.096996824873    -0.046185374725    -0.435754769284    30.973761998420
         O            1.356718175127     0.108828625275     0.080668230716    15.994914619570
         O           -0.471934824873     1.625158625275    -0.728398769284    15.994914619570
         O           -1.075259824873    -0.486749374725     0.664435230716    15.994914619570
         O           -0.269705824873    -0.726301374725    -1.785538769284    15.994914619570
         H            0.338314175127     1.986352625275    -0.357202769284     1.007825032230
         O            0.576227175127    -0.504613374725     2.413856230716    15.994914619570
         H            1.071813175127    -0.260985374725     1.599229230716     1.007825032230
         H           -0.270813824873    -0.564999374725     1.913174230716     1.007825032230

  Charge       = -2
  Multiplicity = 1
  Basis Set: AUG-CC-PVQZ
    Blend: AUG-CC-PVQZ
  Basis Set: (AUG-CC-PVQZ AUX)
    Blend: AUG-CC-PVQZ-JKFIT

    Orbital Energies [Eh]
    ---------------------

    Doubly Occupied:

       1A    -79.682855     2A    -20.214028     3A    -20.150621
       4A    -20.136455     5A    -20.131132     6A    -20.125529
       7A     -7.198051     8A     -5.097851     9A     -5.095802
      10A     -5.095479    11A     -1.020664    12A     -0.967971
      13A     -0.926287    14A     -0.891140    15A     -0.877403
      16A     -0.377992    17A     -0.319132    18A     -0.306159
      19A     -0.261343    20A     -0.248915    21A     -0.217973
      22A     -0.190299    23A     -0.162122    24A     -0.126793
      25A     -0.115159    26A     -0.100067    27A     -0.094133
      28A     -0.080832    29A     -0.066318    30A     -0.047658

  @DF-RHF Final Energy:  -717.04384190874043

   => Energetics <=

    Nuclear Repulsion Energy =            348.5064041737975913
    One-Electron Energy =               -1710.4481683329377120
    Two-Electron Energy =                 644.8979222503996880
    Total Energy =                       -717.0438419087404327

  Dipole Moment: [D]
     X:     0.1505      Y:     2.5270      Z:    -0.7550     Total:     2.6416

  Basis Set: (AUG-CC-PVQZ AUX)
    Blend: AUG-CC-PVQZ-RI
	 Reference Energy          =    -717.0438419087404327 [Eh]
	 Singles Energy            =      -0.0000000000000000 [Eh]
	 Same-Spin Energy          =      -0.4419254322518741 [Eh]
	 Opposite-Spin Energy      =      -1.3156204564657943 [Eh]
	 Correlation Energy        =      -1.7575458887176685 [Eh]
	 Total Energy              =    -718.8013877974581192 [Eh]

	 ================> DF-SCS-MP2 Energies <==================
	-----------------------------------------------------------
	 SCS Same-Spin Scale       =       0.3333333333333333 [-]
	 SCS Opposite-Spin Scale   =       1.2000000000000000 [-]
	 SCS Same-Spin Energy      =      -0.1473084774172914 [Eh]
	 SCS Opposite-Spin Energy  =      -1.5787445477589530 [Eh]
	 SCS Correlation Energy    =      -1.7260530251762445 [Eh]
	 SCS Total Energy          =    -718.7698949339167029 [Eh]
	-----------------------------------------------------------

*** Psi4 exiting successfully. Buy a developer a beer!
