                               Psi4 1.4a2.dev224

  ==> Input File <==

--------------------------------------------------------------------------
#Generated by lconvert.py for cbs job

memory 40 GB

molecule  {
-2 1
  P       -0.3212000    -0.0258600     0.3144250
  O        1.1325150     0.1291540     0.8308480
  O       -0.6961380     1.6454840     0.0217810
  O       -1.2994630    -0.4664240     1.4146150
  O       -0.4939090    -0.7059760    -1.0353590
  H        0.1141110     2.0066780     0.3929770
--
0 1
  O        0.5531360    -0.5038510     3.4762210
  H        1.0487220    -0.2602230     2.6615940
  H       -0.2939050    -0.5642370     2.9755390
units angstrom
no_reorient
symmetry c1
}

set {
scf_type DF
mp2_type DF
e_convergence 7
reference rhf
}

energy('mp2/aug-cc-pv[tq]z', bsse_type='cp')
--------------------------------------------------------------------------

    Molecular point group: c1
  Charge       = 0
  Multiplicity = 1
  Basis Set: AUG-CC-PVTZ
    Blend: AUG-CC-PVTZ
  Basis Set: (AUG-CC-PVTZ AUX)
    Blend: AUG-CC-PVTZ-JKFIT
  @DF-RHF Final Energy:   -76.05255317366088
    Total Energy =                        -76.0525531736608684
  Basis Set: (AUG-CC-PVTZ AUX)
    Blend: AUG-CC-PVTZ-RI
	 Reference Energy          =     -76.0525531736608826 [Eh]
	 Singles Energy            =      -0.0000000000000000 [Eh]
	 Same-Spin Energy          =      -0.0692897795299706 [Eh]
	 Opposite-Spin Energy      =      -0.2176696965688521 [Eh]
	 Correlation Energy        =      -0.2869594760988227 [Eh]
	 Total Energy              =     -76.3395126497597118 [Eh]
	 SCS Total Energy          =     -76.3368534027201662 [Eh]
    Molecular point group: c1
  Basis Set: AUG-CC-PVQZ
    Blend: AUG-CC-PVQZ
  Basis Set: (AUG-CC-PVQZ AUX)
    Blend: AUG-CC-PVQZ-JKFIT
  @DF-RHF Final Energy:   -76.05782389859512
    Total Energy =                        -76.0578238985951174
  Basis Set: (AUG-CC-PVQZ AUX)
  @DF-RHF Final Energy:   -76.05263804791174
    Total Energy =                        -76.0526380479117421
  @DF-RHF Final Energy:   -76.05786042276993
    Total Energy =                        -76.0578604227699344
  @DF-RHF Final Energy:  -640.92175772722715
    Total Energy =                       -640.9217577272271456
  @DF-RHF Final Energy:  -640.95327035496052
    Total Energy =                       -640.9532703549605230
  @DF-RHF Final Energy:  -640.92148755715959
    Total Energy =                       -640.9214875571595940
  @DF-RHF Final Energy:  -640.95317724269921
    Total Energy =                       -640.9531772426992120
  Multiplicity = 1
  @DF-RHF Final Energy:  -717.02367580319492
    Total Energy =                       -717.0236758031949194
	 Singles Energy            =      -0.0000000000000000 [Eh]
	 Same-Spin Energy          =      -0.4138848585110902 [Eh]
	 Opposite-Spin Energy      =      -1.1579076793729324 [Eh]
	 Correlation Energy        =      -1.5717925378840225 [Eh]
	 Total Energy              =    -718.5954683410789130 [Eh]
	 SCS Total Energy          =    -718.5511266379461404 [Eh]
    Molecular point group: c1

    Geometry (in Angstrom), charge = -2, multiplicity = 1:

       Center              X                  Y                   Z               Mass
    ------------   -----------------  -----------------  -----------------  -----------------
         P           -0.128777847554    -0.043093902577    -0.485088267860    30.973761998420
         O            1.324937152446     0.111920097423     0.031334732140    15.994914619570
         O           -0.503715847554     1.628250097423    -0.777732267860    15.994914619570
         O           -1.107040847554    -0.483657902577     0.615101732140    15.994914619570
         O           -0.301486847554    -0.723209902577    -1.834872267860    15.994914619570
         H            0.306533152446     1.989444097423    -0.406536267860     1.007825032230
         O            0.745558152446    -0.521084902577     2.676707732140    15.994914619570
         H            1.241144152446    -0.277456902577     1.862080732140     1.007825032230
         H           -0.101482847554    -0.581470902577     2.176025732140     1.007825032230

  Charge       = -2
  Multiplicity = 1
  Basis Set: AUG-CC-PVQZ
    Blend: AUG-CC-PVQZ
  Basis Set: (AUG-CC-PVQZ AUX)
    Blend: AUG-CC-PVQZ-JKFIT

    Orbital Energies [Eh]
    ---------------------

    Doubly Occupied:

       1A    -79.674420     2A    -20.209613     3A    -20.208781
       4A    -20.129665     5A    -20.124574     6A    -20.119658
       7A     -7.189320     8A     -5.089199     9A     -5.087054
      10A     -5.086710    11A     -1.012165    12A     -0.994800
      13A     -0.929530    14A     -0.875455    15A     -0.871326
      16A     -0.368680    17A     -0.334104    18A     -0.301719
      19A     -0.272260    20A     -0.242014    21A     -0.219841
      22A     -0.194754    23A     -0.162011    24A     -0.157456
      25A     -0.107190    26A     -0.106070    27A     -0.101759
      28A     -0.071569    29A     -0.060093    30A     -0.040917

  @DF-RHF Final Energy:  -717.06055482087618

   => Energetics <=

    Nuclear Repulsion Energy =            339.3824356428183933
    One-Electron Energy =               -1692.2005698542741357
    Two-Electron Energy =                 635.7575793905796218
    Total Energy =                       -717.0605548208761775

  Dipole Moment: [D]
     X:     0.5559      Y:     2.3742      Z:     0.3080     Total:     2.4578

  Basis Set: (AUG-CC-PVQZ AUX)
    Blend: AUG-CC-PVQZ-RI
	 Reference Energy          =    -717.0605548208761775 [Eh]
	 Singles Energy            =      -0.0000000000000000 [Eh]
	 Same-Spin Energy          =      -0.4385965462191542 [Eh]
	 Opposite-Spin Energy      =      -1.3128355280024837 [Eh]
	 Correlation Energy        =      -1.7514320742216378 [Eh]
	 Total Energy              =    -718.8119868950977889 [Eh]

	 ================> DF-SCS-MP2 Energies <==================
	-----------------------------------------------------------
	 SCS Same-Spin Scale       =       0.3333333333333333 [-]
	 SCS Opposite-Spin Scale   =       1.2000000000000000 [-]
	 SCS Same-Spin Energy      =      -0.1461988487397181 [Eh]
	 SCS Opposite-Spin Energy  =      -1.5754026336029805 [Eh]
	 SCS Correlation Energy    =      -1.7216014823426986 [Eh]
	 SCS Total Energy          =    -718.7821563032189260 [Eh]
	-----------------------------------------------------------

*** Psi4 exiting successfully. Buy a developer a beer!
