                               Psi4 1.4a2.dev224

  ==> Input File <==

--------------------------------------------------------------------------
#Generated by lconvert.py for cbs job

memory 20 GB

molecule  {
-2 1
  P      -0.321200   -0.025860    0.314430
  O       1.132510    0.129150    0.830850
  O      -0.696140    1.645480    0.021780
  O      -1.299460   -0.466420    1.414610
  O      -0.493910   -0.705980   -1.035360
  H       0.114110    2.006680    0.392980
--
0 1
  O       0.866830   -0.534360    3.963170
  H       1.362420   -0.290740    3.148540
  H       0.019790   -0.594750    3.462490
units angstrom
no_reorient
symmetry c1
}

set {
scf_type DF
mp2_type DF
e_convergence 7
reference rhf
}

energy('mp2/aug-cc-pv[tq]z', bsse_type='cp')
--------------------------------------------------------------------------

    Molecular point group: c1
  Charge       = 0
  Multiplicity = 1
  Basis Set: AUG-CC-PVTZ
    Blend: AUG-CC-PVTZ
  Basis Set: (AUG-CC-PVTZ AUX)
    Blend: AUG-CC-PVTZ-JKFIT
  @DF-RHF Final Energy:   -76.05255327229671
    Total Energy =                        -76.0525532722967199
  Basis Set: (AUG-CC-PVTZ AUX)
    Blend: AUG-CC-PVTZ-RI
	 Reference Energy          =     -76.0525532722967057 [Eh]
	 Singles Energy            =      -0.0000000000000000 [Eh]
	 Same-Spin Energy          =      -0.0692897770168198 [Eh]
	 Opposite-Spin Energy      =      -0.2176697016101499 [Eh]
	 Correlation Energy        =      -0.2869594786269697 [Eh]
	 Total Energy              =     -76.3395127509236744 [Eh]
	 SCS Total Energy          =     -76.3368535065678202 [Eh]
    Molecular point group: c1
  Basis Set: AUG-CC-PVQZ
    Blend: AUG-CC-PVQZ
  Basis Set: (AUG-CC-PVQZ AUX)
    Blend: AUG-CC-PVQZ-JKFIT
  @DF-RHF Final Energy:   -76.05782399487111
    Total Energy =                        -76.0578239948711143
  Basis Set: (AUG-CC-PVQZ AUX)
  @DF-RHF Final Energy:   -76.05259419980636
    Total Energy =                        -76.0525941998063786
  @DF-RHF Final Energy:   -76.05784546699896
    Total Energy =                        -76.0578454669989554
  @DF-RHF Final Energy:  -640.92166756287907
    Total Energy =                       -640.9216675628790654
  @DF-RHF Final Energy:  -640.95323880975059
    Total Energy =                       -640.9532388097505873
  @DF-RHF Final Energy:  -640.92148817624445
    Total Energy =                       -640.9214881762444520
  @DF-RHF Final Energy:  -640.95317796743336
    Total Energy =                       -640.9531779674333620
  Multiplicity = 1
  @DF-RHF Final Energy:  -717.01703311982067
    Total Energy =                       -717.0170331198206668
	 Singles Energy            =      -0.0000000000000000 [Eh]
	 Same-Spin Energy          =      -0.4113305318283534 [Eh]
	 Opposite-Spin Energy      =      -1.1550984676227416 [Eh]
	 Correlation Energy        =      -1.5664289994510949 [Eh]
	 Total Energy              =    -718.5834621192717577 [Eh]
	 SCS Total Energy          =    -718.5402614582441174 [Eh]
    Molecular point group: c1

    Geometry (in Angstrom), charge = -2, multiplicity = 1:

       Center              X                  Y                   Z               Mass
    ------------   -----------------  -----------------  -----------------  -----------------
         P           -0.178349141764    -0.038271461356    -0.562034782076    30.973761998420
         O            1.275360858236     0.116738538644    -0.045614782076    15.994914619570
         O           -0.553289141764     1.633068538644    -0.854684782076    15.994914619570
         O           -1.156609141764    -0.478831461356     0.538145217924    15.994914619570
         O           -0.351059141764    -0.718391461356    -1.911824782076    15.994914619570
         H            0.256960858236     1.994268538644    -0.483484782076     1.007825032230
         O            1.009680858236    -0.546771461356     3.086705217924    15.994914619570
         H            1.505270858236    -0.303151461356     2.272075217924     1.007825032230
         H            0.162640858236    -0.607161461356     2.586025217924     1.007825032230

  Charge       = -2
  Multiplicity = 1
  Basis Set: AUG-CC-PVQZ
    Blend: AUG-CC-PVQZ
  Basis Set: (AUG-CC-PVQZ AUX)
    Blend: AUG-CC-PVQZ-JKFIT

    Orbital Energies [Eh]
    ---------------------

    Doubly Occupied:

       1A    -79.665648     2A    -20.271917     3A    -20.203125
       4A    -20.121455     5A    -20.115263     6A    -20.113385
       7A     -7.180439     8A     -5.080371     9A     -5.078133
      10A     -5.077801    11A     -1.049396    12A     -1.003689
      13A     -0.920983    14A     -0.864729    15A     -0.860389
      16A     -0.380756    17A     -0.360493    18A     -0.315685
      19A     -0.293722    20A     -0.233799    21A     -0.217198
      22A     -0.213249    23A     -0.188148    24A     -0.150975
      25A     -0.102428    26A     -0.096839    27A     -0.094290
      28A     -0.061446    29A     -0.051134    30A     -0.029814

  @DF-RHF Final Energy:  -717.05387486766824

   => Energetics <=

    Nuclear Repulsion Energy =            328.2378366910369891
    One-Electron Energy =               -1669.7900293790123669
    Two-Electron Energy =                 624.4983178203070793
    Total Energy =                       -717.0538748676682417

  Dipole Moment: [D]
     X:     1.1367      Y:     2.2054      Z:     1.6441     Total:     2.9765

  Basis Set: (AUG-CC-PVQZ AUX)
    Blend: AUG-CC-PVQZ-RI
	 Reference Energy          =    -717.0538748676682417 [Eh]
	 Singles Energy            =      -0.0000000000000000 [Eh]
	 Same-Spin Energy          =      -0.4360880914032431 [Eh]
	 Opposite-Spin Energy      =      -1.3108439086697821 [Eh]
	 Correlation Energy        =      -1.7469320000730253 [Eh]
	 Total Energy              =    -718.8008068677412439 [Eh]

	 ================> DF-SCS-MP2 Energies <==================
	-----------------------------------------------------------
	 SCS Same-Spin Scale       =       0.3333333333333333 [-]
	 SCS Opposite-Spin Scale   =       1.2000000000000000 [-]
	 SCS Same-Spin Energy      =      -0.1453626971344144 [Eh]
	 SCS Opposite-Spin Energy  =      -1.5730126904037385 [Eh]
	 SCS Correlation Energy    =      -1.7183753875381529 [Eh]
	 SCS Total Energy          =    -718.7722502552063588 [Eh]
	-----------------------------------------------------------

*** Psi4 exiting successfully. Buy a developer a beer!
