                               Psi4 1.4a2.dev224

  ==> Input File <==

--------------------------------------------------------------------------
#Generated by lconvert.py for cbs job

memory 40 GB

molecule  {
-2 1
  P       -0.3212000    -0.0258600     0.3144250
  O        1.1325150     0.1291540     0.8308480
  O       -0.6961380     1.6454840     0.0217810
  O       -1.2994630    -0.4664240     1.4146150
  O       -0.4939090    -0.7059760    -1.0353590
  H        0.1141110     2.0066780     0.3929770
--
0 1
  O        0.4525800    -0.4940700     3.3201290
  H        0.9481660    -0.2504420     2.5055020
  H       -0.3944610    -0.5544560     2.8194470
units angstrom
no_reorient
symmetry c1
}

set {
scf_type DF
mp2_type DF
e_convergence 7
reference rhf
}

energy('mp2/aug-cc-pv[tq]z', bsse_type='cp')
--------------------------------------------------------------------------

    Molecular point group: c1
  Charge       = 0
  Multiplicity = 1
  Basis Set: AUG-CC-PVTZ
    Blend: AUG-CC-PVTZ
  Basis Set: (AUG-CC-PVTZ AUX)
    Blend: AUG-CC-PVTZ-JKFIT
  @DF-RHF Final Energy:   -76.05255317366320
    Total Energy =                        -76.0525531736631990
  Basis Set: (AUG-CC-PVTZ AUX)
    Blend: AUG-CC-PVTZ-RI
	 Reference Energy          =     -76.0525531736631990 [Eh]
	 Singles Energy            =      -0.0000000000000000 [Eh]
	 Same-Spin Energy          =      -0.0692897795299429 [Eh]
	 Opposite-Spin Energy      =      -0.2176696965688092 [Eh]
	 Correlation Energy        =      -0.2869594760987521 [Eh]
	 Total Energy              =     -76.3395126497619572 [Eh]
	 SCS Total Energy          =     -76.3368534027224115 [Eh]
    Molecular point group: c1
  Basis Set: AUG-CC-PVQZ
    Blend: AUG-CC-PVQZ
  Basis Set: (AUG-CC-PVQZ AUX)
    Blend: AUG-CC-PVQZ-JKFIT
  @DF-RHF Final Energy:   -76.05782389859114
    Total Energy =                        -76.0578238985911383
  Basis Set: (AUG-CC-PVQZ AUX)
  @DF-RHF Final Energy:   -76.05265817682462
    Total Energy =                        -76.0526581768246217
  @DF-RHF Final Energy:   -76.05786598229808
    Total Energy =                        -76.0578659822980825
  @DF-RHF Final Energy:  -640.92182589197682
    Total Energy =                       -640.9218258919768232
  @DF-RHF Final Energy:  -640.95328741725518
    Total Energy =                       -640.9532874172551828
  @DF-RHF Final Energy:  -640.92148755650169
    Total Energy =                       -640.9214875565016882
  @DF-RHF Final Energy:  -640.95317724186918
    Total Energy =                       -640.9531772418691844
  Multiplicity = 1
  @DF-RHF Final Energy:  -717.01972448313757
    Total Energy =                       -717.0197244831375656
	 Singles Energy            =      -0.0000000000000000 [Eh]
	 Same-Spin Energy          =      -0.4152975931107287 [Eh]
	 Opposite-Spin Energy      =      -1.1593468057266956 [Eh]
	 Correlation Energy        =      -1.5746443988374244 [Eh]
	 Total Energy              =    -718.5943688819750150 [Eh]
	 SCS Total Energy          =    -718.5493731810464624 [Eh]
    Molecular point group: c1

    Geometry (in Angstrom), charge = -2, multiplicity = 1:

       Center              X                  Y                   Z               Mass
    ------------   -----------------  -----------------  -----------------  -----------------
         P           -0.112887336214    -0.044639559638    -0.460421597586    30.973761998420
         O            1.340827663786     0.110374440362     0.056001402414    15.994914619570
         O           -0.487825336214     1.626704440362    -0.753065597586    15.994914619570
         O           -1.091150336214    -0.485203559638     0.639768402414    15.994914619570
         O           -0.285596336214    -0.724755559638    -1.810205597586    15.994914619570
         H            0.322423663786     1.987898440362    -0.381869597586     1.007825032230
         O            0.660892663786    -0.512849559638     2.545282402414    15.994914619570
         H            1.156478663786    -0.269221559638     1.730655402414     1.007825032230
         H           -0.186148336214    -0.573235559638     2.044600402414     1.007825032230

  Charge       = -2
  Multiplicity = 1
  Basis Set: AUG-CC-PVQZ
    Blend: AUG-CC-PVQZ
  Basis Set: (AUG-CC-PVQZ AUX)
    Blend: AUG-CC-PVQZ-JKFIT

    Orbital Energies [Eh]
    ---------------------

    Doubly Occupied:

       1A    -79.678251     2A    -20.211190     3A    -20.182559
       4A    -20.132890     5A    -20.127845     6A    -20.122344
       7A     -7.193258     8A     -5.093105     9A     -5.091003
      10A     -5.090663    11A     -1.015541    12A     -0.977423
      13A     -0.931284    14A     -0.881949    15A     -0.874954
      16A     -0.372652    17A     -0.322964    18A     -0.303625
      19A     -0.263456    20A     -0.245374    21A     -0.220236
      22A     -0.194148    23A     -0.159888    24A     -0.141272
      25A     -0.110290    26A     -0.105696    27A     -0.102219
      28A     -0.076072    29A     -0.063499    30A     -0.044861

  @DF-RHF Final Energy:  -717.05654190639734

   => Energetics <=

    Nuclear Repulsion Energy =            343.7120131494988868
    One-Electron Energy =               -1700.8760886963539178
    Two-Electron Energy =                 640.1075336404576319
    Total Energy =                       -717.0565419063973422

  Dipole Moment: [D]
     X:     0.3591      Y:     2.4452      Z:    -0.1966     Total:     2.4792

  Basis Set: (AUG-CC-PVQZ AUX)
    Blend: AUG-CC-PVQZ-RI
	 Reference Energy          =    -717.0565419063973422 [Eh]
	 Singles Energy            =      -0.0000000000000000 [Eh]
	 Same-Spin Energy          =      -0.4400295788867656 [Eh]
	 Opposite-Spin Energy      =      -1.3140027149840670 [Eh]
	 Correlation Energy        =      -1.7540322938708326 [Eh]
	 Total Energy              =    -718.8105742002682064 [Eh]

	 ================> DF-SCS-MP2 Energies <==================
	-----------------------------------------------------------
	 SCS Same-Spin Scale       =       0.3333333333333333 [-]
	 SCS Opposite-Spin Scale   =       1.2000000000000000 [-]
	 SCS Same-Spin Energy      =      -0.1466765262955885 [Eh]
	 SCS Opposite-Spin Energy  =      -1.5768032579808804 [Eh]
	 SCS Correlation Energy    =      -1.7234797842764689 [Eh]
	 SCS Total Energy          =    -718.7800216906738342 [Eh]
	-----------------------------------------------------------

*** Psi4 exiting successfully. Buy a developer a beer!
