                               Psi4 1.4a2.dev224

  ==> Input File <==

--------------------------------------------------------------------------
#Generated by lconvert.py for cbs job

memory 40 GB

molecule  {
-2 1
  P       -0.3212000    -0.0258600     0.3144250
  O        1.1325150     0.1291540     0.8308480
  O       -0.6961380     1.6454840     0.0217810
  O       -1.2994630    -0.4664240     1.4146150
  O       -0.4939090    -0.7059760    -1.0353590
  H        0.1141110     2.0066780     0.3929770
--
0 1
  O        0.5028580    -0.4989600     3.3981750
  H        0.9984440    -0.2553320     2.5835480
  H       -0.3441830    -0.5593460     2.8974930
units angstrom
no_reorient
symmetry c1
}

set {
scf_type DF
mp2_type DF
e_convergence 7
reference rhf
}

energy('mp2/aug-cc-pv[tq]z', bsse_type='cp')
--------------------------------------------------------------------------

    Molecular point group: c1
  Charge       = 0
  Multiplicity = 1
  Basis Set: AUG-CC-PVTZ
    Blend: AUG-CC-PVTZ
  Basis Set: (AUG-CC-PVTZ AUX)
    Blend: AUG-CC-PVTZ-JKFIT
  @DF-RHF Final Energy:   -76.05255317365987
    Total Energy =                        -76.0525531736598737
  Basis Set: (AUG-CC-PVTZ AUX)
    Blend: AUG-CC-PVTZ-RI
	 Reference Energy          =     -76.0525531736598737 [Eh]
	 Singles Energy            =      -0.0000000000000000 [Eh]
	 Same-Spin Energy          =      -0.0692897795299386 [Eh]
	 Opposite-Spin Energy      =      -0.2176696965687946 [Eh]
	 Correlation Energy        =      -0.2869594760987332 [Eh]
	 Total Energy              =     -76.3395126497586034 [Eh]
	 SCS Total Energy          =     -76.3368534027190719 [Eh]
    Molecular point group: c1
  Basis Set: AUG-CC-PVQZ
    Blend: AUG-CC-PVQZ
  Basis Set: (AUG-CC-PVQZ AUX)
    Blend: AUG-CC-PVQZ-JKFIT
  @DF-RHF Final Energy:   -76.05782389858612
    Total Energy =                        -76.0578238985861219
  Basis Set: (AUG-CC-PVQZ AUX)
  @DF-RHF Final Energy:   -76.05264775014344
    Total Energy =                        -76.0526477501434215
  @DF-RHF Final Energy:   -76.05786310196277
    Total Energy =                        -76.0578631019627522
  @DF-RHF Final Energy:  -640.92178983041379
    Total Energy =                       -640.9217898304137861
  @DF-RHF Final Energy:  -640.95327879498541
    Total Energy =                       -640.9532787949854082
  @DF-RHF Final Energy:  -640.92148755732387
    Total Energy =                       -640.9214875573238714
  @DF-RHF Final Energy:  -640.95317724268136
    Total Energy =                       -640.9531772426813632
  Multiplicity = 1
  @DF-RHF Final Energy:  -717.02245534472252
    Total Energy =                       -717.0224553447225162
	 Singles Energy            =      -0.0000000000000000 [Eh]
	 Same-Spin Energy          =      -0.4145433509236430 [Eh]
	 Opposite-Spin Energy      =      -1.1585927551769200 [Eh]
	 Correlation Energy        =      -1.5731361061005629 [Eh]
	 Total Energy              =    -718.5955914508231217 [Eh]
	 SCS Total Energy          =    -718.5509477679094061 [Eh]
    Molecular point group: c1

    Geometry (in Angstrom), charge = -2, multiplicity = 1:

       Center              X                  Y                   Z               Mass
    ------------   -----------------  -----------------  -----------------  -----------------
         P           -0.120832591884    -0.043866810120    -0.472754932723    30.973761998420
         O            1.332882408116     0.111147189880     0.043668067277    15.994914619570
         O           -0.495770591884     1.627477189880    -0.765398932723    15.994914619570
         O           -1.099095591884    -0.484430810120     0.627435067277    15.994914619570
         O           -0.293541591884    -0.723982810120    -1.822538932723    15.994914619570
         H            0.314478408116     1.988671189880    -0.394202932723     1.007825032230
         O            0.703225408116    -0.516966810120     2.610995067277    15.994914619570
         H            1.198811408116    -0.273338810120     1.796368067277     1.007825032230
         H           -0.143815591884    -0.577352810120     2.110313067277     1.007825032230

  Charge       = -2
  Multiplicity = 1
  Basis Set: AUG-CC-PVQZ
    Blend: AUG-CC-PVQZ
  Basis Set: (AUG-CC-PVQZ AUX)
    Blend: AUG-CC-PVQZ-JKFIT

    Orbital Energies [Eh]
    ---------------------

    Doubly Occupied:

       1A    -79.676253     2A    -20.209938     3A    -20.196642
       4A    -20.131236     5A    -20.126202     6A    -20.120947
       7A     -7.191198     8A     -5.091063     9A     -5.088938
      10A     -5.088595    11A     -1.013645    12A     -0.985818
      13A     -0.930764    14A     -0.878410    15A     -0.873194
      16A     -0.370539    17A     -0.327837    18A     -0.302689
      19A     -0.267198    20A     -0.243665    21A     -0.220294
      22A     -0.194824    23A     -0.158806    24A     -0.151467
      25A     -0.108091    26A     -0.106618    27A     -0.102602
      28A     -0.073746    29A     -0.061790    30A     -0.042935

  @DF-RHF Final Energy:  -717.05930922587709

   => Energetics <=

    Nuclear Repulsion Energy =            341.4933578798355711
    One-Electron Energy =               -1696.4334480452289426
    Two-Electron Energy =                 637.8807809395163986
    Total Energy =                       -717.0593092258770866

  Dipole Moment: [D]
     X:     0.4586      Y:     2.4084      Z:     0.0618     Total:     2.4524

  Basis Set: (AUG-CC-PVQZ AUX)
    Blend: AUG-CC-PVQZ-RI
	 Reference Energy          =    -717.0593092258770866 [Eh]
	 Singles Energy            =      -0.0000000000000000 [Eh]
	 Same-Spin Energy          =      -0.4392608193189369 [Eh]
	 Opposite-Spin Energy      =      -1.3133699957721530 [Eh]
	 Correlation Energy        =      -1.7526308150910899 [Eh]
	 Total Energy              =    -718.8119400409681248 [Eh]

	 ================> DF-SCS-MP2 Energies <==================
	-----------------------------------------------------------
	 SCS Same-Spin Scale       =       0.3333333333333333 [-]
	 SCS Opposite-Spin Scale   =       1.2000000000000000 [-]
	 SCS Same-Spin Energy      =      -0.1464202731063123 [Eh]
	 SCS Opposite-Spin Energy  =      -1.5760439949265834 [Eh]
	 SCS Correlation Energy    =      -1.7224642680328957 [Eh]
	 SCS Total Energy          =    -718.7817734939100092 [Eh]
	-----------------------------------------------------------

*** Psi4 exiting successfully. Buy a developer a beer!
