                               Psi4 1.4a2.dev224

  ==> Input File <==

--------------------------------------------------------------------------
#Generated by lconvert.py for cbs job

memory 40 GB

molecule  {
-1 1
  P       -0.3243770     0.1736180     0.4662050
  O        1.1324400     0.2767040     0.8483000
  O       -0.7747490     1.6669300    -0.0785120
  O       -1.3869290    -0.3260510     1.3845190
  O       -0.3842930    -0.7171170    -0.9239520
  H        0.0554780     2.1449670    -0.1581740
  H        0.5351330    -0.7837440    -1.1966380
--
0 1
  O        0.5965890    -0.7733520     3.5617350
  H        1.1039030    -0.4250200     2.8138130
  H       -0.2741930    -0.7659340     3.1387060
units angstrom
no_reorient
symmetry c1
}

set {
scf_type DF
mp2_type DF
e_convergence 7
reference rhf
}

energy('mp2/aug-cc-pv[tq]z', bsse_type='cp')
--------------------------------------------------------------------------

    Molecular point group: c1
  Charge       = 0
  Multiplicity = 1
  Basis Set: AUG-CC-PVTZ
    Blend: AUG-CC-PVTZ
  Basis Set: (AUG-CC-PVTZ AUX)
    Blend: AUG-CC-PVTZ-JKFIT
  @DF-RHF Final Energy:   -76.05800157885876
    Total Energy =                        -76.0580015788587787
  Basis Set: (AUG-CC-PVTZ AUX)
    Blend: AUG-CC-PVTZ-RI
	 Reference Energy          =     -76.0580015788587644 [Eh]
	 Singles Energy            =      -0.0000000000000000 [Eh]
	 Same-Spin Energy          =      -0.0687243672757960 [Eh]
	 Opposite-Spin Energy      =      -0.2162114887270053 [Eh]
	 Correlation Energy        =      -0.2849358560028013 [Eh]
	 Total Energy              =     -76.3429374348615681 [Eh]
	 SCS Total Energy          =     -76.3403634877564343 [Eh]
    Molecular point group: c1
  Basis Set: AUG-CC-PVQZ
    Blend: AUG-CC-PVQZ
  Basis Set: (AUG-CC-PVQZ AUX)
    Blend: AUG-CC-PVQZ-JKFIT
  @DF-RHF Final Energy:   -76.06334724547146
    Total Energy =                        -76.0633472454714763
  Basis Set: (AUG-CC-PVQZ AUX)
  @DF-RHF Final Energy:   -76.05806372597100
    Total Energy =                        -76.0580637259709960
  @DF-RHF Final Energy:   -76.06337791037311
    Total Energy =                        -76.0633779103731200
  @DF-RHF Final Energy:  -641.67556331936828
    Total Energy =                       -641.6755633193682797
  @DF-RHF Final Energy:  -641.70788333094413
    Total Energy =                       -641.7078833309441279
  @DF-RHF Final Energy:  -641.67535531439603
    Total Energy =                       -641.6753553143960289
  @DF-RHF Final Energy:  -641.70779427493790
    Total Energy =                       -641.7077942749378963
  Multiplicity = 1
  @DF-RHF Final Energy:  -717.75692563154564
    Total Energy =                       -717.7569256315456414
	 Singles Energy            =      -0.0000000000000000 [Eh]
	 Same-Spin Energy          =      -0.4031836011657410 [Eh]
	 Opposite-Spin Energy      =      -1.1476574082362063 [Eh]
	 Correlation Energy        =      -1.5508410094019474 [Eh]
	 Total Energy              =    -719.3077666409475341 [Eh]
	 SCS Total Energy          =    -719.2685090551509575 [Eh]
    Molecular point group: c1

    Geometry (in Angstrom), charge = -1, multiplicity = 1:

       Center              X                  Y                   Z               Mass
    ------------   -----------------  -----------------  -----------------  -----------------
         P           -0.135798749296     0.107672569462    -0.366315273088    30.973761998420
         O            1.321018250704     0.210758569462     0.015779726912    15.994914619570
         O           -0.586170749296     1.600984569462    -0.911032273088    15.994914619570
         O           -1.198350749296    -0.391996430538     0.551998726912    15.994914619570
         O           -0.195714749296    -0.783062430538    -1.756472273088    15.994914619570
         H            0.244056250704     2.079021569462    -0.990694273088     1.007825032230
         H            0.723711250704    -0.849689430538    -2.029158273088     1.007825032230
         O            0.785167250704    -0.839297430538     2.729214726912    15.994914619570
         H            1.292481250704    -0.490965430538     1.981292726912     1.007825032230
         H           -0.085614749296    -0.831879430538     2.306185726912     1.007825032230

  Charge       = -1
  Multiplicity = 1
  Basis Set: AUG-CC-PVQZ
    Blend: AUG-CC-PVQZ
  Basis Set: (AUG-CC-PVQZ AUX)
    Blend: AUG-CC-PVQZ-JKFIT

    Orbital Energies [Eh]
    ---------------------

    Doubly Occupied:

       1A    -79.893991     2A    -20.417188     3A    -20.417173
       4A    -20.372154     5A    -20.334173     6A    -20.323757
       7A     -7.410386     8A     -5.309577     9A     -5.308990
      10A     -5.307430    11A     -1.249300    12A     -1.195650
      13A     -1.162106    14A     -1.122772    15A     -1.093083
      16A     -0.628604    17A     -0.543230    18A     -0.515492
      19A     -0.501711    20A     -0.459854    21A     -0.451137
      22A     -0.420612    23A     -0.385854    24A     -0.375979
      25A     -0.357193    26A     -0.323128    27A     -0.311250
      28A     -0.292336    29A     -0.282227    30A     -0.269966

  @DF-RHF Final Energy:  -717.79463744266172

   => Energetics <=

    Nuclear Repulsion Energy =            350.9855875355186186
    One-Electron Energy =               -1703.4878368120325831
    Two-Electron Energy =                 634.7076118338522974
    Total Energy =                       -717.7946374426617240

  Dipole Moment: [D]
     X:     1.4744      Y:     1.7194      Z:    -4.1678     Total:     4.7435

  Basis Set: (AUG-CC-PVQZ AUX)
    Blend: AUG-CC-PVQZ-RI
	 Reference Energy          =    -717.7946374426617240 [Eh]
	 Singles Energy            =      -0.0000000000000000 [Eh]
	 Same-Spin Energy          =      -0.4277695490185901 [Eh]
	 Opposite-Spin Energy      =      -1.3015227180128013 [Eh]
	 Correlation Energy        =      -1.7292922670313913 [Eh]
	 Total Energy              =    -719.5239297096931068 [Eh]

	 ================> DF-SCS-MP2 Energies <==================
	-----------------------------------------------------------
	 SCS Same-Spin Scale       =       0.3333333333333333 [-]
	 SCS Opposite-Spin Scale   =       1.2000000000000000 [-]
	 SCS Same-Spin Energy      =      -0.1425898496728634 [Eh]
	 SCS Opposite-Spin Energy  =      -1.5618272616153615 [Eh]
	 SCS Correlation Energy    =      -1.7044171112882247 [Eh]
	 SCS Total Energy          =    -719.4990545539499180 [Eh]
	-----------------------------------------------------------

*** Psi4 exiting successfully. Buy a developer a beer!
