                               Psi4 1.4a2.dev224

  ==> Input File <==

--------------------------------------------------------------------------
#Generated by lconvert.py for cbs job

memory 20 GB

molecule  {
-1 1
  P      -0.324380    0.173620    0.466200
  O       1.132440    0.276700    0.848300
  O      -0.774750    1.666930   -0.078510
  O      -1.386930   -0.326050    1.384520
  O      -0.384290   -0.717120   -0.923950
  H       0.055480    2.144970   -0.158170
  H       0.535130   -0.783740   -1.196640
--
0 1
  O       0.588030   -0.983870    4.151390
  H       1.095340   -0.635540    3.403470
  H      -0.282750   -0.976450    3.728360
units angstrom
no_reorient
symmetry c1
}

set {
scf_type DF
mp2_type DF
e_convergence 7
reference rhf
}

energy('mp2/aug-cc-pv[tq]z', bsse_type='cp')
--------------------------------------------------------------------------

    Molecular point group: c1
  Charge       = 0
  Multiplicity = 1
  Basis Set: AUG-CC-PVTZ
    Blend: AUG-CC-PVTZ
  Basis Set: (AUG-CC-PVTZ AUX)
    Blend: AUG-CC-PVTZ-JKFIT
  @DF-RHF Final Energy:   -76.05800172942709
    Total Energy =                        -76.0580017294270760
  Basis Set: (AUG-CC-PVTZ AUX)
    Blend: AUG-CC-PVTZ-RI
	 Reference Energy          =     -76.0580017294270903 [Eh]
	 Singles Energy            =      -0.0000000000000000 [Eh]
	 Same-Spin Energy          =      -0.0687243261549985 [Eh]
	 Opposite-Spin Energy      =      -0.2162113537189064 [Eh]
	 Correlation Energy        =      -0.2849356798739048 [Eh]
	 Total Energy              =     -76.3429374093010011 [Eh]
	 SCS Total Energy          =     -76.3403634626081100 [Eh]
    Molecular point group: c1
  Basis Set: AUG-CC-PVQZ
    Blend: AUG-CC-PVQZ
  Basis Set: (AUG-CC-PVQZ AUX)
    Blend: AUG-CC-PVQZ-JKFIT
  @DF-RHF Final Energy:   -76.06334741072142
    Total Energy =                        -76.0633474107214340
  Basis Set: (AUG-CC-PVQZ AUX)
  @DF-RHF Final Energy:   -76.05803234428427
    Total Energy =                        -76.0580323442842570
  @DF-RHF Final Energy:   -76.06336320307102
    Total Energy =                        -76.0633632030710203
  @DF-RHF Final Energy:  -641.67548670783049
    Total Energy =                       -641.6754867078304869
  @DF-RHF Final Energy:  -641.70784802287301
    Total Energy =                       -641.7078480228730086
  @DF-RHF Final Energy:  -641.67535520591855
    Total Energy =                       -641.6753552059185495
  @DF-RHF Final Energy:  -641.70779413884054
    Total Energy =                       -641.7077941388405407
  Multiplicity = 1
  @DF-RHF Final Energy:  -717.75363178443899
    Total Energy =                       -717.7536317844389941
	 Singles Energy            =      -0.0000000000000000 [Eh]
	 Same-Spin Energy          =      -0.4013127559130232 [Eh]
	 Opposite-Spin Energy      =      -1.1453701074740850 [Eh]
	 Correlation Energy        =      -1.5466828633871081 [Eh]
	 Total Energy              =    -719.3003146478260987 [Eh]
	 SCS Total Energy          =    -719.2618468320455349 [Eh]
    Molecular point group: c1

    Geometry (in Angstrom), charge = -1, multiplicity = 1:

       Center              X                  Y                   Z               Mass
    ------------   -----------------  -----------------  -----------------  -----------------
         P           -0.134460360687     0.140650626621    -0.458684000171    30.973761998420
         O            1.322359639313     0.243730626621    -0.076584000171    15.994914619570
         O           -0.584830360687     1.633960626621    -1.003394000171    15.994914619570
         O           -1.197010360687    -0.359019373379     0.459635999829    15.994914619570
         O           -0.194370360687    -0.750089373379    -1.848834000171    15.994914619570
         H            0.245399639313     2.112000626621    -1.083054000171     1.007825032230
         H            0.725049639313    -0.816709373379    -2.121524000171     1.007825032230
         O            0.777949639313    -1.016839373379     3.226505999829    15.994914619570
         H            1.285259639313    -0.668509373379     2.478585999829     1.007825032230
         H           -0.092830360687    -1.009419373379     2.803475999829     1.007825032230

  Charge       = -1
  Multiplicity = 1
  Basis Set: AUG-CC-PVQZ
    Blend: AUG-CC-PVQZ
  Basis Set: (AUG-CC-PVQZ AUX)
    Blend: AUG-CC-PVQZ-JKFIT

    Orbital Energies [Eh]
    ---------------------

    Doubly Occupied:

       1A    -79.886687     2A    -20.412281     3A    -20.412266
       4A    -20.409391     5A    -20.326397     6A    -20.316553
       7A     -7.402997     8A     -5.302250     9A     -5.301570
      10A     -5.299998    11A     -1.243571    12A     -1.193856
      13A     -1.190824    14A     -1.114843    15A     -1.083477
      16A     -0.622730    17A     -0.540547    18A     -0.538232
      19A     -0.500111    20A     -0.454402    21A     -0.444821
      22A     -0.442561    23A     -0.381535    24A     -0.368634
      25A     -0.355671    26A     -0.352013    27A     -0.308285
      28A     -0.285322    29A     -0.273964    30A     -0.260015

  @DF-RHF Final Energy:  -717.79131620532985

   => Energetics <=

    Nuclear Repulsion Energy =            339.8771583037956248
    One-Electron Energy =               -1681.2853373797358927
    Two-Electron Energy =                 623.6168628706104755
    Total Energy =                       -717.7913162053298493

  Dipole Moment: [D]
     X:     1.5976      Y:     1.4505      Z:    -3.3525     Total:     3.9869

  Basis Set: (AUG-CC-PVQZ AUX)
    Blend: AUG-CC-PVQZ-RI
	 Reference Energy          =    -717.7913162053298493 [Eh]
	 Singles Energy            =      -0.0000000000000000 [Eh]
	 Same-Spin Energy          =      -0.4259612528794697 [Eh]
	 Opposite-Spin Energy      =      -1.2998871891096611 [Eh]
	 Correlation Energy        =      -1.7258484419891307 [Eh]
	 Total Energy              =    -719.5171646473189639 [Eh]

	 ================> DF-SCS-MP2 Energies <==================
	-----------------------------------------------------------
	 SCS Same-Spin Scale       =       0.3333333333333333 [-]
	 SCS Opposite-Spin Scale   =       1.2000000000000000 [-]
	 SCS Same-Spin Energy      =      -0.1419870842931566 [Eh]
	 SCS Opposite-Spin Energy  =      -1.5598646269315932 [Eh]
	 SCS Correlation Energy    =      -1.7018517112247498 [Eh]
	 SCS Total Energy          =    -719.4931679165546257 [Eh]
	-----------------------------------------------------------

*** Psi4 exiting successfully. Buy a developer a beer!
