                               Psi4 1.4a2.dev224

  ==> Input File <==

--------------------------------------------------------------------------
#Generated by lconvert.py for cbs job

memory 20 GB

molecule  {
-1 1
  P      -0.324380    0.173620    0.466200
  O       1.132440    0.276700    0.848300
  O      -0.774750    1.666930   -0.078510
  O      -1.386930   -0.326050    1.384520
  O      -0.384290   -0.717120   -0.923950
  H       0.055480    2.144970   -0.158170
  H       0.535130   -0.783740   -1.196640
--
0 1
  O       0.579470   -1.194380    4.741040
  H       1.086780   -0.846050    3.993120
  H      -0.291320   -1.186970    4.318010
units angstrom
no_reorient
symmetry c1
}

set {
scf_type DF
mp2_type DF
e_convergence 7
reference rhf
}

energy('mp2/aug-cc-pv[tq]z', bsse_type='cp')
--------------------------------------------------------------------------

    Molecular point group: c1
  Charge       = 0
  Multiplicity = 1
  Basis Set: AUG-CC-PVTZ
    Blend: AUG-CC-PVTZ
  Basis Set: (AUG-CC-PVTZ AUX)
    Blend: AUG-CC-PVTZ-JKFIT
  @DF-RHF Final Energy:   -76.05800151573719
    Total Energy =                        -76.0580015157372031
  Basis Set: (AUG-CC-PVTZ AUX)
    Blend: AUG-CC-PVTZ-RI
	 Reference Energy          =     -76.0580015157371889 [Eh]
	 Singles Energy            =      -0.0000000000000000 [Eh]
	 Same-Spin Energy          =      -0.0687243890947201 [Eh]
	 Opposite-Spin Energy      =      -0.2162115617212879 [Eh]
	 Correlation Energy        =      -0.2849359508160080 [Eh]
	 Total Energy              =     -76.3429374665531952 [Eh]
	 SCS Total Energy          =     -76.3403635195009684 [Eh]
    Molecular point group: c1
  Basis Set: AUG-CC-PVQZ
    Blend: AUG-CC-PVQZ
  Basis Set: (AUG-CC-PVQZ AUX)
    Blend: AUG-CC-PVQZ-JKFIT
  @DF-RHF Final Energy:   -76.06334717404539
    Total Energy =                        -76.0633471740453899
  Basis Set: (AUG-CC-PVQZ AUX)
  @DF-RHF Final Energy:   -76.05801632669490
    Total Energy =                        -76.0580163266948830
  @DF-RHF Final Energy:   -76.06335556434708
    Total Energy =                        -76.0633555643470771
  @DF-RHF Final Energy:  -641.67541585758022
    Total Energy =                       -641.6754158575802194
  @DF-RHF Final Energy:  -641.70782549671628
    Total Energy =                       -641.7078254967162820
  @DF-RHF Final Energy:  -641.67535520489389
    Total Energy =                       -641.6753552048938900
  @DF-RHF Final Energy:  -641.70779414138133
    Total Energy =                       -641.7077941413813278
  Multiplicity = 1
  @DF-RHF Final Energy:  -717.74838246838613
    Total Energy =                       -717.7483824683861258
	 Singles Energy            =      -0.0000000000000000 [Eh]
	 Same-Spin Energy          =      -0.4006427449042979 [Eh]
	 Opposite-Spin Energy      =      -1.1443465951817715 [Eh]
	 Correlation Energy        =      -1.5449893400860695 [Eh]
	 Total Energy              =    -719.2933718084722159 [Eh]
	 SCS Total Energy          =    -719.2551459642389773 [Eh]
    Molecular point group: c1

    Geometry (in Angstrom), charge = -1, multiplicity = 1:

       Center              X                  Y                   Z               Mass
    ------------   -----------------  -----------------  -----------------  -----------------
         P           -0.133119423123     0.173625283764    -0.551047569120    30.973761998420
         O            1.323700576877     0.276705283764    -0.168947569120    15.994914619570
         O           -0.583489423123     1.666935283764    -1.095757569120    15.994914619570
         O           -1.195669423123    -0.326044716236     0.367272430880    15.994914619570
         O           -0.193029423123    -0.717114716236    -1.941197569120    15.994914619570
         H            0.246740576877     2.144975283764    -1.175417569120     1.007825032230
         H            0.726390576877    -0.783734716236    -2.213887569120     1.007825032230
         O            0.770730576877    -1.194374716236     3.723792430880    15.994914619570
         H            1.278040576877    -0.846044716236     2.975872430880     1.007825032230
         H           -0.100059423123    -1.186964716236     3.300762430880     1.007825032230

  Charge       = -1
  Multiplicity = 1
  Basis Set: AUG-CC-PVQZ
    Blend: AUG-CC-PVQZ
  Basis Set: (AUG-CC-PVQZ AUX)
    Blend: AUG-CC-PVQZ-JKFIT

    Orbital Energies [Eh]
    ---------------------

    Doubly Occupied:

       1A    -79.882006     2A    -20.433694     3A    -20.409038
       4A    -20.409023     5A    -20.320997     6A    -20.311470
       7A     -7.398311     8A     -5.297591     9A     -5.296873
      10A     -5.295280    11A     -1.239944    12A     -1.217271
      13A     -1.187631    14A     -1.109539    15A     -1.077850
      16A     -0.619027    17A     -0.563591    18A     -0.534937
      19A     -0.496183    20A     -0.465120    21A     -0.450901
      22A     -0.439280    23A     -0.378492    24A     -0.377602
      25A     -0.363419    26A     -0.348890    27A     -0.302945
      28A     -0.280365    29A     -0.268682    30A     -0.254095

  @DF-RHF Final Energy:  -717.78611342122917

   => Energetics <=

    Nuclear Repulsion Energy =            331.5043480467192580
    One-Electron Energy =               -1664.5208264570335359
    Two-Electron Energy =                 615.2303649890850465
    Total Energy =                       -717.7861134212291745

  Dipole Moment: [D]
     X:     1.6676      Y:     1.2236      Z:    -2.6805     Total:     3.3858

  Basis Set: (AUG-CC-PVQZ AUX)
    Blend: AUG-CC-PVQZ-RI
	 Reference Energy          =    -717.7861134212291745 [Eh]
	 Singles Energy            =      -0.0000000000000000 [Eh]
	 Same-Spin Energy          =      -0.4253377216313671 [Eh]
	 Opposite-Spin Energy      =      -1.2993230803791191 [Eh]
	 Correlation Energy        =      -1.7246608020104863 [Eh]
	 Total Energy              =    -719.5107742232396504 [Eh]

	 ================> DF-SCS-MP2 Energies <==================
	-----------------------------------------------------------
	 SCS Same-Spin Scale       =       0.3333333333333333 [-]
	 SCS Opposite-Spin Scale   =       1.2000000000000000 [-]
	 SCS Same-Spin Energy      =      -0.1417792405437890 [Eh]
	 SCS Opposite-Spin Energy  =      -1.5591876964549429 [Eh]
	 SCS Correlation Energy    =      -1.7009669369987319 [Eh]
	 SCS Total Energy          =    -719.4870803582278995 [Eh]
	-----------------------------------------------------------

*** Psi4 exiting successfully. Buy a developer a beer!
