                               Psi4 1.4a2.dev224

  ==> Input File <==

--------------------------------------------------------------------------
#Generated by lconvert.py for cbs job

memory 40 GB

molecule  {
-1 1
  P       -0.3243770     0.1736180     0.4662050
  O        1.1324400     0.2767040     0.8483000
  O       -0.7747490     1.6669300    -0.0785120
  O       -1.3869290    -0.3260510     1.3845190
  O       -0.3842930    -0.7171170    -0.9239520
  H        0.0554780     2.1449670    -0.1581740
  H        0.5351330    -0.7837440    -1.1966380
--
0 1
  O        0.6022960    -0.6330070     3.1686320
  H        1.1096100    -0.2846750     2.4207100
  H       -0.2684860    -0.6255890     2.7456030
units angstrom
no_reorient
symmetry c1
}

set {
scf_type DF
mp2_type DF
e_convergence 7
reference rhf
}

energy('mp2/aug-cc-pv[tq]z', bsse_type='cp')
--------------------------------------------------------------------------

    Molecular point group: c1
  Charge       = 0
  Multiplicity = 1
  Basis Set: AUG-CC-PVTZ
    Blend: AUG-CC-PVTZ
  Basis Set: (AUG-CC-PVTZ AUX)
    Blend: AUG-CC-PVTZ-JKFIT
  @DF-RHF Final Energy:   -76.05800157886266
    Total Energy =                        -76.0580015788626724
  Basis Set: (AUG-CC-PVTZ AUX)
    Blend: AUG-CC-PVTZ-RI
	 Reference Energy          =     -76.0580015788626582 [Eh]
	 Singles Energy            =      -0.0000000000000000 [Eh]
	 Same-Spin Energy          =      -0.0687243672757947 [Eh]
	 Opposite-Spin Energy      =      -0.2162114887270124 [Eh]
	 Correlation Energy        =      -0.2849358560028071 [Eh]
	 Total Energy              =     -76.3429374348654619 [Eh]
	 SCS Total Energy          =     -76.3403634877603423 [Eh]
    Molecular point group: c1
  Basis Set: AUG-CC-PVQZ
    Blend: AUG-CC-PVQZ
  Basis Set: (AUG-CC-PVQZ AUX)
    Blend: AUG-CC-PVQZ-JKFIT
  @DF-RHF Final Energy:   -76.06334724549860
    Total Energy =                        -76.0633472454986048
  Basis Set: (AUG-CC-PVQZ AUX)
  @DF-RHF Final Energy:   -76.05810565034272
    Total Energy =                        -76.0581056503427249
  @DF-RHF Final Energy:   -76.06338931118188
    Total Energy =                        -76.0633893111818793
  @DF-RHF Final Energy:  -641.67566248295236
    Total Energy =                       -641.6756624829523616
  @DF-RHF Final Energy:  -641.70791972603786
    Total Energy =                       -641.7079197260378578
  @DF-RHF Final Energy:  -641.67535531428348
    Total Energy =                       -641.6753553142834789
  @DF-RHF Final Energy:  -641.70779427515583
    Total Energy =                       -641.7077942751558339
  Multiplicity = 1
  @DF-RHF Final Energy:  -717.74476850949145
    Total Energy =                       -717.7447685094914505
	 Singles Energy            =      -0.0000000000000000 [Eh]
	 Same-Spin Energy          =      -0.4059838168204974 [Eh]
	 Opposite-Spin Energy      =      -1.1507531839135936 [Eh]
	 Correlation Energy        =      -1.5567370007340910 [Eh]
	 Total Energy              =    -719.3015055102255246 [Eh]
	 SCS Total Energy          =    -719.2610002691279760 [Eh]
    Molecular point group: c1

    Geometry (in Angstrom), charge = -1, multiplicity = 1:

       Center              X                  Y                   Z               Mass
    ------------   -----------------  -----------------  -----------------  -----------------
         P           -0.136692701451     0.085688739929    -0.304739090531    30.973761998420
         O            1.320124298549     0.188774739929     0.077355909469    15.994914619570
         O           -0.587064701451     1.579000739929    -0.849456090531    15.994914619570
         O           -1.199244701451    -0.413980260071     0.613574909469    15.994914619570
         O           -0.196608701451    -0.805046260071    -1.694896090531    15.994914619570
         H            0.243162298549     2.057037739929    -0.929118090531     1.007825032230
         H            0.722817298549    -0.871673260071    -1.967582090531     1.007825032230
         O            0.789980298549    -0.720936260071     2.397687909469    15.994914619570
         H            1.297294298549    -0.372604260071     1.649765909469     1.007825032230
         H           -0.080801701451    -0.713518260071     1.974658909469     1.007825032230

  Charge       = -1
  Multiplicity = 1
  Basis Set: AUG-CC-PVQZ
    Blend: AUG-CC-PVQZ
  Basis Set: (AUG-CC-PVQZ AUX)
    Blend: AUG-CC-PVQZ-JKFIT

    Orbital Energies [Eh]
    ---------------------

    Doubly Occupied:

       1A    -79.901551     2A    -20.422086     3A    -20.422071
       4A    -20.340161     5A    -20.331619     6A    -20.330270
       7A     -7.418205     8A     -5.317286     9A     -5.316868
      10A     -5.315269    11A     -1.255679    12A     -1.200455
      13A     -1.151355    14A     -1.114959    15A     -1.104811
      16A     -0.634791    17A     -0.548252    18A     -0.523621
      19A     -0.483875    20A     -0.465591    21A     -0.459780
      22A     -0.417424    23A     -0.385152    24A     -0.380480
      25A     -0.362265    26A     -0.309818    27A     -0.297754
      28A     -0.291792    29A     -0.280555    30A     -0.277276

  @DF-RHF Final Energy:  -717.78243032722219

   => Energetics <=

    Nuclear Repulsion Energy =            360.6005682015716616
    One-Electron Energy =               -1722.6438440001675190
    Two-Electron Energy =                 644.2608454713737274
    Total Energy =                       -717.7824303272221869

  Dipole Moment: [D]
     X:     1.3400      Y:     1.9443      Z:    -4.8641     Total:     5.4069

  Basis Set: (AUG-CC-PVQZ AUX)
    Blend: AUG-CC-PVQZ-RI
	 Reference Energy          =    -717.7824303272221869 [Eh]
	 Singles Energy            =      -0.0000000000000000 [Eh]
	 Same-Spin Energy          =      -0.4306025291123433 [Eh]
	 Opposite-Spin Energy      =      -1.3039952164936843 [Eh]
	 Correlation Energy        =      -1.7345977456060275 [Eh]
	 Total Energy              =    -719.5170280728282250 [Eh]

	 ================> DF-SCS-MP2 Energies <==================
	-----------------------------------------------------------
	 SCS Same-Spin Scale       =       0.3333333333333333 [-]
	 SCS Opposite-Spin Scale   =       1.2000000000000000 [-]
	 SCS Same-Spin Energy      =      -0.1435341763707811 [Eh]
	 SCS Opposite-Spin Energy  =      -1.5647942597924211 [Eh]
	 SCS Correlation Energy    =      -1.7083284361632023 [Eh]
	 SCS Total Energy          =    -719.4907587633854291 [Eh]
	-----------------------------------------------------------

*** Psi4 exiting successfully. Buy a developer a beer!
