                               Psi4 1.4a2.dev224

  ==> Input File <==

--------------------------------------------------------------------------
#Generated by lconvert.py for cbs job

memory 40 GB

molecule  {
-1 1
  P       -0.3243770     0.1736180     0.4662050
  O        1.1324400     0.2767040     0.8483000
  O       -0.7747490     1.6669300    -0.0785120
  O       -1.3869290    -0.3260510     1.3845190
  O       -0.3842930    -0.7171170    -0.9239520
  H        0.0554780     2.1449670    -0.1581740
  H        0.5351330    -0.7837440    -1.1966380
--
0 1
  O        0.6051500    -0.5628350     2.9720810
  H        1.1124640    -0.2145030     2.2241590
  H       -0.2656320    -0.5554170     2.5490520
units angstrom
no_reorient
symmetry c1
}

set {
scf_type DF
mp2_type DF
e_convergence 7
reference rhf
}

energy('mp2/aug-cc-pv[tq]z', bsse_type='cp')
--------------------------------------------------------------------------

    Molecular point group: c1
  Charge       = 0
  Multiplicity = 1
  Basis Set: AUG-CC-PVTZ
    Blend: AUG-CC-PVTZ
  Basis Set: (AUG-CC-PVTZ AUX)
    Blend: AUG-CC-PVTZ-JKFIT
  @DF-RHF Final Energy:   -76.05800157884727
    Total Energy =                        -76.0580015788472679
  Basis Set: (AUG-CC-PVTZ AUX)
    Blend: AUG-CC-PVTZ-RI
	 Reference Energy          =     -76.0580015788472679 [Eh]
	 Singles Energy            =      -0.0000000000000000 [Eh]
	 Same-Spin Energy          =      -0.0687243672757945 [Eh]
	 Opposite-Spin Energy      =      -0.2162114887269818 [Eh]
	 Correlation Energy        =      -0.2849358560027763 [Eh]
	 Total Energy              =     -76.3429374348500431 [Eh]
	 SCS Total Energy          =     -76.3403634877449093 [Eh]
    Molecular point group: c1
  Basis Set: AUG-CC-PVQZ
    Blend: AUG-CC-PVQZ
  Basis Set: (AUG-CC-PVQZ AUX)
    Blend: AUG-CC-PVQZ-JKFIT
  @DF-RHF Final Energy:   -76.06334724549639
    Total Energy =                        -76.0633472454964021
  Basis Set: (AUG-CC-PVQZ AUX)
  @DF-RHF Final Energy:   -76.05813613226186
    Total Energy =                        -76.0581361322618648
  @DF-RHF Final Energy:   -76.06339653331247
    Total Energy =                        -76.0633965333124706
  @DF-RHF Final Energy:  -641.67573776797417
    Total Energy =                       -641.6757377679741694
  @DF-RHF Final Energy:  -641.70794506453683
    Total Energy =                       -641.7079450645368297
  @DF-RHF Final Energy:  -641.67535531399903
    Total Energy =                       -641.6753553139990345
  @DF-RHF Final Energy:  -641.70779427635455
    Total Energy =                       -641.7077942763545479
  Multiplicity = 1
  @DF-RHF Final Energy:  -717.72247203807751
    Total Energy =                       -717.7224720380775125
	 Singles Energy            =      -0.0000000000000000 [Eh]
	 Same-Spin Energy          =      -0.4082410760904188 [Eh]
	 Opposite-Spin Energy      =      -1.1529929713751623 [Eh]
	 Correlation Energy        =      -1.5612340474655810 [Eh]
	 Total Energy              =    -719.2837060855431446 [Eh]
	 SCS Total Energy          =    -719.2421439624245068 [Eh]
    Molecular point group: c1

    Geometry (in Angstrom), charge = -1, multiplicity = 1:

       Center              X                  Y                   Z               Mass
    ------------   -----------------  -----------------  -----------------  -----------------
         P           -0.137139755849     0.074696903483    -0.273951077573    30.973761998420
         O            1.319677244151     0.177782903483     0.108143922427    15.994914619570
         O           -0.587511755849     1.568008903483    -0.818668077573    15.994914619570
         O           -1.199691755849    -0.424972096517     0.644362922427    15.994914619570
         O           -0.197055755849    -0.816038096517    -1.664108077573    15.994914619570
         H            0.242715244151     2.046045903483    -0.898330077573     1.007825032230
         H            0.722370244151    -0.882665096517    -1.936794077573     1.007825032230
         O            0.792387244151    -0.661756096517     2.231924922427    15.994914619570
         H            1.299701244151    -0.313424096517     1.484002922427     1.007825032230
         H           -0.078394755849    -0.654338096517     1.808895922427     1.007825032230

  Charge       = -1
  Multiplicity = 1
  Basis Set: AUG-CC-PVQZ
    Blend: AUG-CC-PVQZ
  Basis Set: (AUG-CC-PVQZ AUX)
    Blend: AUG-CC-PVQZ-JKFIT

    Orbital Energies [Eh]
    ---------------------

    Doubly Occupied:

       1A    -79.906828     2A    -20.425360     3A    -20.425345
       4A    -20.342961     5A    -20.334107     6A    -20.302890
       7A     -7.423766     8A     -5.322737     9A     -5.322491
      10A     -5.320815    11A     -1.260730    12A     -1.203651
      13A     -1.162136    14A     -1.114922    15A     -1.095336
      16A     -0.639064    17A     -0.551613    18A     -0.535826
      19A     -0.478401    20A     -0.469667    21A     -0.465481
      22A     -0.421890    23A     -0.385022    24A     -0.381789
      25A     -0.365693    26A     -0.315728    27A     -0.297370
      28A     -0.282679    29A     -0.272646    30A     -0.260026

  @DF-RHF Final Energy:  -717.76006753991362

   => Energetics <=

    Nuclear Repulsion Energy =            366.3113955677418403
    One-Electron Energy =               -1733.9689835010756269
    Two-Electron Energy =                 649.8975203934202227
    Total Energy =                       -717.7600675399136207

  Dipole Moment: [D]
     X:     1.2527      Y:     2.0794      Z:    -5.2854     Total:     5.8163

  Basis Set: (AUG-CC-PVQZ AUX)
    Blend: AUG-CC-PVQZ-RI
	 Reference Energy          =    -717.7600675399136207 [Eh]
	 Singles Energy            =      -0.0000000000000000 [Eh]
	 Same-Spin Energy          =      -0.4329259757753264 [Eh]
	 Opposite-Spin Energy      =      -1.3060916521782318 [Eh]
	 Correlation Energy        =      -1.7390176279535581 [Eh]
	 Total Energy              =    -719.4990851678671788 [Eh]

	 ================> DF-SCS-MP2 Energies <==================
	-----------------------------------------------------------
	 SCS Same-Spin Scale       =       0.3333333333333333 [-]
	 SCS Opposite-Spin Scale   =       1.2000000000000000 [-]
	 SCS Same-Spin Energy      =      -0.1443086585917755 [Eh]
	 SCS Opposite-Spin Energy  =      -1.5673099826138781 [Eh]
	 SCS Correlation Energy    =      -1.7116186412056535 [Eh]
	 SCS Total Energy          =    -719.4716861811192530 [Eh]
	-----------------------------------------------------------

*** Psi4 exiting successfully. Buy a developer a beer!
