                               Psi4 1.4a2.dev224

  ==> Input File <==

--------------------------------------------------------------------------
#Generated by lconvert.py for cbs job

memory 40 GB

molecule  {
-1 1
  P       -0.3243770     0.1736180     0.4662050
  O        1.1324400     0.2767040     0.8483000
  O       -0.7747490     1.6669300    -0.0785120
  O       -1.3869290    -0.3260510     1.3845190
  O       -0.3842930    -0.7171170    -0.9239520
  H        0.0554780     2.1449670    -0.1581740
  H        0.5351330    -0.7837440    -1.1966380
--
0 1
  O        0.5937350    -0.8435240     3.7582860
  H        1.1010490    -0.4951920     3.0103640
  H       -0.2770470    -0.8361060     3.3352570
units angstrom
no_reorient
symmetry c1
}

set {
scf_type DF
mp2_type DF
e_convergence 7
reference rhf
}

energy('mp2/aug-cc-pv[tq]z', bsse_type='cp')
--------------------------------------------------------------------------

    Molecular point group: c1
  Charge       = 0
  Multiplicity = 1
  Basis Set: AUG-CC-PVTZ
    Blend: AUG-CC-PVTZ
  Basis Set: (AUG-CC-PVTZ AUX)
    Blend: AUG-CC-PVTZ-JKFIT
  @DF-RHF Final Energy:   -76.05800157885471
    Total Energy =                        -76.0580015788547286
  Basis Set: (AUG-CC-PVTZ AUX)
    Blend: AUG-CC-PVTZ-RI
	 Reference Energy          =     -76.0580015788547144 [Eh]
	 Singles Energy            =      -0.0000000000000000 [Eh]
	 Same-Spin Energy          =      -0.0687243672757916 [Eh]
	 Opposite-Spin Energy      =      -0.2162114887269605 [Eh]
	 Correlation Energy        =      -0.2849358560027522 [Eh]
	 Total Energy              =     -76.3429374348574612 [Eh]
	 SCS Total Energy          =     -76.3403634877523274 [Eh]
    Molecular point group: c1
  Basis Set: AUG-CC-PVQZ
    Blend: AUG-CC-PVQZ
  Basis Set: (AUG-CC-PVQZ AUX)
    Blend: AUG-CC-PVQZ-JKFIT
  @DF-RHF Final Energy:   -76.06334724547830
    Total Energy =                        -76.0633472454782975
  Basis Set: (AUG-CC-PVQZ AUX)
  @DF-RHF Final Energy:   -76.05804886391569
    Total Energy =                        -76.0580488639156869
  @DF-RHF Final Energy:   -76.06337261505888
    Total Energy =                        -76.0633726150588814
  @DF-RHF Final Energy:  -641.67554482720527
    Total Energy =                       -641.6755448272052718
  @DF-RHF Final Energy:  -641.70787116539020
    Total Energy =                       -641.7078711653902019
  @DF-RHF Final Energy:  -641.67535531376029
    Total Energy =                       -641.6753553137602921
  @DF-RHF Final Energy:  -641.70779427545074
    Total Energy =                       -641.7077942754507376
  Multiplicity = 1
  @DF-RHF Final Energy:  -717.75684320577170
    Total Energy =                       -717.7568432057717018
	 Singles Energy            =      -0.0000000000000000 [Eh]
	 Same-Spin Energy          =      -0.4023442060783954 [Eh]
	 Opposite-Spin Energy      =      -1.1466637223456557 [Eh]
	 Correlation Energy        =      -1.5490079284240510 [Eh]
	 Total Energy              =    -719.3058511341957910 [Eh]
	 SCS Total Energy          =    -719.2669544079459456 [Eh]
    Molecular point group: c1

    Geometry (in Angstrom), charge = -1, multiplicity = 1:

       Center              X                  Y                   Z               Mass
    ------------   -----------------  -----------------  -----------------  -----------------
         P           -0.135351694898     0.118664405908    -0.397103286046    30.973761998420
         O            1.321465305102     0.221750405908    -0.015008286046    15.994914619570
         O           -0.585723694898     1.611976405908    -0.941820286046    15.994914619570
         O           -1.197903694898    -0.381004594092     0.521210713954    15.994914619570
         O           -0.195267694898    -0.772070594092    -1.787260286046    15.994914619570
         H            0.244503305102     2.090013405908    -1.021482286046     1.007825032230
         H            0.724158305102    -0.838697594092    -2.059946286046     1.007825032230
         O            0.782760305102    -0.898477594092     2.894977713954    15.994914619570
         H            1.290074305102    -0.550145594092     2.147055713954     1.007825032230
         H           -0.088021694898    -0.891059594092     2.471948713954     1.007825032230

  Charge       = -1
  Multiplicity = 1
  Basis Set: AUG-CC-PVQZ
    Blend: AUG-CC-PVQZ
  Basis Set: (AUG-CC-PVQZ AUX)
    Blend: AUG-CC-PVQZ-JKFIT

    Orbital Energies [Eh]
    ---------------------

    Doubly Occupied:

       1A    -79.891156     2A    -20.415303     3A    -20.415289
       4A    -20.386771     5A    -20.331335     6A    -20.321065
       7A     -7.407503     8A     -5.306722     9A     -5.306094
      10A     -5.304532    11A     -1.247051    12A     -1.193797
      13A     -1.173567    14A     -1.119973    15A     -1.089189
      16A     -0.626305    17A     -0.541306    18A     -0.521982
      19A     -0.503194    20A     -0.457733    21A     -0.448199
      22A     -0.427483    23A     -0.384716    24A     -0.373342
      25A     -0.355276    26A     -0.335113    27A     -0.311452
      28A     -0.289930    29A     -0.279022    30A     -0.266107

  @DF-RHF Final Energy:  -717.79452805224889

   => Energetics <=

    Nuclear Repulsion Energy =            346.9050124949498013
    One-Electron Energy =               -1695.3380616050478693
    Two-Electron Energy =                 630.6385210578492888
    Total Energy =                       -717.7945280522488929

  Dipole Moment: [D]
     X:     1.5237      Y:     1.6230      Z:    -3.8732     Total:     4.4673

  Basis Set: (AUG-CC-PVQZ AUX)
    Blend: AUG-CC-PVQZ-RI
	 Reference Energy          =    -717.7945280522488929 [Eh]
	 Singles Energy            =      -0.0000000000000000 [Eh]
	 Same-Spin Energy          =      -0.4269477760139236 [Eh]
	 Opposite-Spin Energy      =      -1.3007972150553910 [Eh]
	 Correlation Energy        =      -1.7277449910693146 [Eh]
	 Total Energy              =    -719.5222730433182505 [Eh]

	 ================> DF-SCS-MP2 Energies <==================
	-----------------------------------------------------------
	 SCS Same-Spin Scale       =       0.3333333333333333 [-]
	 SCS Opposite-Spin Scale   =       1.2000000000000000 [-]
	 SCS Same-Spin Energy      =      -0.1423159253379745 [Eh]
	 SCS Opposite-Spin Energy  =      -1.5609566580664691 [Eh]
	 SCS Correlation Energy    =      -1.7032725834044435 [Eh]
	 SCS Total Energy          =    -719.4978006356533342 [Eh]
	-----------------------------------------------------------

*** Psi4 exiting successfully. Buy a developer a beer!
