                               Psi4 1.4a2.dev224

  ==> Input File <==

--------------------------------------------------------------------------
#Generated by lconvert.py for cbs job

memory 40 GB

molecule  {
-1 1
  P       -0.3243770     0.1736180     0.4662050
  O        1.1324400     0.2767040     0.8483000
  O       -0.7747490     1.6669300    -0.0785120
  O       -1.3869290    -0.3260510     1.3845190
  O       -0.3842930    -0.7171170    -0.9239520
  H        0.0554780     2.1449670    -0.1581740
  H        0.5351330    -0.7837440    -1.1966380
--
0 1
  O        0.5980160    -0.7382660     3.4634590
  H        1.1053300    -0.3899340     2.7155370
  H       -0.2727660    -0.7308480     3.0404300
units angstrom
no_reorient
symmetry c1
}

set {
scf_type DF
mp2_type DF
e_convergence 7
reference rhf
}

energy('mp2/aug-cc-pv[tq]z', bsse_type='cp')
--------------------------------------------------------------------------

    Molecular point group: c1
  Charge       = 0
  Multiplicity = 1
  Basis Set: AUG-CC-PVTZ
    Blend: AUG-CC-PVTZ
  Basis Set: (AUG-CC-PVTZ AUX)
    Blend: AUG-CC-PVTZ-JKFIT
  @DF-RHF Final Energy:   -76.05800157884403
    Total Energy =                        -76.0580015788440278
  Basis Set: (AUG-CC-PVTZ AUX)
    Blend: AUG-CC-PVTZ-RI
	 Reference Energy          =     -76.0580015788440278 [Eh]
	 Singles Energy            =      -0.0000000000000000 [Eh]
	 Same-Spin Energy          =      -0.0687243672757873 [Eh]
	 Opposite-Spin Energy      =      -0.2162114887269501 [Eh]
	 Correlation Energy        =      -0.2849358560027374 [Eh]
	 Total Energy              =     -76.3429374348467604 [Eh]
	 SCS Total Energy          =     -76.3403634877416266 [Eh]
    Molecular point group: c1
  Basis Set: AUG-CC-PVQZ
    Blend: AUG-CC-PVQZ
  Basis Set: (AUG-CC-PVQZ AUX)
    Blend: AUG-CC-PVQZ-JKFIT
  @DF-RHF Final Energy:   -76.06334724550521
    Total Energy =                        -76.0633472455052129
  Basis Set: (AUG-CC-PVQZ AUX)
  @DF-RHF Final Energy:   -76.05807301818736
    Total Energy =                        -76.0580730181873577
  @DF-RHF Final Energy:   -76.06338053875601
    Total Energy =                        -76.0633805387560074
  @DF-RHF Final Energy:  -641.67557699411907
    Total Energy =                       -641.6755769941190692
  @DF-RHF Final Energy:  -641.70789000983882
    Total Energy =                       -641.7078900098388203
  @DF-RHF Final Energy:  -641.67535531417184
    Total Energy =                       -641.6753553141718385
  @DF-RHF Final Energy:  -641.70779427621255
    Total Energy =                       -641.7077942762125531
  Multiplicity = 1
  @DF-RHF Final Energy:  -717.75600713549522
    Total Energy =                       -717.7560071354952242
	 Singles Energy            =      -0.0000000000000000 [Eh]
	 Same-Spin Energy          =      -0.4037202868330489 [Eh]
	 Opposite-Spin Energy      =      -1.1482822316748091 [Eh]
	 Correlation Energy        =      -1.5520025185078581 [Eh]
	 Total Energy              =    -719.3080096540030581 [Eh]
	 SCS Total Energy          =    -719.2685192424493152 [Eh]
    Molecular point group: c1

    Geometry (in Angstrom), charge = -1, multiplicity = 1:

       Center              X                  Y                   Z               Mass
    ------------   -----------------  -----------------  -----------------  -----------------
         P           -0.136022276495     0.102176651239    -0.350921188288    30.973761998420
         O            1.320794723505     0.205262651239     0.031173811712    15.994914619570
         O           -0.586394276495     1.595488651239    -0.895638188288    15.994914619570
         O           -1.198574276495    -0.397492348761     0.567392811712    15.994914619570
         O           -0.195938276495    -0.788558348761    -1.741078188288    15.994914619570
         H            0.243832723505     2.073525651239    -0.975300188288     1.007825032230
         H            0.723487723505    -0.855185348761    -2.013764188288     1.007825032230
         O            0.786370723505    -0.809707348761     2.646332811712    15.994914619570
         H            1.293684723505    -0.461375348761     1.898410811712     1.007825032230
         H           -0.084411276495    -0.802289348761     2.223303811712     1.007825032230

  Charge       = -1
  Multiplicity = 1
  Basis Set: AUG-CC-PVQZ
    Blend: AUG-CC-PVQZ
  Basis Set: (AUG-CC-PVQZ AUX)
    Blend: AUG-CC-PVQZ-JKFIT

    Orbital Energies [Eh]
    ---------------------

    Doubly Occupied:

       1A    -79.895609     2A    -20.418252     3A    -20.418237
       4A    -20.363663     5A    -20.335655     6A    -20.325234
       7A     -7.412042     8A     -5.311214     9A     -5.310656
      10A     -5.309093    11A     -1.250609    12A     -1.196695
      13A     -1.156594    14A     -1.123707    15A     -1.095427
      16A     -0.629924    17A     -0.544319    18A     -0.515333
      19A     -0.498200    20A     -0.461070    21A     -0.452893
      22A     -0.418181    23A     -0.386041    24A     -0.377289
      25A     -0.358286    26A     -0.317076    27A     -0.310025
      28A     -0.293077    29A     -0.284020    30A     -0.272036

  @DF-RHF Final Energy:  -717.79372719134426

   => Energetics <=

    Nuclear Repulsion Energy =            353.1933702268709112
    One-Electron Energy =               -1707.8932783802711128
    Two-Electron Energy =                 636.9061809620559416
    Total Energy =                       -717.7937271913442601

  Dipole Moment: [D]
     X:     1.4457      Y:     1.7710      Z:    -4.3268     Total:     4.8936

  Basis Set: (AUG-CC-PVQZ AUX)
    Blend: AUG-CC-PVQZ-RI
	 Reference Energy          =    -717.7937271913442601 [Eh]
	 Singles Energy            =      -0.0000000000000000 [Eh]
	 Same-Spin Energy          =      -0.4283021998890211 [Eh]
	 Opposite-Spin Energy      =      -1.3019854164742997 [Eh]
	 Correlation Energy        =      -1.7302876163633207 [Eh]
	 Total Energy              =    -719.5240148077075446 [Eh]

	 ================> DF-SCS-MP2 Energies <==================
	-----------------------------------------------------------
	 SCS Same-Spin Scale       =       0.3333333333333333 [-]
	 SCS Opposite-Spin Scale   =       1.2000000000000000 [-]
	 SCS Same-Spin Energy      =      -0.1427673999630070 [Eh]
	 SCS Opposite-Spin Energy  =      -1.5623824997691595 [Eh]
	 SCS Correlation Energy    =      -1.7051498997321666 [Eh]
	 SCS Total Energy          =    -719.4988770910764515 [Eh]
	-----------------------------------------------------------

*** Psi4 exiting successfully. Buy a developer a beer!
