                               Psi4 1.4a2.dev224

  ==> Input File <==

--------------------------------------------------------------------------
#Generated by lconvert.py for cbs job

memory 40 GB

molecule  {
-1 1
  P       -0.3243770     0.1736180     0.4662050
  O        1.1324400     0.2767040     0.8483000
  O       -0.7747490     1.6669300    -0.0785120
  O       -1.3869290    -0.3260510     1.3845190
  O       -0.3842930    -0.7171170    -0.9239520
  H        0.0554780     2.1449670    -0.1581740
  H        0.5351330    -0.7837440    -1.1966380
--
0 1
  O        0.5951620    -0.8084380     3.6600110
  H        1.1024760    -0.4601060     2.9120890
  H       -0.2756200    -0.8010200     3.2369820
units angstrom
no_reorient
symmetry c1
}

set {
scf_type DF
mp2_type DF
e_convergence 7
reference rhf
}

energy('mp2/aug-cc-pv[tq]z', bsse_type='cp')
--------------------------------------------------------------------------

    Molecular point group: c1
  Charge       = 0
  Multiplicity = 1
  Basis Set: AUG-CC-PVTZ
    Blend: AUG-CC-PVTZ
  Basis Set: (AUG-CC-PVTZ AUX)
    Blend: AUG-CC-PVTZ-JKFIT
  @DF-RHF Final Energy:   -76.05800157886142
    Total Energy =                        -76.0580015788614219
  Basis Set: (AUG-CC-PVTZ AUX)
    Blend: AUG-CC-PVTZ-RI
	 Reference Energy          =     -76.0580015788614219 [Eh]
	 Singles Energy            =      -0.0000000000000000 [Eh]
	 Same-Spin Energy          =      -0.0687243672758020 [Eh]
	 Opposite-Spin Energy      =      -0.2162114887270195 [Eh]
	 Correlation Energy        =      -0.2849358560028215 [Eh]
	 Total Energy              =     -76.3429374348642398 [Eh]
	 SCS Total Energy          =     -76.3403634877591060 [Eh]
    Molecular point group: c1
  Basis Set: AUG-CC-PVQZ
    Blend: AUG-CC-PVQZ
  Basis Set: (AUG-CC-PVQZ AUX)
    Blend: AUG-CC-PVQZ-JKFIT
  @DF-RHF Final Energy:   -76.06334724549329
    Total Energy =                        -76.0633472454933042
  Basis Set: (AUG-CC-PVQZ AUX)
  @DF-RHF Final Energy:   -76.05805557203989
    Total Energy =                        -76.0580555720398905
  @DF-RHF Final Energy:   -76.06337527154406
    Total Energy =                        -76.0633752715440608
  @DF-RHF Final Energy:  -641.67555413381774
    Total Energy =                       -641.6755541338177409
  @DF-RHF Final Energy:  -641.70787715323797
    Total Energy =                       -641.7078771532379733
  @DF-RHF Final Energy:  -641.67535531342503
    Total Energy =                       -641.6753553134250296
  @DF-RHF Final Energy:  -641.70779427554828
    Total Energy =                       -641.7077942755482809
  Multiplicity = 1
  @DF-RHF Final Energy:  -717.75712482848189
    Total Energy =                       -717.7571248284818921
	 Singles Energy            =      -0.0000000000000000 [Eh]
	 Same-Spin Energy          =      -0.4027291002351951 [Eh]
	 Opposite-Spin Energy      =      -1.1471217769769084 [Eh]
	 Correlation Energy        =      -1.5498508772121036 [Eh]
	 Total Energy              =    -719.3069757056939579 [Eh]
	 SCS Total Energy          =    -719.2679139942658821 [Eh]
    Molecular point group: c1

    Geometry (in Angstrom), charge = -1, multiplicity = 1:

       Center              X                  Y                   Z               Mass
    ------------   -----------------  -----------------  -----------------  -----------------
         P           -0.135575222097     0.113168487685    -0.381709357888    30.973761998420
         O            1.321241777903     0.216254487685     0.000385642112    15.994914619570
         O           -0.585947222097     1.606480487685    -0.926426357888    15.994914619570
         O           -1.198127222097    -0.386500512315     0.536604642112    15.994914619570
         O           -0.195491222097    -0.777566512315    -1.771866357888    15.994914619570
         H            0.244279777903     2.084517487685    -1.006088357888     1.007825032230
         H            0.723934777903    -0.844193512315    -2.044552357888     1.007825032230
         O            0.783963777903    -0.868887512315     2.812096642112    15.994914619570
         H            1.291277777903    -0.520555512315     2.064174642112     1.007825032230
         H           -0.086818222097    -0.861469512315     2.389067642112     1.007825032230

  Charge       = -1
  Multiplicity = 1
  Basis Set: AUG-CC-PVQZ
    Blend: AUG-CC-PVQZ
  Basis Set: (AUG-CC-PVQZ AUX)
    Blend: AUG-CC-PVQZ-JKFIT

    Orbital Energies [Eh]
    ---------------------

    Doubly Occupied:

       1A    -79.892513     2A    -20.416208     3A    -20.416194
       4A    -20.379815     5A    -20.332729     6A    -20.322370
       7A     -7.408880     8A     -5.308086     9A     -5.307477
      10A     -5.305916    11A     -1.248121    12A     -1.194687
      13A     -1.167879    14A     -1.121418    15A     -1.091022
      16A     -0.627402    17A     -0.542229    18A     -0.517933
      19A     -0.503208    20A     -0.458747    21A     -0.449583
      22A     -0.423804    23A     -0.385381    24A     -0.374651
      25A     -0.356193    26A     -0.329239    27A     -0.311635
      28A     -0.291184    29A     -0.280559    30A     -0.267975

  @DF-RHF Final Energy:  -717.79482242926770

   => Energetics <=

    Nuclear Repulsion Energy =            348.8922245633111174
    One-Electron Energy =               -1699.3080052294285451
    Two-Electron Energy =                 632.6209582368496740
    Total Energy =                       -717.7948224292676969

  Dipole Moment: [D]
     X:     1.5003      Y:     1.6701      Z:    -4.0170     Total:     4.6018

  Basis Set: (AUG-CC-PVQZ AUX)
    Blend: AUG-CC-PVQZ-RI
	 Reference Energy          =    -717.7948224292676969 [Eh]
	 Singles Energy            =      -0.0000000000000000 [Eh]
	 Same-Spin Energy          =      -0.4273228087241167 [Eh]
	 Opposite-Spin Energy      =      -1.3011308242627464 [Eh]
	 Correlation Energy        =      -1.7284536329868629 [Eh]
	 Total Energy              =    -719.5232760622545811 [Eh]

	 ================> DF-SCS-MP2 Energies <==================
	-----------------------------------------------------------
	 SCS Same-Spin Scale       =       0.3333333333333333 [-]
	 SCS Opposite-Spin Scale   =       1.2000000000000000 [-]
	 SCS Same-Spin Energy      =      -0.1424409362413722 [Eh]
	 SCS Opposite-Spin Energy  =      -1.5613569891152956 [Eh]
	 SCS Correlation Energy    =      -1.7037979253566680 [Eh]
	 SCS Total Energy          =    -719.4986203546243360 [Eh]
	-----------------------------------------------------------

*** Psi4 exiting successfully. Buy a developer a beer!
