                               Psi4 1.4a2.dev224

  ==> Input File <==

--------------------------------------------------------------------------
#Generated by lconvert.py for cbs job

memory 40 GB

molecule  {
-1 1
  P       -0.3243770     0.1736180     0.4662050
  O        1.1324400     0.2767040     0.8483000
  O       -0.7747490     1.6669300    -0.0785120
  O       -1.3869290    -0.3260510     1.3845190
  O       -0.3842930    -0.7171170    -0.9239520
  H        0.0554780     2.1449670    -0.1581740
  H        0.5351330    -0.7837440    -1.1966380
--
0 1
  O        0.5994430    -0.7031800     3.3651840
  H        1.1067570    -0.3548480     2.6172620
  H       -0.2713390    -0.6957620     2.9421550
units angstrom
no_reorient
symmetry c1
}

set {
scf_type DF
mp2_type DF
e_convergence 7
reference rhf
}

energy('mp2/aug-cc-pv[tq]z', bsse_type='cp')
--------------------------------------------------------------------------

    Molecular point group: c1
  Charge       = 0
  Multiplicity = 1
  Basis Set: AUG-CC-PVTZ
    Blend: AUG-CC-PVTZ
  Basis Set: (AUG-CC-PVTZ AUX)
    Blend: AUG-CC-PVTZ-JKFIT
  @DF-RHF Final Energy:   -76.05800157884990
    Total Energy =                        -76.0580015788498969
  Basis Set: (AUG-CC-PVTZ AUX)
    Blend: AUG-CC-PVTZ-RI
	 Reference Energy          =     -76.0580015788498969 [Eh]
	 Singles Energy            =      -0.0000000000000000 [Eh]
	 Same-Spin Energy          =      -0.0687243672757956 [Eh]
	 Opposite-Spin Energy      =      -0.2162114887269804 [Eh]
	 Correlation Energy        =      -0.2849358560027760 [Eh]
	 Total Energy              =     -76.3429374348526721 [Eh]
	 SCS Total Energy          =     -76.3403634877475383 [Eh]
    Molecular point group: c1
  Basis Set: AUG-CC-PVQZ
    Blend: AUG-CC-PVQZ
  Basis Set: (AUG-CC-PVQZ AUX)
    Blend: AUG-CC-PVQZ-JKFIT
  @DF-RHF Final Energy:   -76.06334724547146
    Total Energy =                        -76.0633472454714763
  Basis Set: (AUG-CC-PVQZ AUX)
  @DF-RHF Final Energy:   -76.05808304426074
    Total Energy =                        -76.0580830442607407
  @DF-RHF Final Energy:   -76.06338323385407
    Total Energy =                        -76.0633832338540685
  @DF-RHF Final Energy:  -641.67559885189712
    Total Energy =                       -641.6755988518971208
  @DF-RHF Final Energy:  -641.70789810124325
    Total Energy =                       -641.7078981012432450
  @DF-RHF Final Energy:  -641.67535531354463
    Total Energy =                       -641.6753553135446282
  @DF-RHF Final Energy:  -641.70779427458615
    Total Energy =                       -641.7077942745861492
  Multiplicity = 1
  @DF-RHF Final Energy:  -717.75402999969663
    Total Energy =                       -717.7540299996966269
	 Singles Energy            =      -0.0000000000000000 [Eh]
	 Same-Spin Energy          =      -0.4043538650961507 [Eh]
	 Opposite-Spin Energy      =      -1.1490036896303457 [Eh]
	 Correlation Energy        =      -1.5533575547264964 [Eh]
	 Total Energy              =    -719.3073875544231441 [Eh]
	 SCS Total Energy          =    -719.2676190489518149 [Eh]
    Molecular point group: c1

    Geometry (in Angstrom), charge = -1, multiplicity = 1:

       Center              X                  Y                   Z               Mass
    ------------   -----------------  -----------------  -----------------  -----------------
         P           -0.136245803694     0.096680733016    -0.335527260130    30.973761998420
         O            1.320571196306     0.199766733016     0.046567739870    15.994914619570
         O           -0.586617803694     1.589992733016    -0.880244260130    15.994914619570
         O           -1.198797803694    -0.402988266984     0.582786739870    15.994914619570
         O           -0.196161803694    -0.794054266984    -1.725684260130    15.994914619570
         H            0.243609196306     2.068029733016    -0.959906260130     1.007825032230
         H            0.723264196306    -0.860681266984    -1.998370260130     1.007825032230
         O            0.787574196306    -0.780117266984     2.563451739870    15.994914619570
         H            1.294888196306    -0.431785266984     1.815529739870     1.007825032230
         H           -0.083207803694    -0.772699266984     2.140422739870     1.007825032230

  Charge       = -1
  Multiplicity = 1
  Basis Set: AUG-CC-PVQZ
    Blend: AUG-CC-PVQZ
  Basis Set: (AUG-CC-PVQZ AUX)
    Blend: AUG-CC-PVQZ-JKFIT

    Orbital Energies [Eh]
    ---------------------

    Doubly Occupied:

       1A    -79.897388     2A    -20.419412     3A    -20.419398
       4A    -20.354193     5A    -20.337160     6A    -20.326809
       7A     -7.413873     8A     -5.313022     9A     -5.312499
      10A     -5.310931    11A     -1.252078    12A     -1.197835
      13A     -1.152158    14A     -1.123450    15A     -1.098119
      16A     -0.631381    17A     -0.545508    18A     -0.516912
      19A     -0.493486    20A     -0.462414    21A     -0.454893
      22A     -0.416774    23A     -0.385904    24A     -0.378525
      25A     -0.359484    26A     -0.311966    27A     -0.307615
      28A     -0.292613    29A     -0.285834    30A     -0.274091

  @DF-RHF Final Energy:  -717.79174521214225

   => Energetics <=

    Nuclear Repulsion Energy =            355.5247399236273509
    One-Electron Energy =               -1712.5415120897334873
    Two-Electron Energy =                 639.2250269539639476
    Total Energy =                       -717.7917452121422457

  Dipole Moment: [D]
     X:     1.4139      Y:     1.8255      Z:    -4.4949     Total:     5.0533

  Basis Set: (AUG-CC-PVQZ AUX)
    Blend: AUG-CC-PVQZ-RI
	 Reference Energy          =    -717.7917452121422457 [Eh]
	 Singles Energy            =      -0.0000000000000000 [Eh]
	 Same-Spin Energy          =      -0.4289380830684825 [Eh]
	 Opposite-Spin Energy      =      -1.3025358400944385 [Eh]
	 Correlation Energy        =      -1.7314739231629210 [Eh]
	 Total Energy              =    -719.5232191353051121 [Eh]

	 ================> DF-SCS-MP2 Energies <==================
	-----------------------------------------------------------
	 SCS Same-Spin Scale       =       0.3333333333333333 [-]
	 SCS Opposite-Spin Scale   =       1.2000000000000000 [-]
	 SCS Same-Spin Energy      =      -0.1429793610228275 [Eh]
	 SCS Opposite-Spin Energy  =      -1.5630430081133262 [Eh]
	 SCS Correlation Energy    =      -1.7060223691361536 [Eh]
	 SCS Total Energy          =    -719.4977675812783673 [Eh]
	-----------------------------------------------------------

*** Psi4 exiting successfully. Buy a developer a beer!
