                               Psi4 1.4a2.dev224

  ==> Input File <==

--------------------------------------------------------------------------
#Generated by lconvert.py for cbs job

memory 20 GB

molecule  {
-1 1
  P      -0.324380    0.173620    0.466200
  O       1.132440    0.276700    0.848300
  O      -0.774750    1.666930   -0.078510
  O      -1.386930   -0.326050    1.384520
  O      -0.384290   -0.717120   -0.923950
  H       0.055480    2.144970   -0.158170
  H       0.535130   -0.783740   -1.196640
--
0 1
  O       0.570900   -1.404900    5.330690
  H       1.078220   -1.056570    4.582770
  H      -0.299880   -1.397480    4.907660
units angstrom
no_reorient
symmetry c1
}

set {
scf_type DF
mp2_type DF
e_convergence 7
reference rhf
}

energy('mp2/aug-cc-pv[tq]z', bsse_type='cp')
--------------------------------------------------------------------------

    Molecular point group: c1
  Charge       = 0
  Multiplicity = 1
  Basis Set: AUG-CC-PVTZ
    Blend: AUG-CC-PVTZ
  Basis Set: (AUG-CC-PVTZ AUX)
    Blend: AUG-CC-PVTZ-JKFIT
  @DF-RHF Final Energy:   -76.05800169813200
    Total Energy =                        -76.0580016981320171
  Basis Set: (AUG-CC-PVTZ AUX)
    Blend: AUG-CC-PVTZ-RI
	 Reference Energy          =     -76.0580016981320028 [Eh]
	 Singles Energy            =      -0.0000000000000000 [Eh]
	 Same-Spin Energy          =      -0.0687243547766405 [Eh]
	 Opposite-Spin Energy      =      -0.2162114579887682 [Eh]
	 Correlation Energy        =      -0.2849358127654087 [Eh]
	 Total Energy              =     -76.3429375108974142 [Eh]
	 SCS Total Energy          =     -76.3403635659773983 [Eh]
    Molecular point group: c1
  Basis Set: AUG-CC-PVQZ
    Blend: AUG-CC-PVQZ
  Basis Set: (AUG-CC-PVQZ AUX)
    Blend: AUG-CC-PVQZ-JKFIT
  @DF-RHF Final Energy:   -76.06334736564790
    Total Energy =                        -76.0633473656478998
  Basis Set: (AUG-CC-PVQZ AUX)
  @DF-RHF Final Energy:   -76.05800970551844
    Total Energy =                        -76.0580097055184439
  @DF-RHF Final Energy:   -76.06335189787184
    Total Energy =                        -76.0633518978718541
  @DF-RHF Final Energy:  -641.67539090862249
    Total Energy =                       -641.6753909086224894
  @DF-RHF Final Energy:  -641.70781178014306
    Total Energy =                       -641.7078117801430608
  @DF-RHF Final Energy:  -641.67535520513798
    Total Energy =                       -641.6753552051379756
  @DF-RHF Final Energy:  -641.70779414077572
    Total Energy =                       -641.7077941407757180
  Multiplicity = 1
  @DF-RHF Final Energy:  -717.74465356401288
    Total Energy =                       -717.7446535640128786
	 Singles Energy            =      -0.0000000000000000 [Eh]
	 Same-Spin Energy          =      -0.4004146796212469 [Eh]
	 Opposite-Spin Energy      =      -1.1440227625930497 [Eh]
	 Correlation Energy        =      -1.5444374422142966 [Eh]
	 Total Energy              =    -719.2890910062271814 [Eh]
	 SCS Total Energy          =    -719.2509524389982971 [Eh]
    Molecular point group: c1

    Geometry (in Angstrom), charge = -1, multiplicity = 1:

       Center              X                  Y                   Z               Mass
    ------------   -----------------  -----------------  -----------------  -----------------
         P           -0.131777182104     0.206601332014    -0.643411138070    30.973761998420
         O            1.325042817896     0.309681332014    -0.261311138070    15.994914619570
         O           -0.582147182104     1.699911332014    -1.188121138070    15.994914619570
         O           -1.194327182104    -0.293068667986     0.274908861930    15.994914619570
         O           -0.191687182104    -0.684138667986    -2.033561138070    15.994914619570
         H            0.248082817896     2.177951332014    -1.267781138070     1.007825032230
         H            0.727732817896    -0.750758667986    -2.306251138070     1.007825032230
         O            0.763502817896    -1.371918667986     4.221078861930    15.994914619570
         H            1.270822817896    -1.023588667986     3.473158861930     1.007825032230
         H           -0.107277182104    -1.364498667986     3.798048861930     1.007825032230

  Charge       = -1
  Multiplicity = 1
  Basis Set: AUG-CC-PVQZ
    Blend: AUG-CC-PVQZ
  Basis Set: (AUG-CC-PVQZ AUX)
    Blend: AUG-CC-PVQZ-JKFIT

    Orbital Energies [Eh]
    ---------------------

    Doubly Occupied:

       1A    -79.878887     2A    -20.451506     3A    -20.406819
       4A    -20.406804     5A    -20.317463     6A    -20.307906
       7A     -7.395198     8A     -5.294493     9A     -5.293756
      10A     -5.292147    11A     -1.237506    12A     -1.234842
      13A     -1.185442    14A     -1.106104    15A     -1.074217
      16A     -0.616548    17A     -0.581001    18A     -0.532680
      19A     -0.493582    20A     -0.481853    21A     -0.448540
      22A     -0.436404    23A     -0.395624    24A     -0.374922
      25A     -0.359924    26A     -0.346659    27A     -0.299167
      28A     -0.277114    29A     -0.265150    30A     -0.250402

  @DF-RHF Final Energy:  -717.78240805444443

   => Energetics <=

    Nuclear Repulsion Energy =            324.9979827895668905
    One-Electron Energy =               -1651.4754564002473671
    Two-Electron Energy =                 608.6950655562361590
    Total Energy =                       -717.7824080544444314

  Dipole Moment: [D]
     X:     1.7073      Y:     1.0197      Z:    -2.0873     Total:     2.8830

  Basis Set: (AUG-CC-PVQZ AUX)
    Blend: AUG-CC-PVQZ-RI
	 Reference Energy          =    -717.7824080544444314 [Eh]
	 Singles Energy            =      -0.0000000000000000 [Eh]
	 Same-Spin Energy          =      -0.4251164272890796 [Eh]
	 Opposite-Spin Energy      =      -1.2991533362507579 [Eh]
	 Correlation Energy        =      -1.7242697635398376 [Eh]
	 Total Energy              =    -719.5066778179842686 [Eh]

	 ================> DF-SCS-MP2 Energies <==================
	-----------------------------------------------------------
	 SCS Same-Spin Scale       =       0.3333333333333333 [-]
	 SCS Opposite-Spin Scale   =       1.2000000000000000 [-]
	 SCS Same-Spin Energy      =      -0.1417054757630265 [Eh]
	 SCS Opposite-Spin Energy  =      -1.5589840035009095 [Eh]
	 SCS Correlation Energy    =      -1.7006894792639360 [Eh]
	 SCS Total Energy          =    -719.4830975337083601 [Eh]
	-----------------------------------------------------------

*** Psi4 exiting successfully. Buy a developer a beer!
