                               Psi4 1.4a2.dev224

  ==> Input File <==

--------------------------------------------------------------------------
#Generated by lconvert.py for cbs job

memory 40 GB

molecule  {
0 1
  P       -0.3304560     0.1646340     0.2641460
  O        1.2077810     0.0802390     0.6534290
  O       -0.4096900     1.4981440    -0.6141910
  O       -1.2567170     0.0483500     1.4080310
  O       -0.5969430    -0.9367150    -0.8511770
  H       -0.2733620     2.2851210    -0.0760630
  H        0.0513860    -0.9020020    -1.5627540
  H        1.2875480    -0.3318580     1.5452470
--
0 1
  O        0.7442350    -0.9857800     2.9999530
  H        0.9041130    -0.6705870     3.8909450
  H       -0.1592050    -0.7003140     2.7825600
units angstrom
no_reorient
symmetry c1
}

set {
scf_type DF
mp2_type DF
e_convergence 7
reference rhf
}

energy('mp2/aug-cc-pv[tq]z', bsse_type='cp')
--------------------------------------------------------------------------

    Molecular point group: c1
  Charge       = 0
  Multiplicity = 1
  Basis Set: AUG-CC-PVTZ
    Blend: AUG-CC-PVTZ
  Basis Set: (AUG-CC-PVTZ AUX)
    Blend: AUG-CC-PVTZ-JKFIT
  @DF-RHF Final Energy:   -76.05988926379524
    Total Energy =                        -76.0598892637952417
  Basis Set: (AUG-CC-PVTZ AUX)
    Blend: AUG-CC-PVTZ-RI
	 Reference Energy          =     -76.0598892637952417 [Eh]
	 Singles Energy            =      -0.0000000000000000 [Eh]
	 Same-Spin Energy          =      -0.0684574851053344 [Eh]
	 Opposite-Spin Energy      =      -0.2155279693147270 [Eh]
	 Correlation Energy        =      -0.2839854544200614 [Eh]
	 Total Energy              =     -76.3438747182153037 [Eh]
	 SCS Total Energy          =     -76.3413419886746851 [Eh]
    Molecular point group: c1
  Basis Set: AUG-CC-PVQZ
    Blend: AUG-CC-PVQZ
  Basis Set: (AUG-CC-PVQZ AUX)
    Blend: AUG-CC-PVQZ-JKFIT
  @DF-RHF Final Energy:   -76.06524122232510
    Total Energy =                        -76.0652412223250849
  Basis Set: (AUG-CC-PVQZ AUX)
  @DF-RHF Final Energy:   -76.06002559433776
    Total Energy =                        -76.0600255943377590
  @DF-RHF Final Energy:   -76.06529459059232
    Total Energy =                        -76.0652945905923161
  @DF-RHF Final Energy:  -642.21942418625895
    Total Energy =                       -642.2194241862589479
  @DF-RHF Final Energy:  -642.25223198291974
    Total Energy =                       -642.2522319829197386
  @DF-RHF Final Energy:  -642.21920173286230
    Total Energy =                       -642.2192017328623024
  @DF-RHF Final Energy:  -642.25214430819221
    Total Energy =                       -642.2521443081922143
  Multiplicity = 1
  @DF-RHF Final Energy:  -718.29489827893167
    Total Energy =                       -718.2948982789316688
	 Singles Energy            =      -0.0000000000000000 [Eh]
	 Same-Spin Energy          =      -0.3972706589880405 [Eh]
	 Opposite-Spin Energy      =      -1.1418724785444754 [Eh]
	 Correlation Energy        =      -1.5391431375325160 [Eh]
	 Total Energy              =    -719.8340414164641743 [Eh]
	 SCS Total Energy          =    -719.7975688061810615 [Eh]
    Molecular point group: c1

    Geometry (in Angstrom), charge = 0, multiplicity = 1:

       Center              X                  Y                   Z               Mass
    ------------   -----------------  -----------------  -----------------  -----------------
         P           -0.215007492471     0.164233049744    -0.359468407306    30.973761998420
         O            1.323229507529     0.079838049744     0.029814592694    15.994914619570
         O           -0.294241492471     1.497743049744    -1.237805407306    15.994914619570
         O           -1.141268492471     0.047949049744     0.784416592694    15.994914619570
         O           -0.481494492471    -0.937115950256    -1.474791407306    15.994914619570
         H           -0.157913492471     2.284720049744    -0.699677407306     1.007825032230
         H            0.166834507529    -0.902402950256    -2.186368407306     1.007825032230
         H            1.402996507529    -0.332258950256     0.921632592694     1.007825032230
         O            0.859683507529    -0.986180950256     2.376338592694    15.994914619570
         H            1.019561507529    -0.670987950256     3.267330592694     1.007825032230
         H           -0.043756492471    -0.700714950256     2.158945592694     1.007825032230

  Charge       = 0
  Multiplicity = 1
  Basis Set: AUG-CC-PVQZ
    Blend: AUG-CC-PVQZ
  Basis Set: (AUG-CC-PVQZ AUX)
    Blend: AUG-CC-PVQZ-JKFIT

    Orbital Energies [Eh]
    ---------------------

    Doubly Occupied:

       1A    -80.107648     2A    -20.611650     3A    -20.607285
       4A    -20.590250     5A    -20.578159     6A    -20.523047
       7A     -7.624214     8A     -5.523206     9A     -5.522859
      10A     -5.521714    11A     -1.464252    12A     -1.393225
      13A     -1.390518    14A     -1.365324    15A     -1.310155
      16A     -0.863510    17A     -0.775247    18A     -0.758190
      19A     -0.740760    20A     -0.680750    21A     -0.653353
      22A     -0.615672    23A     -0.604513    24A     -0.593997
      25A     -0.578520    26A     -0.562907    27A     -0.532235
      28A     -0.524679    29A     -0.487541    30A     -0.482460

  @DF-RHF Final Energy:  -718.33309204795239

   => Energetics <=

    Nuclear Repulsion Energy =            370.9324097950243413
    One-Electron Energy =               -1731.3553187757659089
    Two-Electron Energy =                 642.0898169327891765
    Total Energy =                       -718.3330920479523911

  Dipole Moment: [D]
     X:     2.1973      Y:     1.8046      Z:     0.2563     Total:     2.8549

  Basis Set: (AUG-CC-PVQZ AUX)
    Blend: AUG-CC-PVQZ-RI
	 Reference Energy          =    -718.3330920479523911 [Eh]
	 Singles Energy            =      -0.0000000000000000 [Eh]
	 Same-Spin Energy          =      -0.4216143841915139 [Eh]
	 Opposite-Spin Energy      =      -1.2942017381920454 [Eh]
	 Correlation Energy        =      -1.7158161223835593 [Eh]
	 Total Energy              =    -720.0489081703359489 [Eh]

	 ================> DF-SCS-MP2 Energies <==================
	-----------------------------------------------------------
	 SCS Same-Spin Scale       =       0.3333333333333333 [-]
	 SCS Opposite-Spin Scale   =       1.2000000000000000 [-]
	 SCS Same-Spin Energy      =      -0.1405381280638379 [Eh]
	 SCS Opposite-Spin Energy  =      -1.5530420858304546 [Eh]
	 SCS Correlation Energy    =      -1.6935802138942926 [Eh]
	 SCS Total Energy          =    -720.0266722618466702 [Eh]
	-----------------------------------------------------------

*** Psi4 exiting successfully. Buy a developer a beer!
