                               Psi4 1.4a2.dev224

  ==> Input File <==

--------------------------------------------------------------------------
#Generated by lconvert.py for cbs job

memory 40 GB

molecule  {
0 1
  P       -0.3304560     0.1646340     0.2641460
  O        1.2077810     0.0802390     0.6534290
  O       -0.4096900     1.4981440    -0.6141910
  O       -1.2567170     0.0483500     1.4080310
  O       -0.5969430    -0.9367150    -0.8511770
  H       -0.2733620     2.2851210    -0.0760630
  H        0.0513860    -0.9020020    -1.5627540
  H        1.2875480    -0.3318580     1.5452470
--
0 1
  O        0.7156400    -1.0201970     3.0765160
  H        0.8755180    -0.7050040     3.9675080
  H       -0.1878000    -0.7347310     2.8591230
units angstrom
no_reorient
symmetry c1
}

set {
scf_type DF
mp2_type DF
e_convergence 7
reference rhf
}

energy('mp2/aug-cc-pv[tq]z', bsse_type='cp')
--------------------------------------------------------------------------

    Molecular point group: c1
  Charge       = 0
  Multiplicity = 1
  Basis Set: AUG-CC-PVTZ
    Blend: AUG-CC-PVTZ
  Basis Set: (AUG-CC-PVTZ AUX)
    Blend: AUG-CC-PVTZ-JKFIT
  @DF-RHF Final Energy:   -76.05988926379335
    Total Energy =                        -76.0598892637933659
  Basis Set: (AUG-CC-PVTZ AUX)
    Blend: AUG-CC-PVTZ-RI
	 Reference Energy          =     -76.0598892637933517 [Eh]
	 Singles Energy            =      -0.0000000000000000 [Eh]
	 Same-Spin Energy          =      -0.0684574851053094 [Eh]
	 Opposite-Spin Energy      =      -0.2155279693146629 [Eh]
	 Correlation Energy        =      -0.2839854544199723 [Eh]
	 Total Energy              =     -76.3438747182133284 [Eh]
	 SCS Total Energy          =     -76.3413419886727240 [Eh]
    Molecular point group: c1
  Basis Set: AUG-CC-PVQZ
    Blend: AUG-CC-PVQZ
  Basis Set: (AUG-CC-PVQZ AUX)
    Blend: AUG-CC-PVQZ-JKFIT
  @DF-RHF Final Energy:   -76.06524122232798
    Total Energy =                        -76.0652412223279839
  Basis Set: (AUG-CC-PVQZ AUX)
  @DF-RHF Final Energy:   -76.06001382482982
    Total Energy =                        -76.0600138248298094
  @DF-RHF Final Energy:   -76.06529094311493
    Total Energy =                        -76.0652909431149453
  @DF-RHF Final Energy:  -642.21940551733985
    Total Energy =                       -642.2194055173398510
  @DF-RHF Final Energy:  -642.25222596369520
    Total Energy =                       -642.2522259636951958
  @DF-RHF Final Energy:  -642.21920173352430
    Total Energy =                       -642.2192017335243008
  @DF-RHF Final Energy:  -642.25214430824678
    Total Energy =                       -642.2521443082467840
  Multiplicity = 1
  @DF-RHF Final Energy:  -718.29597251639666
    Total Energy =                       -718.2959725163966596
	 Singles Energy            =      -0.0000000000000000 [Eh]
	 Same-Spin Energy          =      -0.3966859134450229 [Eh]
	 Opposite-Spin Energy      =      -1.1413257582076324 [Eh]
	 Correlation Energy        =      -1.5380116716526553 [Eh]
	 Total Energy              =    -719.8339841880492713 [Eh]
	 SCS Total Energy          =    -719.7977920640607863 [Eh]
    Molecular point group: c1

    Geometry (in Angstrom), charge = 0, multiplicity = 1:

       Center              X                  Y                   Z               Mass
    ------------   -----------------  -----------------  -----------------  -----------------
         P           -0.210567253018     0.169577330957    -0.371357130974    30.973761998420
         O            1.327669746982     0.085182330957     0.017925869026    15.994914619570
         O           -0.289801253018     1.503087330957    -1.249694130974    15.994914619570
         O           -1.136828253018     0.053293330957     0.772527869026    15.994914619570
         O           -0.477054253018    -0.931771669043    -1.486680130974    15.994914619570
         H           -0.153473253018     2.290064330957    -0.711566130974     1.007825032230
         H            0.171274746982    -0.897058669043    -2.198257130974     1.007825032230
         H            1.407436746982    -0.326914669043     0.909743869026     1.007825032230
         O            0.835528746982    -1.015253669043     2.441012869026    15.994914619570
         H            0.995406746982    -0.700060669043     3.332004869026     1.007825032230
         H           -0.067911253018    -0.729787669043     2.223619869026     1.007825032230

  Charge       = 0
  Multiplicity = 1
  Basis Set: AUG-CC-PVQZ
    Blend: AUG-CC-PVQZ
  Basis Set: (AUG-CC-PVQZ AUX)
    Blend: AUG-CC-PVQZ-JKFIT

    Orbital Energies [Eh]
    ---------------------

    Doubly Occupied:

       1A    -80.108109     2A    -20.612193     3A    -20.607795
       4A    -20.594642     5A    -20.576137     6A    -20.522034
       7A     -7.624653     8A     -5.523639     9A     -5.523316
      10A     -5.522128    11A     -1.464938    12A     -1.393701
      13A     -1.389761    14A     -1.363958    15A     -1.308785
      16A     -0.863984    17A     -0.774834    18A     -0.758043
      19A     -0.736771    20A     -0.680251    21A     -0.654344
      22A     -0.615976    23A     -0.602390    24A     -0.593963
      25A     -0.579339    26A     -0.563187    27A     -0.533734
      28A     -0.523798    29A     -0.486481    30A     -0.481578

  @DF-RHF Final Energy:  -718.33418669444029

   => Energetics <=

    Nuclear Repulsion Energy =            369.1421772340153211
    One-Electron Energy =               -1727.7838046157189638
    Two-Electron Energy =                 640.3074406872632380
    Total Energy =                       -718.3341866944402909

  Dipole Moment: [D]
     X:     2.2102      Y:     1.8268      Z:     0.1884     Total:     2.8736

  Basis Set: (AUG-CC-PVQZ AUX)
    Blend: AUG-CC-PVQZ-RI
	 Reference Energy          =    -718.3341866944402909 [Eh]
	 Singles Energy            =      -0.0000000000000000 [Eh]
	 Same-Spin Energy          =      -0.4210206302641699 [Eh]
	 Opposite-Spin Energy      =      -1.2937482080686975 [Eh]
	 Correlation Energy        =      -1.7147688383328674 [Eh]
	 Total Energy              =    -720.0489555327731068 [Eh]

	 ================> DF-SCS-MP2 Energies <==================
	-----------------------------------------------------------
	 SCS Same-Spin Scale       =       0.3333333333333333 [-]
	 SCS Opposite-Spin Scale   =       1.2000000000000000 [-]
	 SCS Same-Spin Energy      =      -0.1403402100880566 [Eh]
	 SCS Opposite-Spin Energy  =      -1.5524978496824369 [Eh]
	 SCS Correlation Energy    =      -1.6928380597704935 [Eh]
	 SCS Total Energy          =    -720.0270247542107427 [Eh]
	-----------------------------------------------------------

*** Psi4 exiting successfully. Buy a developer a beer!
