                               Psi4 1.4a2.dev224

  ==> Input File <==

--------------------------------------------------------------------------
#Generated by lconvert.py for cbs job

memory 40 GB

molecule  {
0 1
  P       -0.3304560     0.1646340     0.2641460
  O        1.2077810     0.0802390     0.6534290
  O       -0.4096900     1.4981440    -0.6141910
  O       -1.2567170     0.0483500     1.4080310
  O       -0.5969430    -0.9367150    -0.8511770
  H       -0.2733620     2.2851210    -0.0760630
  H        0.0513860    -0.9020020    -1.5627540
  H        1.2875480    -0.3318580     1.5452470
--
0 1
  O        0.6870450    -1.0546140     3.1530790
  H        0.8469230    -0.7394210     4.0440710
  H       -0.2163950    -0.7691480     2.9356860
units angstrom
no_reorient
symmetry c1
}

set {
scf_type DF
mp2_type DF
e_convergence 7
reference rhf
}

energy('mp2/aug-cc-pv[tq]z', bsse_type='cp')
--------------------------------------------------------------------------

    Molecular point group: c1
  Charge       = 0
  Multiplicity = 1
  Basis Set: AUG-CC-PVTZ
    Blend: AUG-CC-PVTZ
  Basis Set: (AUG-CC-PVTZ AUX)
    Blend: AUG-CC-PVTZ-JKFIT
  @DF-RHF Final Energy:   -76.05988926379304
    Total Energy =                        -76.0598892637930533
  Basis Set: (AUG-CC-PVTZ AUX)
    Blend: AUG-CC-PVTZ-RI
	 Reference Energy          =     -76.0598892637930390 [Eh]
	 Singles Energy            =      -0.0000000000000000 [Eh]
	 Same-Spin Energy          =      -0.0684574851053339 [Eh]
	 Opposite-Spin Energy      =      -0.2155279693147701 [Eh]
	 Correlation Energy        =      -0.2839854544201040 [Eh]
	 Total Energy              =     -76.3438747182131436 [Eh]
	 SCS Total Energy          =     -76.3413419886725393 [Eh]
    Molecular point group: c1
  Basis Set: AUG-CC-PVQZ
    Blend: AUG-CC-PVQZ
  Basis Set: (AUG-CC-PVQZ AUX)
    Blend: AUG-CC-PVQZ-JKFIT
  @DF-RHF Final Energy:   -76.06524122231582
    Total Energy =                        -76.0652412223158194
  Basis Set: (AUG-CC-PVQZ AUX)
  @DF-RHF Final Energy:   -76.06000231420354
    Total Energy =                        -76.0600023142035440
  @DF-RHF Final Energy:   -76.06528734111134
    Total Energy =                        -76.0652873411113291
  @DF-RHF Final Energy:  -642.21938914993336
    Total Energy =                       -642.2193891499333631
  @DF-RHF Final Energy:  -642.25222033606690
    Total Energy =                       -642.2522203360668982
  @DF-RHF Final Energy:  -642.21920173301100
    Total Energy =                       -642.2192017330110048
  @DF-RHF Final Energy:  -642.25214430952008
    Total Energy =                       -642.2521443095200766
  Multiplicity = 1
  @DF-RHF Final Energy:  -718.29630735948422
    Total Energy =                       -718.2963073594842172
	 Singles Energy            =      -0.0000000000000000 [Eh]
	 Same-Spin Energy          =      -0.3961716730925530 [Eh]
	 Opposite-Spin Energy      =      -1.1408368986916131 [Eh]
	 Correlation Energy        =      -1.5370085717841659 [Eh]
	 Total Energy              =    -719.8333159312684302 [Eh]
	 SCS Total Energy          =    -719.7973688622782902 [Eh]
    Molecular point group: c1

    Geometry (in Angstrom), charge = 0, multiplicity = 1:

       Center              X                  Y                   Z               Mass
    ------------   -----------------  -----------------  -----------------  -----------------
         P           -0.206127013564     0.174921612169    -0.383245854642    30.973761998420
         O            1.332109986436     0.090526612169     0.006037145358    15.994914619570
         O           -0.285361013564     1.508431612169    -1.261582854642    15.994914619570
         O           -1.132388013564     0.058637612169     0.760639145358    15.994914619570
         O           -0.472614013564    -0.926427387831    -1.498568854642    15.994914619570
         H           -0.149033013564     2.295408612169    -0.723454854642     1.007825032230
         H            0.175714986436    -0.891714387831    -2.210145854642     1.007825032230
         H            1.411876986436    -0.321570387831     0.897855145358     1.007825032230
         O            0.811373986436    -1.044326387831     2.505687145358    15.994914619570
         H            0.971251986436    -0.729133387831     3.396679145358     1.007825032230
         H           -0.092066013564    -0.758860387831     2.288294145358     1.007825032230

  Charge       = 0
  Multiplicity = 1
  Basis Set: AUG-CC-PVQZ
    Blend: AUG-CC-PVQZ
  Basis Set: (AUG-CC-PVQZ AUX)
    Blend: AUG-CC-PVQZ-JKFIT

    Orbital Energies [Eh]
    ---------------------

    Doubly Occupied:

       1A    -80.108435     2A    -20.612608     3A    -20.608199
       4A    -20.598308     5A    -20.574344     6A    -20.521113
       7A     -7.624964     8A     -5.523945     9A     -5.523645
      10A     -5.522415    11A     -1.465562    12A     -1.394080
      13A     -1.390085    14A     -1.361886    15A     -1.307542
      16A     -0.864425    17A     -0.774790    18A     -0.758205
      19A     -0.732987    20A     -0.679895    21A     -0.655315
      22A     -0.616461    23A     -0.600079    24A     -0.593980
      25A     -0.580006    26A     -0.563326    27A     -0.535132
      28A     -0.522505    29A     -0.485470    30A     -0.480667

  @DF-RHF Final Energy:  -718.33453503531064

   => Energetics <=

    Nuclear Repulsion Energy =            367.4168590622466013
    One-Electron Energy =               -1724.3420319039148580
    Two-Electron Energy =                 638.5906378063575630
    Total Energy =                       -718.3345350353106369

  Dipole Moment: [D]
     X:     2.2232      Y:     1.8450      Z:     0.1323     Total:     2.8920

  Basis Set: (AUG-CC-PVQZ AUX)
    Blend: AUG-CC-PVQZ-RI
	 Reference Energy          =    -718.3345350353106369 [Eh]
	 Singles Energy            =      -0.0000000000000000 [Eh]
	 Same-Spin Energy          =      -0.4205018899518579 [Eh]
	 Opposite-Spin Energy      =      -1.2933573102886613 [Eh]
	 Correlation Energy        =      -1.7138592002405191 [Eh]
	 Total Energy              =    -720.0483942355511999 [Eh]

	 ================> DF-SCS-MP2 Energies <==================
	-----------------------------------------------------------
	 SCS Same-Spin Scale       =       0.3333333333333333 [-]
	 SCS Opposite-Spin Scale   =       1.2000000000000000 [-]
	 SCS Same-Spin Energy      =      -0.1401672966506193 [Eh]
	 SCS Opposite-Spin Energy  =      -1.5520287723463935 [Eh]
	 SCS Correlation Energy    =      -1.6921960689970128 [Eh]
	 SCS Total Energy          =    -720.0267311043076006 [Eh]
	-----------------------------------------------------------

*** Psi4 exiting successfully. Buy a developer a beer!
