                               Psi4 1.4a2.dev224

  ==> Input File <==

--------------------------------------------------------------------------
#Generated by lconvert.py for cbs job

memory 40 GB

molecule  {
0 1
  P       -0.3304560     0.1646340     0.2641460
  O        1.2077810     0.0802390     0.6534290
  O       -0.4096900     1.4981440    -0.6141910
  O       -1.2567170     0.0483500     1.4080310
  O       -0.5969430    -0.9367150    -0.8511770
  H       -0.2733620     2.2851210    -0.0760630
  H        0.0513860    -0.9020020    -1.5627540
  H        1.2875480    -0.3318580     1.5452470
--
0 1
  O        0.8872120    -0.8136950     2.6171350
  H        1.0470900    -0.4985020     3.5081270
  H       -0.0162280    -0.5282290     2.3997420
units angstrom
no_reorient
symmetry c1
}

set {
scf_type DF
mp2_type DF
e_convergence 7
reference rhf
}

energy('mp2/aug-cc-pv[tq]z', bsse_type='cp')
--------------------------------------------------------------------------

    Molecular point group: c1
  Charge       = 0
  Multiplicity = 1
  Basis Set: AUG-CC-PVTZ
    Blend: AUG-CC-PVTZ
  Basis Set: (AUG-CC-PVTZ AUX)
    Blend: AUG-CC-PVTZ-JKFIT
  @DF-RHF Final Energy:   -76.05988926379283
    Total Energy =                        -76.0598892637928259
  Basis Set: (AUG-CC-PVTZ AUX)
    Blend: AUG-CC-PVTZ-RI
	 Reference Energy          =     -76.0598892637928259 [Eh]
	 Singles Energy            =      -0.0000000000000000 [Eh]
	 Same-Spin Energy          =      -0.0684574851053218 [Eh]
	 Opposite-Spin Energy      =      -0.2155279693146838 [Eh]
	 Correlation Energy        =      -0.2839854544200056 [Eh]
	 Total Energy              =     -76.3438747182128310 [Eh]
	 SCS Total Energy          =     -76.3413419886722266 [Eh]
    Molecular point group: c1
  Basis Set: AUG-CC-PVQZ
    Blend: AUG-CC-PVQZ
  Basis Set: (AUG-CC-PVQZ AUX)
    Blend: AUG-CC-PVQZ-JKFIT
  @DF-RHF Final Energy:   -76.06524122231775
    Total Energy =                        -76.0652412223177663
  Basis Set: (AUG-CC-PVQZ AUX)
  @DF-RHF Final Energy:   -76.06010159689036
    Total Energy =                        -76.0601015968903624
  @DF-RHF Final Energy:   -76.06531548090267
    Total Energy =                        -76.0653154809026688
  @DF-RHF Final Energy:  -642.21955301376681
    Total Energy =                       -642.2195530137668129
  @DF-RHF Final Energy:  -642.25227151552576
    Total Energy =                       -642.2522715155257629
  @DF-RHF Final Energy:  -642.21920173232650
    Total Energy =                       -642.2192017323264963
  @DF-RHF Final Energy:  -642.25214430818755
    Total Energy =                       -642.2521443081875532
  @DF-RHF Final Energy:  -718.26112553238750
    Total Energy =                       -718.2611255323874957
  @DF-RHF Final Energy:  -718.29927164564060
    Total Energy =                       -718.2992716456406015
*** Psi4 exiting successfully. Buy a developer a beer!
                               Psi4 1.4a2.dev224
  @DF-RHF Final Energy:   -76.05988926379851
    Total Energy =                        -76.0598892637985102
  @DF-RHF Final Energy:   -76.06524122234867
    Total Energy =                        -76.0652412223486749
  @DF-RHF Final Energy:   -76.06007000936940
    Total Energy =                        -76.0600700093694115
  @DF-RHF Final Energy:   -76.06530486584361
    Total Energy =                        -76.0653048658436148
  @DF-RHF Final Energy:  -642.21949532417864
    Total Energy =                       -642.2194953241786379
  @DF-RHF Final Energy:  -642.25225365524489
    Total Energy =                       -642.2522536552448855
  @DF-RHF Final Energy:  -642.21920173257934
    Total Energy =                       -642.2192017325793358
  @DF-RHF Final Energy:  -642.25214430898552
    Total Energy =                       -642.2521443089855211
  @DF-RHF Final Energy:  -718.28324754209166
    Total Energy =                       -718.2832475420916580
  @DF-RHF Final Energy:  -718.32138118940225
    Total Energy =                       -718.3213811894022456
*** Psi4 exiting successfully. Buy a developer a beer!
                               Psi4 1.4a2.dev224
                               Psi4 1.4a2.dev224
                               Psi4 1.4a2.dev224
                               Psi4 1.4a2.dev224
                               Psi4 1.4a2.dev224
                               Psi4 1.4a2.dev224
                               Psi4 1.4a2.dev224
  @DF-RHF Final Energy:   -76.05988918482863
    Total Energy =                        -76.0598891848286200
  @DF-RHF Final Energy:   -76.06524114268235
    Total Energy =                        -76.0652411426823534
  @DF-RHF Final Energy:   -76.05993922837008
    Total Energy =                        -76.0599392283700979
  @DF-RHF Final Energy:   -76.06526230311522
    Total Energy =                        -76.0652623031152189
  @DF-RHF Final Energy:  -642.21928013574654
    Total Energy =                       -642.2192801357465441
  @DF-RHF Final Energy:  -642.25217536908508
    Total Energy =                       -642.2521753690850801
  @DF-RHF Final Energy:  -642.21920201515911
    Total Energy =                       -642.2192020151591123
  @DF-RHF Final Energy:  -642.25214465330544
    Total Energy =                       -642.2521446533054359
  @DF-RHF Final Energy:  -718.28797564467914
    Total Energy =                       -718.2879756446791362
  @DF-RHF Final Energy:  -718.32618294404415
    Total Energy =                       -718.3261829440441488
*** Psi4 exiting successfully. Buy a developer a beer!
                               Psi4 1.4a2.dev224
  @DF-RHF Final Energy:   -76.05988950281406
    Total Energy =                        -76.0598895028140589
  @DF-RHF Final Energy:   -76.06524147343409
    Total Energy =                        -76.0652414734340709
  @DF-RHF Final Energy:   -76.05990918861886
    Total Energy =                        -76.0599091886188603
  @DF-RHF Final Energy:   -76.06525260194886
    Total Energy =                        -76.0652526019488562
  @DF-RHF Final Energy:  -642.21924337153575
    Total Energy =                       -642.2192433715357538
  @DF-RHF Final Energy:  -642.25216441698524
    Total Energy =                       -642.2521644169852379
  @DF-RHF Final Energy:  -642.21920201582691
    Total Energy =                       -642.2192020158269088
  @DF-RHF Final Energy:  -642.25214465387126
    Total Energy =                       -642.2521446538712553
  Multiplicity = 1
  @DF-RHF Final Energy:  -718.28441567506809
    Total Energy =                       -718.2844156750680895
	 Singles Energy            =      -0.0000000000000000 [Eh]
	 Same-Spin Energy          =      -0.3930832280466335 [Eh]
	 Opposite-Spin Energy      =      -1.1375594917997665 [Eh]
	 Correlation Energy        =      -1.5306427198464001 [Eh]
	 Total Energy              =    -719.8150583949144448 [Eh]
	 SCS Total Energy          =    -719.7805148079099808 [Eh]
    Molecular point group: c1

    Geometry (in Angstrom), charge = 0, multiplicity = 1:

       Center              X                  Y                   Z               Mass
    ------------   -----------------  -----------------  -----------------  -----------------
         P           -0.130645823668     0.265770806203    -0.585352597745    30.973761998420
         O            1.407594176332     0.181380806203    -0.196072597745    15.994914619570
         O           -0.209875823668     1.599280806203    -1.463692597745    15.994914619570
         O           -1.056905823668     0.149490806203     0.558527402255    15.994914619570
         O           -0.397125823668    -0.835569193797    -1.700682597745    15.994914619570
         H           -0.073545823668     2.386260806203    -0.925562597745     1.007825032230
         H            0.251204176332    -0.800859193797    -2.412252597745     1.007825032230
         H            1.487364176332    -0.230719193797     0.695747402255     1.007825032230
         O            0.400744176332    -1.538559193797     3.605157402255    15.994914619570
         H            0.560624176332    -1.223369193797     4.496147402255     1.007825032230
         H           -0.502695823668    -1.253099193797     3.387767402255     1.007825032230

  Charge       = 0
  Multiplicity = 1
  Basis Set: AUG-CC-PVQZ
    Blend: AUG-CC-PVQZ
  Basis Set: (AUG-CC-PVQZ AUX)
    Blend: AUG-CC-PVQZ-JKFIT

    Orbital Energies [Eh]
    ---------------------

    Doubly Occupied:

       1A    -80.108108     2A    -20.616809     3A    -20.613485
       4A    -20.609645     5A    -20.561539     6A    -20.513856
       7A     -7.624744     8A     -5.523674     9A     -5.523536
      10A     -5.521997    11A     -1.469299    12A     -1.398813
      13A     -1.395145    14A     -1.344133    15A     -1.298183
      16A     -0.867227    17A     -0.777950    18A     -0.761244
      19A     -0.710716    20A     -0.680002    21A     -0.661788
      22A     -0.619958    23A     -0.595420    24A     -0.582604
      25A     -0.579042    26A     -0.560857    27A     -0.542112
      28A     -0.506376    29A     -0.476788    30A     -0.471782

  @DF-RHF Final Energy:  -718.32266581706097

   => Energetics <=

    Nuclear Repulsion Energy =            345.5486293632934576
    One-Electron Energy =               -1680.7089210885694683
    Two-Electron Energy =                 616.8376259082150455
    Total Energy =                       -718.3226658170609653

  Dipole Moment: [D]
     X:     2.3343      Y:     1.9302      Z:    -0.1149     Total:     3.0311

  Basis Set: (AUG-CC-PVQZ AUX)
    Blend: AUG-CC-PVQZ-RI
	 Reference Energy          =    -718.3226658170609653 [Eh]
	 Singles Energy            =      -0.0000000000000000 [Eh]
	 Same-Spin Energy          =      -0.4174824907805487 [Eh]
	 Opposite-Spin Energy      =      -1.2910969589489834 [Eh]
	 Correlation Energy        =      -1.7085794497295321 [Eh]
	 Total Energy              =    -720.0312452667905063 [Eh]

	 ================> DF-SCS-MP2 Energies <==================
	-----------------------------------------------------------
	 SCS Same-Spin Scale       =       0.3333333333333333 [-]
	 SCS Opposite-Spin Scale   =       1.2000000000000000 [-]
	 SCS Same-Spin Energy      =      -0.1391608302601829 [Eh]
	 SCS Opposite-Spin Energy  =      -1.5493163507387799 [Eh]
	 SCS Correlation Energy    =      -1.6884771809989627 [Eh]
	 SCS Total Energy          =    -720.0111429980598814 [Eh]
	-----------------------------------------------------------

*** Psi4 exiting successfully. Buy a developer a beer!
