                               Psi4 1.4a2.dev224

  ==> Input File <==

--------------------------------------------------------------------------
#Generated by lconvert.py for cbs job

memory 40 GB

molecule  {
0 1
  P       -0.3304560     0.1646340     0.2641460
  O        1.2077810     0.0802390     0.6534290
  O       -0.4096900     1.4981440    -0.6141910
  O       -1.2567170     0.0483500     1.4080310
  O       -0.5969430    -0.9367150    -0.8511770
  H       -0.2733620     2.2851210    -0.0760630
  H        0.0513860    -0.9020020    -1.5627540
  H        1.2875480    -0.3318580     1.5452470
--
0 1
  O        0.7728310    -0.9513630     2.9233890
  H        0.9327090    -0.6361700     3.8143810
  H       -0.1306090    -0.6658970     2.7059960
units angstrom
no_reorient
symmetry c1
}

set {
scf_type DF
mp2_type DF
e_convergence 7
reference rhf
}

energy('mp2/aug-cc-pv[tq]z', bsse_type='cp')
--------------------------------------------------------------------------

    Molecular point group: c1
  Charge       = 0
  Multiplicity = 1
  Basis Set: AUG-CC-PVTZ
    Blend: AUG-CC-PVTZ
  Basis Set: (AUG-CC-PVTZ AUX)
    Blend: AUG-CC-PVTZ-JKFIT
  @DF-RHF Final Energy:   -76.05988926378868
    Total Energy =                        -76.0598892637886763
  Basis Set: (AUG-CC-PVTZ AUX)
    Blend: AUG-CC-PVTZ-RI
	 Reference Energy          =     -76.0598892637886763 [Eh]
	 Singles Energy            =      -0.0000000000000000 [Eh]
	 Same-Spin Energy          =      -0.0684574851053211 [Eh]
	 Opposite-Spin Energy      =      -0.2155279693147234 [Eh]
	 Correlation Energy        =      -0.2839854544200445 [Eh]
	 Total Energy              =     -76.3438747182087241 [Eh]
	 SCS Total Energy          =     -76.3413419886681197 [Eh]
    Molecular point group: c1
  Basis Set: AUG-CC-PVQZ
    Blend: AUG-CC-PVQZ
  Basis Set: (AUG-CC-PVQZ AUX)
    Blend: AUG-CC-PVQZ-JKFIT
  @DF-RHF Final Energy:   -76.06524122233643
    Total Energy =                        -76.0652412223364252
  Basis Set: (AUG-CC-PVQZ AUX)
  @DF-RHF Final Energy:   -76.06003806801355
    Total Energy =                        -76.0600380680135402
  @DF-RHF Final Energy:   -76.06529761855344
    Total Energy =                        -76.0652976185534442
  @DF-RHF Final Energy:  -642.21944527920573
    Total Energy =                       -642.2194452792057291
  @DF-RHF Final Energy:  -642.25223851946441
    Total Energy =                       -642.2522385194644130
  @DF-RHF Final Energy:  -642.21920173312810
    Total Energy =                       -642.2192017331281022
  @DF-RHF Final Energy:  -642.25214430907363
    Total Energy =                       -642.2521443090736284
  Multiplicity = 1
  @DF-RHF Final Energy:  -718.29275398615187
    Total Energy =                       -718.2927539861518653
	 Singles Energy            =      -0.0000000000000000 [Eh]
	 Same-Spin Energy          =      -0.3979326048745103 [Eh]
	 Opposite-Spin Energy      =      -1.1424775299160648 [Eh]
	 Correlation Energy        =      -1.5404101347905752 [Eh]
	 Total Energy              =    -719.8331641209424561 [Eh]
	 SCS Total Energy          =    -719.7963712236760330 [Eh]
    Molecular point group: c1

    Geometry (in Angstrom), charge = 0, multiplicity = 1:

       Center              X                  Y                   Z               Mass
    ------------   -----------------  -----------------  -----------------  -----------------
         P           -0.219447887205     0.158888768532    -0.347579528359    30.973761998420
         O            1.318789112795     0.074493768532     0.041703471641    15.994914619570
         O           -0.298681887205     1.492398768532    -1.225916528359    15.994914619570
         O           -1.145708887205     0.042604768532     0.796305471641    15.994914619570
         O           -0.485934887205    -0.942460231468    -1.462902528359    15.994914619570
         H           -0.162353887205     2.279375768532    -0.687788528359     1.007825032230
         H            0.162394112795    -0.907747231468    -2.174479528359     1.007825032230
         H            1.398556112795    -0.337603231468     0.933521471641     1.007825032230
         O            0.883839112795    -0.957108231468     2.311663471641    15.994914619570
         H            1.043717112795    -0.641915231468     3.202655471641     1.007825032230
         H           -0.019600887205    -0.671642231468     2.094270471641     1.007825032230

  Charge       = 0
  Multiplicity = 1
  Basis Set: AUG-CC-PVQZ
    Blend: AUG-CC-PVQZ
  Basis Set: (AUG-CC-PVQZ AUX)
    Blend: AUG-CC-PVQZ-JKFIT

    Orbital Energies [Eh]
    ---------------------

    Doubly Occupied:

       1A    -80.107018     2A    -20.610953     3A    -20.606647
       4A    -20.585003     5A    -20.580453     6A    -20.524157
       7A     -7.623618     8A     -5.522614     9A     -5.522243
      10A     -5.521142    11A     -1.463532    12A     -1.393352
      13A     -1.392421    14A     -1.365309    15A     -1.311658
      16A     -0.863028    17A     -0.776415    18A     -0.758858
      19A     -0.744622    20A     -0.681414    21A     -0.652414
      22A     -0.615857    23A     -0.605980    24A     -0.594212
      25A     -0.577521    26A     -0.562438    27A     -0.530888
      28A     -0.524671    29A     -0.488627    30A     -0.483271

  @DF-RHF Final Energy:  -718.33092391519335

   => Energetics <=

    Nuclear Repulsion Energy =            372.7916039538404220
    One-Electron Energy =               -1735.0643786646694480
    Two-Electron Energy =                 643.9418507956356734
    Total Energy =                       -718.3309239151933525

  Dipole Moment: [D]
     X:     2.1850      Y:     1.7778      Z:     0.3381     Total:     2.8371

  Basis Set: (AUG-CC-PVQZ AUX)
    Blend: AUG-CC-PVQZ-RI
	 Reference Energy          =    -718.3309239151933525 [Eh]
	 Singles Energy            =      -0.0000000000000000 [Eh]
	 Same-Spin Energy          =      -0.4222902406069262 [Eh]
	 Opposite-Spin Energy      =      -1.2947257907577485 [Eh]
	 Correlation Energy        =      -1.7170160313646747 [Eh]
	 Total Energy              =    -720.0479399465580173 [Eh]

	 ================> DF-SCS-MP2 Energies <==================
	-----------------------------------------------------------
	 SCS Same-Spin Scale       =       0.3333333333333333 [-]
	 SCS Opposite-Spin Scale   =       1.2000000000000000 [-]
	 SCS Same-Spin Energy      =      -0.1407634135356420 [Eh]
	 SCS Opposite-Spin Energy  =      -1.5536709489092981 [Eh]
	 SCS Correlation Energy    =      -1.6944343624449401 [Eh]
	 SCS Total Energy          =    -720.0253582776382473 [Eh]
	-----------------------------------------------------------

*** Psi4 exiting successfully. Buy a developer a beer!
