                               Psi4 1.4a2.dev224

  ==> Input File <==

--------------------------------------------------------------------------
#Generated by lconvert.py for cbs job

memory 40 GB

molecule  {
0 1
  P       -0.3304560     0.1646340     0.2641460
  O        1.2077810     0.0802390     0.6534290
  O       -0.4096900     1.4981440    -0.6141910
  O       -1.2567170     0.0483500     1.4080310
  O       -0.5969430    -0.9367150    -0.8511770
  H       -0.2733620     2.2851210    -0.0760630
  H        0.0513860    -0.9020020    -1.5627540
  H        1.2875480    -0.3318580     1.5452470
--
0 1
  O        0.8872120    -0.8136950     2.6171350
  H        1.0470900    -0.4985020     3.5081270
  H       -0.0162280    -0.5282290     2.3997420
units angstrom
no_reorient
symmetry c1
}

set {
scf_type DF
mp2_type DF
e_convergence 7
reference rhf
}

energy('mp2/aug-cc-pv[tq]z', bsse_type='cp')
--------------------------------------------------------------------------

    Molecular point group: c1
  Charge       = 0
  Multiplicity = 1
  Basis Set: AUG-CC-PVTZ
    Blend: AUG-CC-PVTZ
  Basis Set: (AUG-CC-PVTZ AUX)
    Blend: AUG-CC-PVTZ-JKFIT
  @DF-RHF Final Energy:   -76.05988926379283
    Total Energy =                        -76.0598892637928259
  Basis Set: (AUG-CC-PVTZ AUX)
    Blend: AUG-CC-PVTZ-RI
	 Reference Energy          =     -76.0598892637928259 [Eh]
	 Singles Energy            =      -0.0000000000000000 [Eh]
	 Same-Spin Energy          =      -0.0684574851053218 [Eh]
	 Opposite-Spin Energy      =      -0.2155279693146838 [Eh]
	 Correlation Energy        =      -0.2839854544200056 [Eh]
	 Total Energy              =     -76.3438747182128310 [Eh]
	 SCS Total Energy          =     -76.3413419886722266 [Eh]
    Molecular point group: c1
  Basis Set: AUG-CC-PVQZ
    Blend: AUG-CC-PVQZ
  Basis Set: (AUG-CC-PVQZ AUX)
    Blend: AUG-CC-PVQZ-JKFIT
  @DF-RHF Final Energy:   -76.06524122231775
    Total Energy =                        -76.0652412223177663
  Basis Set: (AUG-CC-PVQZ AUX)
  @DF-RHF Final Energy:   -76.06010159689036
    Total Energy =                        -76.0601015968903624
  @DF-RHF Final Energy:   -76.06531548090267
    Total Energy =                        -76.0653154809026688
  @DF-RHF Final Energy:  -642.21955301376681
    Total Energy =                       -642.2195530137668129
  @DF-RHF Final Energy:  -642.25227151552576
    Total Energy =                       -642.2522715155257629
  @DF-RHF Final Energy:  -642.21920173232650
    Total Energy =                       -642.2192017323264963
  @DF-RHF Final Energy:  -642.25214430818755
    Total Energy =                       -642.2521443081875532
  Multiplicity = 1
  @DF-RHF Final Energy:  -718.26112553238750
    Total Energy =                       -718.2611255323874957
	 Singles Energy            =      -0.0000000000000000 [Eh]
	 Same-Spin Energy          =      -0.4014291723232811 [Eh]
	 Opposite-Spin Energy      =      -1.1455074417956850 [Eh]
	 Correlation Energy        =      -1.5469366141189660 [Eh]
	 Total Energy              =    -719.8080621465064723 [Eh]
	 SCS Total Energy          =    -719.7695441866500232 [Eh]
    Molecular point group: c1

    Geometry (in Angstrom), charge = 0, multiplicity = 1:

       Center              X                  Y                   Z               Mass
    ------------   -----------------  -----------------  -----------------  -----------------
         P           -0.237209000299     0.137511643682    -0.300024323128    30.973761998420
         O            1.301027999701     0.053116643682     0.089258676872    15.994914619570
         O           -0.316443000299     1.471021643682    -1.178361323128    15.994914619570
         O           -1.163470000299     0.021227643682     0.843860676872    15.994914619570
         O           -0.503696000299    -0.963837356318    -1.415347323128    15.994914619570
         H           -0.180115000299     2.257998643682    -0.640233323128     1.007825032230
         H            0.144632999701    -0.929124356318    -2.126924323128     1.007825032230
         H            1.380794999701    -0.358980356318     0.981076676872     1.007825032230
         O            0.980458999701    -0.840817356318     2.052964676872    15.994914619570
         H            1.140336999701    -0.525624356318     2.943956676872     1.007825032230
         H            0.077018999701    -0.555351356318     1.835571676872     1.007825032230

  Charge       = 0
  Multiplicity = 1
  Basis Set: AUG-CC-PVQZ
    Blend: AUG-CC-PVQZ
  Basis Set: (AUG-CC-PVQZ AUX)
    Blend: AUG-CC-PVQZ-JKFIT

    Orbital Energies [Eh]
    ---------------------

    Doubly Occupied:

       1A    -80.102047     2A    -20.605936     3A    -20.602311
       4A    -20.593183     5A    -20.552731     6A    -20.529620
       7A     -7.618942     8A     -5.517959     9A     -5.517531
      10A     -5.516507    11A     -1.464670    12A     -1.426018
      13A     -1.388174    14A     -1.349684    15A     -1.318700
      16A     -0.863684    17A     -0.800978    18A     -0.764716
      19A     -0.756558    20A     -0.684486    21A     -0.651042
      22A     -0.621703    23A     -0.602016    24A     -0.600195
      25A     -0.571283    26A     -0.557368    27A     -0.523362
      28A     -0.513349    29A     -0.491628    30A     -0.484077

  @DF-RHF Final Energy:  -718.29927164564060

   => Energetics <=

    Nuclear Repulsion Energy =            381.0262597910626141
    One-Electron Energy =               -1751.4701476379771066
    Two-Electron Energy =                 652.1446162012739478
    Total Energy =                       -718.2992716456406015

  Dipole Moment: [D]
     X:     2.1638      Y:     1.6072      Z:     0.8477     Total:     2.8256

  Basis Set: (AUG-CC-PVQZ AUX)
    Blend: AUG-CC-PVQZ-RI
	 Reference Energy          =    -718.2992716456406015 [Eh]
	 Singles Energy            =      -0.0000000000000000 [Eh]
	 Same-Spin Energy          =      -0.4258562444961890 [Eh]
	 Opposite-Spin Energy      =      -1.2974888518171870 [Eh]
	 Correlation Energy        =      -1.7233450963133761 [Eh]
	 Total Energy              =    -720.0226167419539252 [Eh]

	 ================> DF-SCS-MP2 Energies <==================
	-----------------------------------------------------------
	 SCS Same-Spin Scale       =       0.3333333333333333 [-]
	 SCS Opposite-Spin Scale   =       1.2000000000000000 [-]
	 SCS Same-Spin Energy      =      -0.1419520814987296 [Eh]
	 SCS Opposite-Spin Energy  =      -1.5569866221806243 [Eh]
	 SCS Correlation Energy    =      -1.6989387036793540 [Eh]
	 SCS Total Energy          =    -719.9982103493199475 [Eh]
	-----------------------------------------------------------

*** Psi4 exiting successfully. Buy a developer a beer!
