                               Psi4 1.4a2.dev224

  ==> Input File <==

--------------------------------------------------------------------------
#Generated by lconvert.py for cbs job

memory 40 GB

molecule  {
0 1
  P       -0.3304560     0.1646340     0.2641460
  O        1.2077810     0.0802390     0.6534290
  O       -0.4096900     1.4981440    -0.6141910
  O       -1.2567170     0.0483500     1.4080310
  O       -0.5969430    -0.9367150    -0.8511770
  H       -0.2733620     2.2851210    -0.0760630
  H        0.0513860    -0.9020020    -1.5627540
  H        1.2875480    -0.3318580     1.5452470
--
0 1
  O        0.6584490    -1.0890310     3.2296430
  H        0.8183270    -0.7738380     4.1206350
  H       -0.2449910    -0.8035650     3.0122500
units angstrom
no_reorient
symmetry c1
}

set {
scf_type DF
mp2_type DF
e_convergence 7
reference rhf
}

energy('mp2/aug-cc-pv[tq]z', bsse_type='cp')
--------------------------------------------------------------------------

    Molecular point group: c1
  Charge       = 0
  Multiplicity = 1
  Basis Set: AUG-CC-PVTZ
    Blend: AUG-CC-PVTZ
  Basis Set: (AUG-CC-PVTZ AUX)
    Blend: AUG-CC-PVTZ-JKFIT
  @DF-RHF Final Energy:   -76.05988926379010
    Total Energy =                        -76.0598892637900974
  Basis Set: (AUG-CC-PVTZ AUX)
    Blend: AUG-CC-PVTZ-RI
	 Reference Energy          =     -76.0598892637900974 [Eh]
	 Singles Energy            =      -0.0000000000000000 [Eh]
	 Same-Spin Energy          =      -0.0684574851053303 [Eh]
	 Opposite-Spin Energy      =      -0.2155279693147371 [Eh]
	 Correlation Energy        =      -0.2839854544200674 [Eh]
	 Total Energy              =     -76.3438747182101594 [Eh]
	 SCS Total Energy          =     -76.3413419886695550 [Eh]
    Molecular point group: c1
  Basis Set: AUG-CC-PVQZ
    Blend: AUG-CC-PVQZ
  Basis Set: (AUG-CC-PVQZ AUX)
    Blend: AUG-CC-PVQZ-JKFIT
  @DF-RHF Final Energy:   -76.06524122231249
    Total Energy =                        -76.0652412223124941
  Basis Set: (AUG-CC-PVQZ AUX)
  @DF-RHF Final Energy:   -76.05999228101456
    Total Energy =                        -76.0599922810145728
  @DF-RHF Final Energy:   -76.06528456340993
    Total Energy =                        -76.0652845634099322
  @DF-RHF Final Energy:  -642.21937498507577
    Total Energy =                       -642.2193749850757740
  @DF-RHF Final Energy:  -642.25221499283600
    Total Energy =                       -642.2522149928360022
  @DF-RHF Final Energy:  -642.21920173272997
    Total Energy =                       -642.2192017327299709
  @DF-RHF Final Energy:  -642.25214430823939
    Total Energy =                       -642.2521443082393944
  Multiplicity = 1
  @DF-RHF Final Energy:  -718.29614127032062
    Total Energy =                       -718.2961412703206179
	 Singles Energy            =      -0.0000000000000000 [Eh]
	 Same-Spin Energy          =      -0.3957215882907420 [Eh]
	 Opposite-Spin Energy      =      -1.1404044873608798 [Eh]
	 Correlation Energy        =      -1.5361260756516217 [Eh]
	 Total Energy              =    -719.8322673459722409 [Eh]
	 SCS Total Energy          =    -719.7965338512506150 [Eh]
    Molecular point group: c1

    Geometry (in Angstrom), charge = 0, multiplicity = 1:

       Center              X                  Y                   Z               Mass
    ------------   -----------------  -----------------  -----------------  -----------------
         P           -0.201686618831     0.180265893382    -0.395134733589    30.973761998420
         O            1.336550381169     0.095870893382    -0.005851733589    15.994914619570
         O           -0.280920618831     1.513775893382    -1.273471733589    15.994914619570
         O           -1.127947618831     0.063981893382     0.748750266411    15.994914619570
         O           -0.468173618831    -0.921083106618    -1.510457733589    15.994914619570
         H           -0.144592618831     2.300752893382    -0.735343733589     1.007825032230
         H            0.180155381169    -0.886370106618    -2.222034733589     1.007825032230
         H            1.416317381169    -0.316226106618     0.885966266411     1.007825032230
         O            0.787218381169    -1.073399106618     2.570362266411    15.994914619570
         H            0.947096381169    -0.758206106618     3.461354266411     1.007825032230
         H           -0.116221618831    -0.787933106618     2.352969266411     1.007825032230

  Charge       = 0
  Multiplicity = 1
  Basis Set: AUG-CC-PVQZ
    Blend: AUG-CC-PVQZ
  Basis Set: (AUG-CC-PVQZ AUX)
    Blend: AUG-CC-PVQZ-JKFIT

    Orbital Energies [Eh]
    ---------------------

    Doubly Occupied:

       1A    -80.108654     2A    -20.612922     3A    -20.608518
       4A    -20.601364     5A    -20.572745     6A    -20.520278
       7A     -7.625176     8A     -5.524152     9A     -5.523873
      10A     -5.522604    11A     -1.466116    12A     -1.394374
      13A     -1.390881    14A     -1.359639    15A     -1.306417
      16A     -0.864822    17A     -0.774925    18A     -0.758510
      19A     -0.729568    20A     -0.679653    21A     -0.656223
      22A     -0.616970    23A     -0.597899    24A     -0.593912
      25A     -0.580544    26A     -0.563363    27A     -0.536346
      28A     -0.521047    29A     -0.484521    30A     -0.479761

  @DF-RHF Final Energy:  -718.33437387485424

   => Energetics <=

    Nuclear Repulsion Energy =            365.7529163781844659
    One-Electron Energy =               -1721.0230165695663800
    Two-Electron Energy =                 636.9357263165277345
    Total Energy =                       -718.3343738748542364

  Dipole Moment: [D]
     X:     2.2357      Y:     1.8599      Z:     0.0861     Total:     2.9095

  Basis Set: (AUG-CC-PVQZ AUX)
    Blend: AUG-CC-PVQZ-RI
	 Reference Energy          =    -718.3343738748542364 [Eh]
	 Singles Energy            =      -0.0000000000000000 [Eh]
	 Same-Spin Energy          =      -0.4200505528738814 [Eh]
	 Opposite-Spin Energy      =      -1.2930204807691952 [Eh]
	 Correlation Energy        =      -1.7130710336430766 [Eh]
	 Total Energy              =    -720.0474449084973685 [Eh]

	 ================> DF-SCS-MP2 Energies <==================
	-----------------------------------------------------------
	 SCS Same-Spin Scale       =       0.3333333333333333 [-]
	 SCS Opposite-Spin Scale   =       1.2000000000000000 [-]
	 SCS Same-Spin Energy      =      -0.1400168509579605 [Eh]
	 SCS Opposite-Spin Energy  =      -1.5516245769230341 [Eh]
	 SCS Correlation Energy    =      -1.6916414278809946 [Eh]
	 SCS Total Energy          =    -720.0260153027352317 [Eh]
	-----------------------------------------------------------

*** Psi4 exiting successfully. Buy a developer a beer!
