                               Psi4 1.4a2.dev224

  ==> Input File <==

--------------------------------------------------------------------------
#Generated by lconvert.py for cbs job

memory 20 GB

molecule  {
0 1
  P      -0.330460    0.164630    0.264150
  O       1.207780    0.080240    0.653430
  O      -0.409690    1.498140   -0.614190
  O      -1.256720    0.048350    1.408030
  O      -0.596940   -0.936710   -0.851180
  H      -0.273360    2.285120   -0.076060
  H       0.051390   -0.902000   -1.562750
  H       1.287550   -0.331860    1.545250
--
0 1
  O       0.544070   -1.226700    3.535900
  H       0.703950   -0.911510    4.426890
  H      -0.359370   -0.941230    3.318500
units angstrom
no_reorient
symmetry c1
}

set {
scf_type DF
mp2_type DF
e_convergence 7
reference rhf
}

energy('mp2/aug-cc-pv[tq]z', bsse_type='cp')
--------------------------------------------------------------------------

    Molecular point group: c1
  Charge       = 0
  Multiplicity = 1
  Basis Set: AUG-CC-PVTZ
    Blend: AUG-CC-PVTZ
  Basis Set: (AUG-CC-PVTZ AUX)
    Blend: AUG-CC-PVTZ-JKFIT
  @DF-RHF Final Energy:   -76.05988918481832
    Total Energy =                        -76.0598891848183172
  Basis Set: (AUG-CC-PVTZ AUX)
    Blend: AUG-CC-PVTZ-RI
	 Reference Energy          =     -76.0598891848183172 [Eh]
	 Singles Energy            =      -0.0000000000000000 [Eh]
	 Same-Spin Energy          =      -0.0684574787298387 [Eh]
	 Opposite-Spin Energy      =      -0.2155279521716977 [Eh]
	 Correlation Energy        =      -0.2839854309015365 [Eh]
	 Total Energy              =     -76.3438746157198551 [Eh]
	 SCS Total Energy          =     -76.3413418870009650 [Eh]
    Molecular point group: c1
  Basis Set: AUG-CC-PVQZ
    Blend: AUG-CC-PVQZ
  Basis Set: (AUG-CC-PVQZ AUX)
    Blend: AUG-CC-PVQZ-JKFIT
  @DF-RHF Final Energy:   -76.06524114269838
    Total Energy =                        -76.0652411426983690
  Basis Set: (AUG-CC-PVQZ AUX)
  @DF-RHF Final Energy:   -76.05997338926099
    Total Energy =                        -76.0599733892610033
  @DF-RHF Final Energy:   -76.06527729193238
    Total Energy =                        -76.0652772919323752
  @DF-RHF Final Energy:  -642.21933417856542
    Total Energy =                       -642.2193341785654184
  @DF-RHF Final Energy:  -642.25219602686377
    Total Energy =                       -642.2521960268637713
  @DF-RHF Final Energy:  -642.21920201600267
    Total Energy =                       -642.2192020160026686
  @DF-RHF Final Energy:  -642.25214465375450
    Total Energy =                       -642.2521446537544989
  Multiplicity = 1
  @DF-RHF Final Energy:  -718.29319824252048
    Total Energy =                       -718.2931982425204751
	 Singles Energy            =      -0.0000000000000000 [Eh]
	 Same-Spin Energy          =      -0.3944400808287992 [Eh]
	 Opposite-Spin Energy      =      -1.1391461671892800 [Eh]
	 Correlation Energy        =      -1.5335862480180791 [Eh]
	 Total Energy              =    -719.8267844905385573 [Eh]
	 SCS Total Energy          =    -719.7916536700905681 [Eh]
    Molecular point group: c1

    Geometry (in Angstrom), charge = 0, multiplicity = 1:

       Center              X                  Y                   Z               Mass
    ------------   -----------------  -----------------  -----------------  -----------------
         P           -0.183928697110     0.201639965884    -0.442687205722    30.973761998420
         O            1.354311302890     0.117249965884    -0.053407205722    15.994914619570
         O           -0.263158697110     1.535149965884    -1.321027205722    15.994914619570
         O           -1.110188697110     0.085359965884     0.701192794278    15.994914619570
         O           -0.450408697110    -0.899700034116    -1.558017205722    15.994914619570
         H           -0.126828697110     2.322129965884    -0.782897205722     1.007825032230
         H            0.197921302890    -0.864990034116    -2.269587205722     1.007825032230
         H            1.434081302890    -0.294850034116     0.838412794278     1.007825032230
         O            0.690601302890    -1.189690034116     2.829062794278    15.994914619570
         H            0.850481302890    -0.874500034116     3.720052794278     1.007825032230
         H           -0.212838697110    -0.904220034116     2.611662794278     1.007825032230

  Charge       = 0
  Multiplicity = 1
  Basis Set: AUG-CC-PVQZ
    Blend: AUG-CC-PVQZ
  Basis Set: (AUG-CC-PVQZ AUX)
    Blend: AUG-CC-PVQZ-JKFIT

    Orbital Energies [Eh]
    ---------------------

    Doubly Occupied:

       1A    -80.108875     2A    -20.613523     3A    -20.609309
       4A    -20.609231     5A    -20.567825     6A    -20.517661
       7A     -7.625406     8A     -5.524365     9A     -5.524148
      10A     -5.522761    11A     -1.467682    12A     -1.395011
      13A     -1.394360    14A     -1.352244    15A     -1.302925
      16A     -0.865973    17A     -0.775942    18A     -0.759818
      19A     -0.719794    20A     -0.679375    21A     -0.658949
      22A     -0.618521    23A     -0.595270    24A     -0.589045
      25A     -0.581807    26A     -0.562946    27A     -0.539506
      28A     -0.515321    29A     -0.481409    30A     -0.476553

  @DF-RHF Final Energy:  -718.33139854522369

   => Energetics <=

    Nuclear Repulsion Energy =            359.6530182440662315
    One-Electron Energy =               -1708.8577215992868332
    Two-Electron Energy =                 630.8733048099968528
    Total Energy =                       -718.3313985452236921

  Dipole Moment: [D]
     X:     2.2778      Y:     1.8976      Z:    -0.0300     Total:     2.9649

  Basis Set: (AUG-CC-PVQZ AUX)
    Blend: AUG-CC-PVQZ-RI
	 Reference Energy          =    -718.3313985452236921 [Eh]
	 Singles Energy            =      -0.0000000000000000 [Eh]
	 Same-Spin Energy          =      -0.4187774118240956 [Eh]
	 Opposite-Spin Energy      =      -1.2920757435600940 [Eh]
	 Correlation Energy        =      -1.7108531553841897 [Eh]
	 Total Energy              =    -720.0422517006078351 [Eh]

	 ================> DF-SCS-MP2 Energies <==================
	-----------------------------------------------------------
	 SCS Same-Spin Scale       =       0.3333333333333333 [-]
	 SCS Opposite-Spin Scale   =       1.2000000000000000 [-]
	 SCS Same-Spin Energy      =      -0.1395924706080318 [Eh]
	 SCS Opposite-Spin Energy  =      -1.5504908922721128 [Eh]
	 SCS Correlation Energy    =      -1.6900833628801446 [Eh]
	 SCS Total Energy          =    -720.0214819081038513 [Eh]
	-----------------------------------------------------------

*** Psi4 exiting successfully. Buy a developer a beer!
