                               Psi4 1.4a2.dev224

  ==> Input File <==

--------------------------------------------------------------------------
#Generated by lconvert.py for cbs job

memory 20 GB

molecule  {
0 1
  P      -0.330460    0.164630    0.264150
  O       1.207780    0.080240    0.653430
  O      -0.409690    1.498140   -0.614190
  O      -1.256720    0.048350    1.408030
  O      -0.596940   -0.936710   -0.851180
  H      -0.273360    2.285120   -0.076060
  H       0.051390   -0.902000   -1.562750
  H       1.287550   -0.331860    1.545250
--
0 1
  O       0.372500   -1.433200    3.995280
  H       0.532380   -1.118010    4.886270
  H      -0.530940   -1.147730    3.777880
units angstrom
no_reorient
symmetry c1
}

set {
scf_type DF
mp2_type DF
e_convergence 7
reference rhf
}

energy('mp2/aug-cc-pv[tq]z', bsse_type='cp')
--------------------------------------------------------------------------

    Molecular point group: c1
  Charge       = 0
  Multiplicity = 1
  Basis Set: AUG-CC-PVTZ
    Blend: AUG-CC-PVTZ
  Basis Set: (AUG-CC-PVTZ AUX)
    Blend: AUG-CC-PVTZ-JKFIT
  @DF-RHF Final Energy:   -76.05988918482863
    Total Energy =                        -76.0598891848286200
  Basis Set: (AUG-CC-PVTZ AUX)
    Blend: AUG-CC-PVTZ-RI
	 Reference Energy          =     -76.0598891848286343 [Eh]
	 Singles Energy            =      -0.0000000000000000 [Eh]
	 Same-Spin Energy          =      -0.0684574787298379 [Eh]
	 Opposite-Spin Energy      =      -0.2155279521717706 [Eh]
	 Correlation Energy        =      -0.2839854309016085 [Eh]
	 Total Energy              =     -76.3438746157302432 [Eh]
	 SCS Total Energy          =     -76.3413418870113674 [Eh]
    Molecular point group: c1
  Basis Set: AUG-CC-PVQZ
    Blend: AUG-CC-PVQZ
  Basis Set: (AUG-CC-PVQZ AUX)
    Blend: AUG-CC-PVQZ-JKFIT
  @DF-RHF Final Energy:   -76.06524114268235
    Total Energy =                        -76.0652411426823534
  Basis Set: (AUG-CC-PVQZ AUX)
  @DF-RHF Final Energy:   -76.05993922837008
    Total Energy =                        -76.0599392283700979
  @DF-RHF Final Energy:   -76.06526230311522
    Total Energy =                        -76.0652623031152189
  @DF-RHF Final Energy:  -642.21928013574654
    Total Energy =                       -642.2192801357465441
  @DF-RHF Final Energy:  -642.25217536908508
    Total Energy =                       -642.2521753690850801
  @DF-RHF Final Energy:  -642.21920201515911
    Total Energy =                       -642.2192020151591123
  @DF-RHF Final Energy:  -642.25214465330544
    Total Energy =                       -642.2521446533054359
  Multiplicity = 1
  @DF-RHF Final Energy:  -718.28797564467914
    Total Energy =                       -718.2879756446791362
	 Singles Energy            =      -0.0000000000000000 [Eh]
	 Same-Spin Energy          =      -0.3934865813654160 [Eh]
	 Opposite-Spin Energy      =      -1.1380889478611473 [Eh]
	 Correlation Energy        =      -1.5315755292265634 [Eh]
	 Total Energy              =    -719.8195511739056656 [Eh]
	 SCS Total Energy          =    -719.7848445759009337 [Eh]
    Molecular point group: c1

    Geometry (in Angstrom), charge = 0, multiplicity = 1:

       Center              X                  Y                   Z               Mass
    ------------   -----------------  -----------------  -----------------  -----------------
         P           -0.157287260389     0.233705342598    -0.514019858288    30.973761998420
         O            1.380952739611     0.149315342598    -0.124739858288    15.994914619570
         O           -0.236517260389     1.567215342598    -1.392359858288    15.994914619570
         O           -1.083547260389     0.117425342598     0.629860141712    15.994914619570
         O           -0.423767260389    -0.867634657402    -1.629349858288    15.994914619570
         H           -0.100187260389     2.354195342598    -0.854229858288     1.007825032230
         H            0.224562739611    -0.832924657402    -2.340919858288     1.007825032230
         H            1.460722739611    -0.262784657402     0.767080141712     1.007825032230
         O            0.545672739611    -1.364124657402     3.217110141712    15.994914619570
         H            0.705552739611    -1.048934657402     4.108100141712     1.007825032230
         H           -0.357767260389    -1.078654657402     2.999710141712     1.007825032230

  Charge       = 0
  Multiplicity = 1
  Basis Set: AUG-CC-PVQZ
    Blend: AUG-CC-PVQZ
  Basis Set: (AUG-CC-PVQZ AUX)
    Blend: AUG-CC-PVQZ-JKFIT

    Orbital Energies [Eh]
    ---------------------

    Doubly Occupied:

       1A    -80.108492     2A    -20.614545     3A    -20.613594
       4A    -20.609547     5A    -20.563520     6A    -20.515227
       7A     -7.625079     8A     -5.524020     9A     -5.523856
      10A     -5.522368    11A     -1.468792    12A     -1.397405
      13A     -1.395146    14A     -1.346478    15A     -1.299810
      16A     -0.866822    17A     -0.777205    18A     -0.760840
      19A     -0.713076    20A     -0.679666    21A     -0.660924
      22A     -0.619547    23A     -0.595373    24A     -0.582570
      25A     -0.582081    26A     -0.561806    27A     -0.541406
      28A     -0.509339    29A     -0.478443    30A     -0.473436

  @DF-RHF Final Energy:  -718.32618294404415

   => Energetics <=

    Nuclear Repulsion Energy =            351.9196504665656562
    One-Electron Energy =               -1693.4308397244180924
    Two-Electron Energy =                 623.1850063138083442
    Total Energy =                       -718.3261829440441488

  Dipole Moment: [D]
     X:     2.3160      Y:     1.9209      Z:    -0.0964     Total:     3.0105

  Basis Set: (AUG-CC-PVQZ AUX)
    Blend: AUG-CC-PVQZ-RI
	 Reference Energy          =    -718.3261829440441488 [Eh]
	 Singles Energy            =      -0.0000000000000000 [Eh]
	 Same-Spin Energy          =      -0.4178554462153328 [Eh]
	 Opposite-Spin Energy      =      -1.2913642241521566 [Eh]
	 Correlation Energy        =      -1.7092196703674893 [Eh]
	 Total Energy              =    -720.0354026144116233 [Eh]

	 ================> DF-SCS-MP2 Energies <==================
	-----------------------------------------------------------
	 SCS Same-Spin Scale       =       0.3333333333333333 [-]
	 SCS Opposite-Spin Scale   =       1.2000000000000000 [-]
	 SCS Same-Spin Energy      =      -0.1392851487384442 [Eh]
	 SCS Opposite-Spin Energy  =      -1.5496370689825878 [Eh]
	 SCS Correlation Energy    =      -1.6889222177210321 [Eh]
	 SCS Total Energy          =    -720.0151051617651774 [Eh]
	-----------------------------------------------------------

*** Psi4 exiting successfully. Buy a developer a beer!
