                               Psi4 1.4a2.dev224

  ==> Input File <==

--------------------------------------------------------------------------
#Generated by lconvert.py for cbs job

memory 40 GB

molecule  {
0 1
  P       -0.3304560     0.1646340     0.2641460
  O        1.2077810     0.0802390     0.6534290
  O       -0.4096900     1.4981440    -0.6141910
  O       -1.2567170     0.0483500     1.4080310
  O       -0.5969430    -0.9367150    -0.8511770
  H       -0.2733620     2.2851210    -0.0760630
  H        0.0513860    -0.9020020    -1.5627540
  H        1.2875480    -0.3318580     1.5452470
--
0 1
  O        0.8300220    -0.8825290     2.7702620
  H        0.9899000    -0.5673360     3.6612540
  H       -0.0734180    -0.5970630     2.5528690
units angstrom
no_reorient
symmetry c1
}

set {
scf_type DF
mp2_type DF
e_convergence 7
reference rhf
}

energy('mp2/aug-cc-pv[tq]z', bsse_type='cp')
--------------------------------------------------------------------------

    Molecular point group: c1
  Charge       = 0
  Multiplicity = 1
  Basis Set: AUG-CC-PVTZ
    Blend: AUG-CC-PVTZ
  Basis Set: (AUG-CC-PVTZ AUX)
    Blend: AUG-CC-PVTZ-JKFIT
  @DF-RHF Final Energy:   -76.05988926379851
    Total Energy =                        -76.0598892637985102
  Basis Set: (AUG-CC-PVTZ AUX)
    Blend: AUG-CC-PVTZ-RI
	 Reference Energy          =     -76.0598892637985102 [Eh]
	 Singles Energy            =      -0.0000000000000000 [Eh]
	 Same-Spin Energy          =      -0.0684574851053022 [Eh]
	 Opposite-Spin Energy      =      -0.2155279693146659 [Eh]
	 Correlation Energy        =      -0.2839854544199681 [Eh]
	 Total Energy              =     -76.3438747182184727 [Eh]
	 SCS Total Energy          =     -76.3413419886778826 [Eh]
    Molecular point group: c1
  Basis Set: AUG-CC-PVQZ
    Blend: AUG-CC-PVQZ
  Basis Set: (AUG-CC-PVQZ AUX)
    Blend: AUG-CC-PVQZ-JKFIT
  @DF-RHF Final Energy:   -76.06524122234867
    Total Energy =                        -76.0652412223486749
  Basis Set: (AUG-CC-PVQZ AUX)
  @DF-RHF Final Energy:   -76.06007000936940
    Total Energy =                        -76.0600700093694115
  @DF-RHF Final Energy:   -76.06530486584361
    Total Energy =                        -76.0653048658436148
  @DF-RHF Final Energy:  -642.21949532417864
    Total Energy =                       -642.2194953241786379
  @DF-RHF Final Energy:  -642.25225365524489
    Total Energy =                       -642.2522536552448855
  @DF-RHF Final Energy:  -642.21920173257934
    Total Energy =                       -642.2192017325793358
  @DF-RHF Final Energy:  -642.25214430898552
    Total Energy =                       -642.2521443089855211
  Multiplicity = 1
  @DF-RHF Final Energy:  -718.28324754209166
    Total Energy =                       -718.2832475420916580
	 Singles Energy            =      -0.0000000000000000 [Eh]
	 Same-Spin Energy          =      -0.3995114819982649 [Eh]
	 Opposite-Spin Energy      =      -1.1438655097239714 [Eh]
	 Correlation Energy        =      -1.5433769917222362 [Eh]
	 Total Energy              =    -719.8266245338138560 [Eh]
	 SCS Total Energy          =    -719.7890566477598213 [Eh]
    Molecular point group: c1

    Geometry (in Angstrom), charge = 0, multiplicity = 1:

       Center              X                  Y                   Z               Mass
    ------------   -----------------  -----------------  -----------------  -----------------
         P           -0.228328521392     0.148200206107    -0.323801925743    30.973761998420
         O            1.309908478608     0.063805206107     0.065481074257    15.994914619570
         O           -0.307562521392     1.481710206107    -1.202138925743    15.994914619570
         O           -1.154589521392     0.031916206107     0.820083074257    15.994914619570
         O           -0.494815521392    -0.953148793893    -1.439124925743    15.994914619570
         H           -0.171234521392     2.268687206107    -0.664010925743     1.007825032230
         H            0.153513478608    -0.918435793893    -2.150701925743     1.007825032230
         H            1.389675478608    -0.348291793893     0.957299074257     1.007825032230
         O            0.932149478608    -0.898962793893     2.182314074257    15.994914619570
         H            1.092027478608    -0.583769793893     3.073306074257     1.007825032230
         H            0.028709478608    -0.613496793893     1.964921074257     1.007825032230

  Charge       = 0
  Multiplicity = 1
  Basis Set: AUG-CC-PVQZ
    Blend: AUG-CC-PVQZ
  Basis Set: (AUG-CC-PVQZ AUX)
    Blend: AUG-CC-PVQZ-JKFIT

    Orbital Energies [Eh]
    ---------------------

    Doubly Occupied:

       1A    -80.105098     2A    -20.608958     3A    -20.604885
       4A    -20.586042     5A    -20.571380     6A    -20.526681
       7A     -7.621808     8A     -5.520815     9A     -5.520401
      10A     -5.519372    11A     -1.462377    12A     -1.405671
      13A     -1.390796    14A     -1.360188    15A     -1.315051
      16A     -0.862343    17A     -0.783982    18A     -0.761375
      19A     -0.750884    20A     -0.683159    21A     -0.651070
      22A     -0.618331    23A     -0.605550    24A     -0.595912
      25A     -0.574884    26A     -0.560684    27A     -0.528779
      28A     -0.520611    29A     -0.490668    30A     -0.484436

  @DF-RHF Final Energy:  -718.32138118940225

   => Energetics <=

    Nuclear Repulsion Energy =            376.7364224317066714
    One-Electron Energy =               -1742.9312208718145030
    Two-Electron Energy =                 647.8734172507056428
    Total Energy =                       -718.3213811894022456

  Dipole Moment: [D]
     X:     2.1660      Y:     1.7067      Z:     0.5525     Total:     2.8124

  Basis Set: (AUG-CC-PVQZ AUX)
    Blend: AUG-CC-PVQZ-RI
	 Reference Energy          =    -718.3213811894022456 [Eh]
	 Singles Energy            =      -0.0000000000000000 [Eh]
	 Same-Spin Energy          =      -0.4239047663550288 [Eh]
	 Opposite-Spin Energy      =      -1.2959906150324987 [Eh]
	 Correlation Energy        =      -1.7198953813875275 [Eh]
	 Total Energy              =    -720.0412765707898188 [Eh]

	 ================> DF-SCS-MP2 Energies <==================
	-----------------------------------------------------------
	 SCS Same-Spin Scale       =       0.3333333333333333 [-]
	 SCS Opposite-Spin Scale   =       1.2000000000000000 [-]
	 SCS Same-Spin Energy      =      -0.1413015887850096 [Eh]
	 SCS Opposite-Spin Energy  =      -1.5551887380389984 [Eh]
	 SCS Correlation Energy    =      -1.6964903268240079 [Eh]
	 SCS Total Energy          =    -720.0178715162262506 [Eh]
	-----------------------------------------------------------

*** Psi4 exiting successfully. Buy a developer a beer!
