                               Psi4 1.4a2.dev224

  ==> Input File <==

--------------------------------------------------------------------------
#Generated by lconvert.py for cbs job

memory 40 GB

molecule  {
0 1
  P       -0.0345390    -0.2187240     1.1983610
  O        0.9939770    -0.6610930     0.0634880
  O        0.6964510     1.0805890     1.7108350
  O       -0.3834980    -1.2496500     2.2006320
  O       -1.3532430     0.2543680     0.4330890
  H        0.4678340     1.2714430     2.6453060
  H       -1.1668910     0.9332110    -0.2253710
  H        0.8496650    -1.5791460    -0.1922880
--
0 1
  P       -0.1638390     0.2320360     5.5947530
  O        0.9795940     0.5806660     6.6528230
  O       -0.0740740     1.4324180     4.4836930
  O       -1.5174800     0.1406430     6.1687320
  O        0.5092350    -0.9543730     4.8340390
  H       -0.8156970     2.0309170     4.6344940
  H        0.1250040    -1.1399070     3.9363950
  H        0.5705350     0.7469890     7.5090690
units angstrom
no_reorient
symmetry c1
}

set {
scf_type DF
mp2_type DF
e_convergence 7
reference rhf
}

energy('mp2/aug-cc-pv[tq]z', bsse_type='cp')
--------------------------------------------------------------------------

    Molecular point group: c1
  Charge       = 0
  Multiplicity = 1
  Basis Set: AUG-CC-PVTZ
    Blend: AUG-CC-PVTZ
  Basis Set: (AUG-CC-PVTZ AUX)
    Blend: AUG-CC-PVTZ-JKFIT
  @DF-RHF Final Energy:  -642.21744866063125
    Total Energy =                       -642.2174486606312485
  Basis Set: (AUG-CC-PVTZ AUX)
    Blend: AUG-CC-PVTZ-RI
	 Reference Energy          =    -642.2174486606312485 [Eh]
	 Singles Energy            =      -0.0000000000000000 [Eh]
	 Same-Spin Energy          =      -0.3245964891670740 [Eh]
	 Opposite-Spin Energy      =      -0.9225305726299523 [Eh]
	 Correlation Energy        =      -1.2471270617970263 [Eh]
	 Total Energy              =    -643.4645757224283216 [Eh]
	 SCS Total Energy          =    -643.4326841775096000 [Eh]
    Molecular point group: c1
  Basis Set: AUG-CC-PVQZ
    Blend: AUG-CC-PVQZ
  Basis Set: (AUG-CC-PVQZ AUX)
    Blend: AUG-CC-PVQZ-JKFIT
  @DF-RHF Final Energy:  -642.25033154593302
    Total Energy =                       -642.2503315459330224
  Basis Set: (AUG-CC-PVQZ AUX)
  @DF-RHF Final Energy:  -642.21774384061371
    Total Energy =                       -642.2177438406137071
  @DF-RHF Final Energy:  -642.25045654194844
    Total Energy =                       -642.2504565419484379
  @DF-RHF Final Energy:  -642.21955866544999
    Total Energy =                       -642.2195586654499948
  @DF-RHF Final Energy:  -642.25234834054095
    Total Energy =                       -642.2523483405409479
  @DF-RHF Final Energy:  -642.21923917941876
    Total Energy =                       -642.2192391794187643
  @DF-RHF Final Energy:  -642.25222446483940
    Total Energy =                       -642.2522244648394008
  Multiplicity = 1
  @DF-RHF Final Energy: -1284.46050965454720
    Total Energy =                      -1284.4605096545471952
	 Singles Energy            =      -0.0000000000000000 [Eh]
	 Same-Spin Energy          =      -0.6533856123982638 [Eh]
	 Opposite-Spin Energy      =      -1.8499790168848662 [Eh]
	 Correlation Energy        =      -2.5033646292831300 [Eh]
	 Total Energy              =   -1286.9638742838303642 [Eh]
	 SCS Total Energy          =   -1286.8982796789418899 [Eh]
    Molecular point group: c1

    Geometry (in Angstrom), charge = 0, multiplicity = 1:

       Center              X                  Y                   Z               Mass
    ------------   -----------------  -----------------  -----------------  -----------------
         P            0.008826707399    -0.283369131795    -2.136514267079    30.973761998420
         O            1.037342707399    -0.725738131795    -3.271387267079    15.994914619570
         O            0.739816707399     1.015943868205    -1.624040267079    15.994914619570
         O           -0.340132292601    -1.314295131795    -1.134243267079    15.994914619570
         O           -1.309877292601     0.189722868205    -2.901786267079    15.994914619570
         H            0.511199707399     1.206797868205    -0.689569267079     1.007825032230
         H           -1.123525292601     0.868565868205    -3.560246267079     1.007825032230
         H            0.893030707399    -1.643791131795    -3.527163267079     1.007825032230
         P           -0.120473292601     0.167390868205     2.259877732921    30.973761998420
         O            1.022959707399     0.516020868205     3.317947732921    15.994914619570
         O           -0.030708292601     1.367772868205     1.148817732921    15.994914619570
         O           -1.474114292601     0.075997868205     2.833856732921    15.994914619570
         O            0.552600707399    -1.019018131795     1.499163732921    15.994914619570
         H           -0.772331292601     1.966271868205     1.299618732921     1.007825032230
         H            0.168369707399    -1.204552131795     0.601519732921     1.007825032230
         H            0.613900707399     0.682343868205     4.174193732921     1.007825032230

  Charge       = 0
  Multiplicity = 1
  Basis Set: AUG-CC-PVQZ
    Blend: AUG-CC-PVQZ
  Basis Set: (AUG-CC-PVQZ AUX)
    Blend: AUG-CC-PVQZ-JKFIT

    Orbital Energies [Eh]
    ---------------------

    Doubly Occupied:

       1A    -80.126601     2A    -80.106614     3A    -20.625763
       4A    -20.623091     5A    -20.619791     6A    -20.617592
       7A    -20.606006     8A    -20.593094     9A    -20.541829
      10A    -20.517756    11A     -7.643089    12A     -7.623070
      13A     -5.542016    14A     -5.541695    15A     -5.540744
      16A     -5.522100    17A     -5.521790    18A     -5.520303
      19A     -1.482197    20A     -1.462610    21A     -1.409596
      22A     -1.407427    23A     -1.396910    24A     -1.383812
      25A     -1.328235    26A     -1.302480    27A     -0.886217
      28A     -0.867260    29A     -0.804189    30A     -0.768742
      31A     -0.746685    32A     -0.729350    33A     -0.700038
      34A     -0.685432    35A     -0.674582    36A     -0.670434
      37A     -0.649573    38A     -0.632980    39A     -0.608625
      40A     -0.592259    41A     -0.587951    42A     -0.581049
      43A     -0.575773    44A     -0.550499    45A     -0.548132
      46A     -0.542998    47A     -0.506019    48A     -0.501629
      49A     -0.475721    50A     -0.474775

  @DF-RHF Final Energy: -1284.52613063721810

   => Energetics <=

    Nuclear Repulsion Energy =            856.2410059248747984
    One-Electron Energy =               -3481.6000111328644380
    Two-Electron Energy =                1340.8328745707717644
    Total Energy =                      -1284.5261306372181025

  Dipole Moment: [D]
     X:     0.7573      Y:     2.8052      Z:    -3.5629     Total:     4.5975

  Basis Set: (AUG-CC-PVQZ AUX)
    Blend: AUG-CC-PVQZ-RI
	 Reference Energy          =   -1284.5261306372181025 [Eh]
	 Singles Energy            =      -0.0000000000000000 [Eh]
	 Same-Spin Energy          =      -0.6933262251548380 [Eh]
	 Opposite-Spin Energy      =      -2.0970451427512220 [Eh]
	 Correlation Energy        =      -2.7903713679060598 [Eh]
	 Total Energy              =   -1287.3165020051242209 [Eh]

	 ================> DF-SCS-MP2 Energies <==================
	-----------------------------------------------------------
	 SCS Same-Spin Scale       =       0.3333333333333333 [-]
	 SCS Opposite-Spin Scale   =       1.2000000000000000 [-]
	 SCS Same-Spin Energy      =      -0.2311087417182793 [Eh]
	 SCS Opposite-Spin Energy  =      -2.5164541713014663 [Eh]
	 SCS Correlation Energy    =      -2.7475629130197454 [Eh]
	 SCS Total Energy          =   -1287.2736935502377946 [Eh]
	-----------------------------------------------------------

*** Psi4 exiting successfully. Buy a developer a beer!
