                               Psi4 1.4a2.dev224

  ==> Input File <==

--------------------------------------------------------------------------
#Generated by lconvert.py for cbs job

memory 20 GB

molecule  {
0 1
  P      -0.034540   -0.218720    1.198360
  O       0.993980   -0.661090    0.063490
  O       0.696450    1.080590    1.710840
  O      -0.383500   -1.249650    2.200630
  O      -1.353240    0.254370    0.433090
  H       0.467830    1.271440    2.645310
  H      -1.166890    0.933210   -0.225370
  H       0.849670   -1.579150   -0.192290
--
0 1
  P       0.067300    0.281920    6.383740
  O       1.210730    0.630550    7.441810
  O       0.157060    1.482300    5.272680
  O      -1.286350    0.190530    6.957720
  O       0.740370   -0.904490    5.623020
  H      -0.584560    2.080800    5.423480
  H       0.356140   -1.090020    4.725380
  H       0.801670    0.796870    8.298050
units angstrom
no_reorient
symmetry c1
}

set {
scf_type DF
mp2_type DF
e_convergence 7
reference rhf
}

energy('mp2/aug-cc-pv[tq]z', bsse_type='cp')
--------------------------------------------------------------------------

    Molecular point group: c1
  Charge       = 0
  Multiplicity = 1
  Basis Set: AUG-CC-PVTZ
    Blend: AUG-CC-PVTZ
  Basis Set: (AUG-CC-PVTZ AUX)
    Blend: AUG-CC-PVTZ-JKFIT
  @DF-RHF Final Energy:  -642.21744892406321
    Total Energy =                       -642.2174489240632056
  Basis Set: (AUG-CC-PVTZ AUX)
    Blend: AUG-CC-PVTZ-RI
	 Reference Energy          =    -642.2174489240632056 [Eh]
	 Singles Energy            =      -0.0000000000000000 [Eh]
	 Same-Spin Energy          =      -0.3245965152290168 [Eh]
	 Opposite-Spin Energy      =      -0.9225306155968673 [Eh]
	 Correlation Energy        =      -1.2471271308258842 [Eh]
	 Total Energy              =    -643.4645760548891076 [Eh]
	 SCS Total Energy          =    -643.4326845011891010 [Eh]
    Molecular point group: c1
  Basis Set: AUG-CC-PVQZ
    Blend: AUG-CC-PVQZ
  Basis Set: (AUG-CC-PVQZ AUX)
    Blend: AUG-CC-PVQZ-JKFIT
  @DF-RHF Final Energy:  -642.25033170033987
    Total Energy =                       -642.2503317003398706
  Basis Set: (AUG-CC-PVQZ AUX)
  @DF-RHF Final Energy:  -642.21758133021581
    Total Energy =                       -642.2175813302158076
  @DF-RHF Final Energy:  -642.25039568403702
    Total Energy =                       -642.2503956840370165
  @DF-RHF Final Energy:  -642.21938625354358
    Total Energy =                       -642.2193862535435755
  @DF-RHF Final Energy:  -642.25228853890189
    Total Energy =                       -642.2522885389018938
  @DF-RHF Final Energy:  -642.21923895528505
    Total Energy =                       -642.2192389552850500
  @DF-RHF Final Energy:  -642.25222423463265
    Total Energy =                       -642.2522242346326493
  Multiplicity = 1
  @DF-RHF Final Energy: -1284.44813189156866
    Total Energy =                      -1284.4481318915686643
	 Singles Energy            =      -0.0000000000000000 [Eh]
	 Same-Spin Energy          =      -0.6500709511692115 [Eh]
	 Opposite-Spin Energy      =      -1.8460894523432945 [Eh]
	 Correlation Energy        =      -2.4961604035125058 [Eh]
	 Total Energy              =   -1286.9442922950811408 [Eh]
	 SCS Total Energy          =   -1286.8801295514369940 [Eh]
    Molecular point group: c1

    Geometry (in Angstrom), charge = 0, multiplicity = 1:

       Center              X                  Y                   Z               Mass
    ------------   -----------------  -----------------  -----------------  -----------------
         P           -0.106742129265    -0.308308207529    -2.531008659779    30.973761998420
         O            0.921777870735    -0.750678207529    -3.665878659779    15.994914619570
         O            0.624247870735     0.991001792471    -2.018528659779    15.994914619570
         O           -0.455702129265    -1.339238207529    -1.528738659779    15.994914619570
         O           -1.425442129265     0.164781792471    -3.296278659779    15.994914619570
         H            0.395627870735     1.181851792471    -1.084058659779     1.007825032230
         H           -1.239092129265     0.843621792471    -3.954738659779     1.007825032230
         H            0.777467870735    -1.668738207529    -3.921658659779     1.007825032230
         P           -0.004902129265     0.192331792471     2.654371340221    30.973761998420
         O            1.138527870735     0.540961792471     3.712441340221    15.994914619570
         O            0.084857870735     1.392711792471     1.543311340221    15.994914619570
         O           -1.358552129265     0.100941792471     3.228351340221    15.994914619570
         O            0.668167870735    -0.994078207529     1.893651340221    15.994914619570
         H           -0.656762129265     1.991211792471     1.694111340221     1.007825032230
         H            0.283937870735    -1.179608207529     0.996011340221     1.007825032230
         H            0.729467870735     0.707281792471     4.568681340221     1.007825032230

  Charge       = 0
  Multiplicity = 1
  Basis Set: AUG-CC-PVQZ
    Blend: AUG-CC-PVQZ
  Basis Set: (AUG-CC-PVQZ AUX)
    Blend: AUG-CC-PVQZ-JKFIT

    Orbital Energies [Eh]
    ---------------------

    Doubly Occupied:

       1A    -80.119780     2A    -80.109585     3A    -20.625908
       4A    -20.621832     5A    -20.619400     6A    -20.612915
       7A    -20.610287     8A    -20.608388     9A    -20.528374
      10A    -20.519758    11A     -7.636462    12A     -7.626034
      13A     -5.535438    14A     -5.535074    15A     -5.533901
      16A     -5.524981    17A     -5.524792    18A     -5.523307
      19A     -1.480182    20A     -1.465091    21A     -1.409186
      22A     -1.405751    23A     -1.394950    24A     -1.390168
      25A     -1.311850    26A     -1.304307    27A     -0.882657
      28A     -0.871694    29A     -0.798906    30A     -0.766095
      31A     -0.742478    32A     -0.734459    33A     -0.691696
      34A     -0.685627    35A     -0.671889    36A     -0.666437
      37A     -0.649471    38A     -0.635257    39A     -0.607854
      40A     -0.593532    41A     -0.589785    42A     -0.581887
      43A     -0.571911    44A     -0.552728    45A     -0.547288
      46A     -0.542357    47A     -0.490832    48A     -0.486986
      49A     -0.478208    50A     -0.476148

  @DF-RHF Final Energy: -1284.51384383401069

   => Energetics <=

    Nuclear Repulsion Energy =            811.8888547151298098
    One-Electron Energy =               -3393.0176079389757433
    Two-Electron Energy =                1296.6149093898350202
    Total Energy =                      -1284.5138438340106859

  Dipole Moment: [D]
     X:     0.9049      Y:     2.8431      Z:    -3.3271     Total:     4.4690

  Basis Set: (AUG-CC-PVQZ AUX)
    Blend: AUG-CC-PVQZ-RI
	 Reference Energy          =   -1284.5138438340106859 [Eh]
	 Singles Energy            =      -0.0000000000000000 [Eh]
	 Same-Spin Energy          =      -0.6901403179428461 [Eh]
	 Opposite-Spin Energy      =      -2.0943561606576511 [Eh]
	 Correlation Energy        =      -2.7844964786004973 [Eh]
	 Total Energy              =   -1287.2983403126111170 [Eh]

	 ================> DF-SCS-MP2 Energies <==================
	-----------------------------------------------------------
	 SCS Same-Spin Scale       =       0.3333333333333333 [-]
	 SCS Opposite-Spin Scale   =       1.2000000000000000 [-]
	 SCS Same-Spin Energy      =      -0.2300467726476154 [Eh]
	 SCS Opposite-Spin Energy  =      -2.5132273927891813 [Eh]
	 SCS Correlation Energy    =      -2.7432741654367967 [Eh]
	 SCS Total Energy          =   -1287.2571179994474733 [Eh]
	-----------------------------------------------------------

*** Psi4 exiting successfully. Buy a developer a beer!
