                               Psi4 1.4a2.dev224

  ==> Input File <==

--------------------------------------------------------------------------
#Generated by lconvert.py for cbs job

memory 40 GB

molecule  {
0 1
  P       -0.0345390    -0.2187240     1.1983610
  O        0.9939770    -0.6610930     0.0634880
  O        0.6964510     1.0805890     1.7108350
  O       -0.3834980    -1.2496500     2.2006320
  O       -1.3532430     0.2543680     0.4330890
  H        0.4678340     1.2714430     2.6453060
  H       -1.1668910     0.9332110    -0.2253710
  H        0.8496650    -1.5791460    -0.1922880
--
0 1
  P       -0.3487490     0.1921290     4.9635660
  O        0.7946830     0.5407590     6.0216360
  O       -0.2589830     1.3925110     3.8525060
  O       -1.7023890     0.1007360     5.5375450
  O        0.3243250    -0.9942800     4.2028520
  H       -1.0006060     1.9910100     4.0033070
  H       -0.0599060    -1.1798140     3.3052080
  H        0.3856240     0.7070820     6.8778820
units angstrom
no_reorient
symmetry c1
}

set {
scf_type DF
mp2_type DF
e_convergence 7
reference rhf
}

energy('mp2/aug-cc-pv[tq]z', bsse_type='cp')
--------------------------------------------------------------------------

    Molecular point group: c1
  Charge       = 0
  Multiplicity = 1
  Basis Set: AUG-CC-PVTZ
    Blend: AUG-CC-PVTZ
  Basis Set: (AUG-CC-PVTZ AUX)
    Blend: AUG-CC-PVTZ-JKFIT
  @DF-RHF Final Energy:  -642.21744876058301
    Total Energy =                       -642.2174487605830109
  Basis Set: (AUG-CC-PVTZ AUX)
    Blend: AUG-CC-PVTZ-RI
	 Reference Energy          =    -642.2174487605830109 [Eh]
	 Singles Energy            =      -0.0000000000000000 [Eh]
	 Same-Spin Energy          =      -0.3245964628804364 [Eh]
	 Opposite-Spin Energy      =      -0.9225305006099942 [Eh]
	 Correlation Energy        =      -1.2471269634904307 [Eh]
	 Total Energy              =    -643.4645757240734838 [Eh]
	 SCS Total Energy          =    -643.4326841822751248 [Eh]
    Molecular point group: c1
  Basis Set: AUG-CC-PVQZ
    Blend: AUG-CC-PVQZ
  Basis Set: (AUG-CC-PVQZ AUX)
    Blend: AUG-CC-PVQZ-JKFIT
  @DF-RHF Final Energy:  -642.25033166741412
    Total Energy =                       -642.2503316674141161
  Basis Set: (AUG-CC-PVQZ AUX)
  @DF-RHF Final Energy:  -642.21801973883964
    Total Energy =                       -642.2180197388396437
  @DF-RHF Final Energy:  -642.25053461871471
    Total Energy =                       -642.2505346187147097
  @DF-RHF Final Energy:  -642.21985765422141
    Total Energy =                       -642.2198576542214141
  @DF-RHF Final Energy:  -642.25242596600197
    Total Energy =                       -642.2524259660019652
  @DF-RHF Final Energy:  -642.21923918055256
    Total Energy =                       -642.2192391805525631
  @DF-RHF Final Energy:  -642.25222446436248
    Total Energy =                       -642.2522244643624845
  Multiplicity = 1
  @DF-RHF Final Energy: -1284.41380016562402
    Total Energy =                      -1284.4138001656240249
	 Singles Energy            =      -0.0000000000000000 [Eh]
	 Same-Spin Energy          =      -0.6608719063268671 [Eh]
	 Opposite-Spin Energy      =      -1.8570130411181047 [Eh]
	 Correlation Energy        =      -2.5178849474449718 [Eh]
	 Total Energy              =   -1286.9316851130690793 [Eh]
	 SCS Total Energy          =   -1286.8625064504080910 [Eh]
    Molecular point group: c1

    Geometry (in Angstrom), charge = 0, multiplicity = 1:

       Center              X                  Y                   Z               Mass
    ------------   -----------------  -----------------  -----------------  -----------------
         P            0.101281625773    -0.263415631795    -1.820920767079    30.973761998420
         O            1.129797625773    -0.705784631795    -2.955793767079    15.994914619570
         O            0.832271625773     1.035897368205    -1.308446767079    15.994914619570
         O           -0.247677374227    -1.294341631795    -0.818649767079    15.994914619570
         O           -1.217422374227     0.209676368205    -2.586192767079    15.994914619570
         H            0.603654625773     1.226751368205    -0.373975767079     1.007825032230
         H           -1.031070374227     0.888519368205    -3.244652767079     1.007825032230
         H            0.985485625773    -1.623837631795    -3.211569767079     1.007825032230
         P           -0.212928374227     0.147437368205     1.944284232921    30.973761998420
         O            0.930503625773     0.496067368205     3.002354232921    15.994914619570
         O           -0.123162374227     1.347819368205     0.833224232921    15.994914619570
         O           -1.566568374227     0.056044368205     2.518263232921    15.994914619570
         O            0.460145625773    -1.038971631795     1.183570232921    15.994914619570
         H           -0.864785374227     1.946318368205     0.984025232921     1.007825032230
         H            0.075914625773    -1.224505631795     0.285926232921     1.007825032230
         H            0.521444625773     0.662390368205     3.858600232921     1.007825032230

  Charge       = 0
  Multiplicity = 1
  Basis Set: AUG-CC-PVQZ
    Blend: AUG-CC-PVQZ
  Basis Set: (AUG-CC-PVQZ AUX)
    Blend: AUG-CC-PVQZ-JKFIT

    Orbital Energies [Eh]
    ---------------------

    Doubly Occupied:

       1A    -80.140021     2A    -80.093912     3A    -20.633121
       4A    -20.630765     5A    -20.630743     6A    -20.596054
       7A    -20.595995     8A    -20.561026     9A    -20.535224
      10A    -20.511223    11A     -7.656294    12A     -7.610658
      13A     -5.555136    14A     -5.554802    15A     -5.554395
      16A     -5.509961    17A     -5.509200    18A     -5.507720
      19A     -1.493455    20A     -1.464582    21A     -1.416871
      22A     -1.412022    23A     -1.402734    24A     -1.387443
      25A     -1.333678    26A     -1.294992    27A     -0.908117
      28A     -0.864892    29A     -0.826953    30A     -0.785131
      31A     -0.775587    32A     -0.738097    33A     -0.707481
      34A     -0.687508    35A     -0.680633    36A     -0.666280
      37A     -0.646461    38A     -0.633025    39A     -0.612094
      40A     -0.586730    41A     -0.581955    42A     -0.572465
      43A     -0.565387    44A     -0.556564    45A     -0.540050
      46A     -0.538008    47A     -0.520325    48A     -0.492121
      49A     -0.471093    50A     -0.462661

  @DF-RHF Final Energy: -1284.47910881974008

   => Energetics <=

    Nuclear Repulsion Energy =            903.9589158323293532
    One-Electron Energy =               -3576.8527445337608697
    Two-Electron Energy =                1388.4147198816915534
    Total Energy =                      -1284.4791088197400768

  Dipole Moment: [D]
     X:     0.3975      Y:     2.7615      Z:    -4.3257     Total:     5.1474

  Basis Set: (AUG-CC-PVQZ AUX)
    Blend: AUG-CC-PVQZ-RI
	 Reference Energy          =   -1284.4791088197400768 [Eh]
	 Singles Energy            =      -0.0000000000000000 [Eh]
	 Same-Spin Energy          =      -0.7008661589156751 [Eh]
	 Opposite-Spin Energy      =      -2.1031705525923199 [Eh]
	 Correlation Energy        =      -2.8040367115079947 [Eh]
	 Total Energy              =   -1287.2831455312480102 [Eh]

	 ================> DF-SCS-MP2 Energies <==================
	-----------------------------------------------------------
	 SCS Same-Spin Scale       =       0.3333333333333333 [-]
	 SCS Opposite-Spin Scale   =       1.2000000000000000 [-]
	 SCS Same-Spin Energy      =      -0.2336220529718917 [Eh]
	 SCS Opposite-Spin Energy  =      -2.5238046631107838 [Eh]
	 SCS Correlation Energy    =      -2.7574267160826755 [Eh]
	 SCS Total Energy          =   -1287.2365355358226680 [Eh]
	-----------------------------------------------------------

*** Psi4 exiting successfully. Buy a developer a beer!
