                               Psi4 1.4a2.dev224

  ==> Input File <==

--------------------------------------------------------------------------
#Generated by lconvert.py for cbs job

memory 40 GB

molecule  {
0 1
  P       -0.0345390    -0.2187240     1.1983610
  O        0.9939770    -0.6610930     0.0634880
  O        0.6964510     1.0805890     1.7108350
  O       -0.3834980    -1.2496500     2.2006320
  O       -1.3532430     0.2543680     0.4330890
  H        0.4678340     1.2714430     2.6453060
  H       -1.1668910     0.9332110    -0.2253710
  H        0.8496650    -1.5791460    -0.1922880
--
0 1
  P       -0.1869530     0.2270470     5.5158540
  O        0.9564800     0.5756770     6.5739240
  O       -0.0971870     1.4274290     4.4047940
  O       -1.5405930     0.1356540     6.0898330
  O        0.4861210    -0.9593620     4.7551400
  H       -0.8388100     2.0259280     4.5555950
  H        0.1018910    -1.1448960     3.8574960
  H        0.5474210     0.7420000     7.4301700
units angstrom
no_reorient
symmetry c1
}

set {
scf_type DF
mp2_type DF
e_convergence 7
reference rhf
}

energy('mp2/aug-cc-pv[tq]z', bsse_type='cp')
--------------------------------------------------------------------------

    Molecular point group: c1
  Charge       = 0
  Multiplicity = 1
  Basis Set: AUG-CC-PVTZ
    Blend: AUG-CC-PVTZ
  Basis Set: (AUG-CC-PVTZ AUX)
    Blend: AUG-CC-PVTZ-JKFIT
  @DF-RHF Final Energy:  -642.21744875728507
    Total Energy =                       -642.2174487572850694
  Basis Set: (AUG-CC-PVTZ AUX)
    Blend: AUG-CC-PVTZ-RI
	 Reference Energy          =    -642.2174487572850694 [Eh]
	 Singles Energy            =      -0.0000000000000000 [Eh]
	 Same-Spin Energy          =      -0.3245964661579685 [Eh]
	 Opposite-Spin Energy      =      -0.9225305166954050 [Eh]
	 Correlation Energy        =      -1.2471269828533735 [Eh]
	 Total Energy              =    -643.4645757401384571 [Eh]
	 SCS Total Energy          =    -643.4326841993722610 [Eh]
    Molecular point group: c1
  Basis Set: AUG-CC-PVQZ
    Blend: AUG-CC-PVQZ
  Basis Set: (AUG-CC-PVQZ AUX)
    Blend: AUG-CC-PVQZ-JKFIT
  @DF-RHF Final Energy:  -642.25033165909474
    Total Energy =                       -642.2503316590947406
  Basis Set: (AUG-CC-PVQZ AUX)
  @DF-RHF Final Energy:  -642.21777000339944
    Total Energy =                       -642.2177700033994370
  @DF-RHF Final Energy:  -642.25046435071783
    Total Energy =                       -642.2504643507178343
  @DF-RHF Final Energy:  -642.21959001895834
    Total Energy =                       -642.2195900189583426
  @DF-RHF Final Energy:  -642.25235723130891
    Total Energy =                       -642.2523572313089062
  @DF-RHF Final Energy:  -642.21923918020923
    Total Energy =                       -642.2192391802092288
  @DF-RHF Final Energy:  -642.25222446593193
    Total Energy =                       -642.2522244659319313
  Multiplicity = 1
  @DF-RHF Final Energy: -1284.46091011873818
    Total Energy =                      -1284.4609101187381839
	 Singles Energy            =      -0.0000000000000000 [Eh]
	 Same-Spin Energy          =      -0.6540123915132992 [Eh]
	 Opposite-Spin Energy      =      -1.8506131152908836 [Eh]
	 Correlation Energy        =      -2.5046255068041825 [Eh]
	 Total Energy              =   -1286.9655356255423158 [Eh]
	 SCS Total Energy          =   -1286.8996499875916015 [Eh]
    Molecular point group: c1

    Geometry (in Angstrom), charge = 0, multiplicity = 1:

       Center              X                  Y                   Z               Mass
    ------------   -----------------  -----------------  -----------------  -----------------
         P            0.020383533861    -0.280874631795    -2.097064767079    30.973761998420
         O            1.048899533861    -0.723243631795    -3.231937767079    15.994914619570
         O            0.751373533861     1.018438368205    -1.584590767079    15.994914619570
         O           -0.328575466139    -1.311800631795    -1.094793767079    15.994914619570
         O           -1.298320466139     0.192217368205    -2.862336767079    15.994914619570
         H            0.522756533861     1.209292368205    -0.650119767079     1.007825032230
         H           -1.111968466139     0.871060368205    -3.520796767079     1.007825032230
         H            0.904587533861    -1.641296631795    -3.487713767079     1.007825032230
         P           -0.132030466139     0.164896368205     2.220428232921    30.973761998420
         O            1.011402533861     0.513526368205     3.278498232921    15.994914619570
         O           -0.042264466139     1.365278368205     1.109368232921    15.994914619570
         O           -1.485670466139     0.073503368205     2.794407232921    15.994914619570
         O            0.541043533861    -1.021512631795     1.459714232921    15.994914619570
         H           -0.783887466139     1.963777368205     1.260169232921     1.007825032230
         H            0.156813533861    -1.207046631795     0.562070232921     1.007825032230
         H            0.602343533861     0.679849368205     4.134744232921     1.007825032230

  Charge       = 0
  Multiplicity = 1
  Basis Set: AUG-CC-PVQZ
    Blend: AUG-CC-PVQZ
  Basis Set: (AUG-CC-PVQZ AUX)
    Blend: AUG-CC-PVQZ-JKFIT

    Orbital Energies [Eh]
    ---------------------

    Doubly Occupied:

       1A    -80.127670     2A    -80.105853     3A    -20.626351
       4A    -20.623670     5A    -20.621087     6A    -20.615825
       7A    -20.605398     8A    -20.588991     9A    -20.543813
      10A    -20.517328    11A     -7.644131    12A     -7.622319
      13A     -5.543049    14A     -5.542734    15A     -5.541824
      16A     -5.521371    17A     -5.521024    18A     -5.519543
      19A     -1.482610    20A     -1.462326    21A     -1.410144
      22A     -1.407384    23A     -1.397135    24A     -1.382181
      25A     -1.331006    26A     -1.302054    27A     -0.887155
      28A     -0.866526    29A     -0.805346    30A     -0.769395
      31A     -0.748283    32A     -0.728840    33A     -0.701373
      34A     -0.685457    35A     -0.674957    36A     -0.670893
      37A     -0.649363    38A     -0.632825    39A     -0.608694
      40A     -0.591823    41A     -0.588075    42A     -0.579539
      43A     -0.575901    44A     -0.550808    45A     -0.547446
      46A     -0.542313    47A     -0.508343    48A     -0.503470
      49A     -0.475512    50A     -0.474044

  @DF-RHF Final Energy: -1284.52649033679882

   => Energetics <=

    Nuclear Repulsion Energy =            861.5025760395895986
    One-Electron Energy =               -3492.1117060539236263
    Two-Electron Energy =                1346.0826396775350986
    Total Energy =                      -1284.5264903367988154

  Dipole Moment: [D]
     X:     0.7283      Y:     2.8013      Z:    -3.6128     Total:     4.6292

  Basis Set: (AUG-CC-PVQZ AUX)
    Blend: AUG-CC-PVQZ-RI
	 Reference Energy          =   -1284.5264903367988154 [Eh]
	 Singles Energy            =      -0.0000000000000000 [Eh]
	 Same-Spin Energy          =      -0.6939538476259870 [Eh]
	 Opposite-Spin Energy      =      -2.0975614268200431 [Eh]
	 Correlation Energy        =      -2.7915152744460299 [Eh]
	 Total Energy              =   -1287.3180056112448710 [Eh]

	 ================> DF-SCS-MP2 Energies <==================
	-----------------------------------------------------------
	 SCS Same-Spin Scale       =       0.3333333333333333 [-]
	 SCS Opposite-Spin Scale   =       1.2000000000000000 [-]
	 SCS Same-Spin Energy      =      -0.2313179492086623 [Eh]
	 SCS Opposite-Spin Energy  =      -2.5170737121840516 [Eh]
	 SCS Correlation Energy    =      -2.7483916613927137 [Eh]
	 SCS Total Energy          =   -1287.2748819981916313 [Eh]
	-----------------------------------------------------------

*** Psi4 exiting successfully. Buy a developer a beer!
