                               Psi4 1.4a2.dev224

  ==> Input File <==

--------------------------------------------------------------------------
#Generated by lconvert.py for cbs job

memory 20 GB

molecule  {
0 1
  P      -0.034540   -0.218720    1.198360
  O       0.993980   -0.661090    0.063490
  O       0.696450    1.080590    1.710840
  O      -0.383500   -1.249650    2.200630
  O      -1.353240    0.254370    0.433090
  H       0.467830    1.271440    2.645310
  H      -1.166890    0.933210   -0.225370
  H       0.849670   -1.579150   -0.192290
--
0 1
  P       0.205980    0.311850    6.857130
  O       1.349410    0.660480    7.915200
  O       0.295740    1.512230    5.746070
  O      -1.147660    0.220460    7.431110
  O       0.879050   -0.874560    6.096420
  H      -0.445880    2.110730    5.896870
  H       0.494820   -1.060090    5.198770
  H       0.940350    0.826810    8.771440
units angstrom
no_reorient
symmetry c1
}

set {
scf_type DF
mp2_type DF
e_convergence 7
reference rhf
}

energy('mp2/aug-cc-pv[tq]z', bsse_type='cp')
--------------------------------------------------------------------------

    Molecular point group: c1
  Charge       = 0
  Multiplicity = 1
  Basis Set: AUG-CC-PVTZ
    Blend: AUG-CC-PVTZ
  Basis Set: (AUG-CC-PVTZ AUX)
    Blend: AUG-CC-PVTZ-JKFIT
  @DF-RHF Final Energy:  -642.21744883039844
    Total Energy =                       -642.2174488303984390
  Basis Set: (AUG-CC-PVTZ AUX)
    Blend: AUG-CC-PVTZ-RI
	 Reference Energy          =    -642.2174488303984390 [Eh]
	 Singles Energy            =      -0.0000000000000000 [Eh]
	 Same-Spin Energy          =      -0.3245963802166260 [Eh]
	 Opposite-Spin Energy      =      -0.9225302344067829 [Eh]
	 Correlation Energy        =      -1.2471266146234088 [Eh]
	 Total Energy              =    -643.4645754450218647 [Eh]
	 SCS Total Energy          =    -643.4326839050921762 [Eh]
    Molecular point group: c1
  Basis Set: AUG-CC-PVQZ
    Blend: AUG-CC-PVQZ
  Basis Set: (AUG-CC-PVQZ AUX)
    Blend: AUG-CC-PVQZ-JKFIT
  @DF-RHF Final Energy:  -642.25033179439652
    Total Energy =                       -642.2503317943965158
  Basis Set: (AUG-CC-PVQZ AUX)
  @DF-RHF Final Energy:  -642.21751599356139
    Total Energy =                       -642.2175159935613920
  @DF-RHF Final Energy:  -642.25037177776812
    Total Energy =                       -642.2503717777681231
  @DF-RHF Final Energy:  -642.21931939872491
    Total Energy =                       -642.2193193987249060
  @DF-RHF Final Energy:  -642.25226566677350
    Total Energy =                       -642.2522656667734964
  @DF-RHF Final Energy:  -642.21923895631187
    Total Energy =                       -642.2192389563118695
  @DF-RHF Final Energy:  -642.25222423643618
    Total Energy =                       -642.2522242364361773
  Multiplicity = 1
  @DF-RHF Final Energy: -1284.44323290116995
    Total Energy =                      -1284.4432329011699494
	 Singles Energy            =      -0.0000000000000000 [Eh]
	 Same-Spin Energy          =      -0.6493837988002025 [Eh]
	 Opposite-Spin Energy      =      -1.8449193998805571 [Eh]
	 Correlation Energy        =      -2.4943031986807593 [Eh]
	 Total Energy              =   -1286.9375360998506039 [Eh]
	 SCS Total Energy          =   -1286.8735974472933776 [Eh]
    Molecular point group: c1

    Geometry (in Angstrom), charge = 0, multiplicity = 1:

       Center              X                  Y                   Z               Mass
    ------------   -----------------  -----------------  -----------------  -----------------
         P           -0.176082945525    -0.323273258961    -2.767704476039    30.973761998420
         O            0.852437054475    -0.765643258961    -3.902574476039    15.994914619570
         O            0.554907054475     0.976036741039    -2.255224476039    15.994914619570
         O           -0.525042945525    -1.354203258961    -1.765434476039    15.994914619570
         O           -1.494782945525     0.149816741039    -3.532974476039    15.994914619570
         H            0.326287054475     1.166886741039    -1.320754476039     1.007825032230
         H           -1.308432945525     0.828656741039    -4.191434476039     1.007825032230
         H            0.708127054475    -1.683703258961    -4.158354476039     1.007825032230
         P            0.064437054475     0.207296741039     2.891065523961    30.973761998420
         O            1.207867054475     0.555926741039     3.949135523961    15.994914619570
         O            0.154197054475     1.407676741039     1.780005523961    15.994914619570
         O           -1.289202945525     0.115906741039     3.465045523961    15.994914619570
         O            0.737507054475    -0.979113258961     2.130355523961    15.994914619570
         H           -0.587422945525     2.006176741039     1.930805523961     1.007825032230
         H            0.353277054475    -1.164643258961     1.232705523961     1.007825032230
         H            0.798807054475     0.722256741039     4.805375523961     1.007825032230

  Charge       = 0
  Multiplicity = 1
  Basis Set: AUG-CC-PVQZ
    Blend: AUG-CC-PVQZ
  Basis Set: (AUG-CC-PVQZ AUX)
    Blend: AUG-CC-PVQZ-JKFIT

    Orbital Energies [Eh]
    ---------------------

    Doubly Occupied:

       1A    -80.117439     2A    -80.109929     3A    -20.626839
       4A    -20.620353     5A    -20.618042     6A    -20.616891
       7A    -20.608665     8A    -20.607142     9A    -20.523994
      10A    -20.520192    11A     -7.634177    12A     -7.626391
      13A     -5.533165    14A     -5.532789    15A     -5.531561
      16A     -5.525342    17A     -5.525132    18A     -5.523674
      19A     -1.479265    20A     -1.465823    21A     -1.409094
      22A     -1.404383    23A     -1.396485    24A     -1.388547
      25A     -1.307305    26A     -1.304658    27A     -0.881788
      28A     -0.872716    29A     -0.797448    30A     -0.765544
      31A     -0.741965    32A     -0.735648    33A     -0.690447
      34A     -0.684635    35A     -0.670738    36A     -0.665292
      37A     -0.649417    38A     -0.635185    39A     -0.607059
      40A     -0.594366    41A     -0.590829    42A     -0.579934
      43A     -0.569052    44A     -0.553166    45A     -0.546427
      46A     -0.540881    47A     -0.486083    48A     -0.482397
      49A     -0.478908    50A     -0.476119

  @DF-RHF Final Energy: -1284.50901485887402

   => Energetics <=

    Nuclear Repulsion Energy =            790.9252572831842372
    One-Electron Energy =               -3351.1618899506861453
    Two-Electron Energy =                1275.7276178086278833
    Total Energy =                      -1284.5090148588740249

  Dipole Moment: [D]
     X:     0.9337      Y:     2.8648      Z:    -3.2751     Total:     4.4503

  Basis Set: (AUG-CC-PVQZ AUX)
    Blend: AUG-CC-PVQZ-RI
	 Reference Energy          =   -1284.5090148588740249 [Eh]
	 Singles Energy            =      -0.0000000000000000 [Eh]
	 Same-Spin Energy          =      -0.6895404362848052 [Eh]
	 Opposite-Spin Energy      =      -2.0938006538579264 [Eh]
	 Correlation Energy        =      -2.7833410901427316 [Eh]
	 Total Energy              =   -1287.2923559490168373 [Eh]

	 ================> DF-SCS-MP2 Energies <==================
	-----------------------------------------------------------
	 SCS Same-Spin Scale       =       0.3333333333333333 [-]
	 SCS Opposite-Spin Scale   =       1.2000000000000000 [-]
	 SCS Same-Spin Energy      =      -0.2298468120949351 [Eh]
	 SCS Opposite-Spin Energy  =      -2.5125607846295117 [Eh]
	 SCS Correlation Energy    =      -2.7424075967244468 [Eh]
	 SCS Total Energy          =   -1287.2514224555984583 [Eh]
	-----------------------------------------------------------

*** Psi4 exiting successfully. Buy a developer a beer!
