                               Psi4 1.4a2.dev224

  ==> Input File <==

--------------------------------------------------------------------------
#Generated by lconvert.py for cbs job

memory 40 GB

molecule  {
0 1
  P       -0.0345390    -0.2187240     1.1983610
  O        0.9939770    -0.6610930     0.0634880
  O        0.6964510     1.0805890     1.7108350
  O       -0.3834980    -1.2496500     2.2006320
  O       -1.3532430     0.2543680     0.4330890
  H        0.4678340     1.2714430     2.6453060
  H       -1.1668910     0.9332110    -0.2253710
  H        0.8496650    -1.5791460    -0.1922880
--
0 1
  P       -0.2331810     0.2170710     5.3580580
  O        0.9102520     0.5657010     6.4161280
  O       -0.1434150     1.4174530     4.2469980
  O       -1.5868210     0.1256780     5.9320370
  O        0.4398930    -0.9693380     4.5973440
  H       -0.8850380     2.0159520     4.3977990
  H        0.0556630    -1.1548720     3.6997000
  H        0.5011930     0.7320240     7.2723740
units angstrom
no_reorient
symmetry c1
}

set {
scf_type DF
mp2_type DF
e_convergence 7
reference rhf
}

energy('mp2/aug-cc-pv[tq]z', bsse_type='cp')
--------------------------------------------------------------------------

    Molecular point group: c1
  Charge       = 0
  Multiplicity = 1
  Basis Set: AUG-CC-PVTZ
    Blend: AUG-CC-PVTZ
  Basis Set: (AUG-CC-PVTZ AUX)
    Blend: AUG-CC-PVTZ-JKFIT
  @DF-RHF Final Energy:  -642.21744875863192
    Total Energy =                       -642.2174487586319174
  Basis Set: (AUG-CC-PVTZ AUX)
    Blend: AUG-CC-PVTZ-RI
	 Reference Energy          =    -642.2174487586319174 [Eh]
	 Singles Energy            =      -0.0000000000000000 [Eh]
	 Same-Spin Energy          =      -0.3245964661592987 [Eh]
	 Opposite-Spin Energy      =      -0.9225305167011234 [Eh]
	 Correlation Energy        =      -1.2471269828604221 [Eh]
	 Total Energy              =    -643.4645757414923537 [Eh]
	 SCS Total Energy          =    -643.4326842007263849 [Eh]
    Molecular point group: c1
  Basis Set: AUG-CC-PVQZ
    Blend: AUG-CC-PVQZ
  Basis Set: (AUG-CC-PVQZ AUX)
    Blend: AUG-CC-PVQZ-JKFIT
  @DF-RHF Final Energy:  -642.25033166066191
    Total Energy =                       -642.2503316606619137
  Basis Set: (AUG-CC-PVQZ AUX)
  @DF-RHF Final Energy:  -642.21782914570474
    Total Energy =                       -642.2178291457047408
  @DF-RHF Final Energy:  -642.25048174699157
    Total Energy =                       -642.2504817469915679
  @DF-RHF Final Energy:  -642.21965964699530
    Total Energy =                       -642.2196596469952965
  @DF-RHF Final Energy:  -642.25237598335957
    Total Energy =                       -642.2523759833595705
  @DF-RHF Final Energy:  -642.21923918090590
    Total Energy =                       -642.2192391809059018
  @DF-RHF Final Energy:  -642.25222446399664
    Total Energy =                       -642.2522244639966402
  Multiplicity = 1
  @DF-RHF Final Energy: -1284.45925358863633
    Total Energy =                      -1284.4592535886363294
	 Singles Energy            =      -0.0000000000000000 [Eh]
	 Same-Spin Energy          =      -0.6555191818687307 [Eh]
	 Opposite-Spin Energy      =      -1.8520996620652881 [Eh]
	 Correlation Energy        =      -2.5076188439340186 [Eh]
	 Total Energy              =   -1286.9668724325704261 [Eh]
	 SCS Total Energy          =   -1286.9002795770709326 [Eh]
    Molecular point group: c1

    Geometry (in Angstrom), charge = 0, multiplicity = 1:

       Center              X                  Y                   Z               Mass
    ------------   -----------------  -----------------  -----------------  -----------------
         P            0.043497533861    -0.275886631795    -2.018166767079    30.973761998420
         O            1.072013533861    -0.718255631795    -3.153039767079    15.994914619570
         O            0.774487533861     1.023426368205    -1.505692767079    15.994914619570
         O           -0.305461466139    -1.306812631795    -1.015895767079    15.994914619570
         O           -1.275206466139     0.197205368205    -2.783438767079    15.994914619570
         H            0.545870533861     1.214280368205    -0.571221767079     1.007825032230
         H           -1.088854466139     0.876048368205    -3.441898767079     1.007825032230
         H            0.927701533861    -1.636308631795    -3.408815767079     1.007825032230
         P           -0.155144466139     0.159908368205     2.141530232921    30.973761998420
         O            0.988288533861     0.508538368205     3.199600232921    15.994914619570
         O           -0.065378466139     1.360290368205     1.030470232921    15.994914619570
         O           -1.508784466139     0.068515368205     2.715509232921    15.994914619570
         O            0.517929533861    -1.026500631795     1.380816232921    15.994914619570
         H           -0.807001466139     1.958789368205     1.181271232921     1.007825032230
         H            0.133699533861    -1.212034631795     0.483172232921     1.007825032230
         H            0.579229533861     0.674861368205     4.055846232921     1.007825032230

  Charge       = 0
  Multiplicity = 1
  Basis Set: AUG-CC-PVQZ
    Blend: AUG-CC-PVQZ
  Basis Set: (AUG-CC-PVQZ AUX)
    Blend: AUG-CC-PVQZ-JKFIT

    Orbital Energies [Eh]
    ---------------------

    Doubly Occupied:

       1A    -80.130199     2A    -80.103804     3A    -20.627735
       4A    -20.625062     5A    -20.623824     6A    -20.611533
       7A    -20.603766     8A    -20.578635     9A    -20.548225
      10A    -20.516218    11A     -7.646603    12A     -7.620303
      13A     -5.545503    14A     -5.545195    15A     -5.544386
      16A     -5.519411    17A     -5.518971    18A     -5.517504
      19A     -1.483845    20A     -1.461928    21A     -1.411477
      22A     -1.407784    23A     -1.396849    24A     -1.379135
      25A     -1.336984    26A     -1.300909    27A     -0.889888
      28A     -0.864981    29A     -0.808576    30A     -0.771301
      31A     -0.753141    32A     -0.728679    33A     -0.703826
      34A     -0.685925    35A     -0.675898    36A     -0.671159
      37A     -0.648708    38A     -0.632946    39A     -0.609048
      40A     -0.590634    41A     -0.586930    42A     -0.577295
      43A     -0.574853    44A     -0.552145    45A     -0.545240
      46A     -0.540131    47A     -0.513922    48A     -0.506116
      49A     -0.474897    50A     -0.472109

  @DF-RHF Final Energy: -1284.52472964628851

   => Energetics <=

    Nuclear Repulsion Energy =            872.5754116972271959
    One-Electron Energy =               -3514.2319910255114337
    Two-Electron Energy =                1357.1318496819958455
    Total Energy =                      -1284.5247296462885060

  Dipole Moment: [D]
     X:     0.6577      Y:     2.7927      Z:    -3.7422     Total:     4.7155

  Basis Set: (AUG-CC-PVQZ AUX)
    Blend: AUG-CC-PVQZ-RI
	 Reference Energy          =   -1284.5247296462885060 [Eh]
	 Singles Energy            =      -0.0000000000000000 [Eh]
	 Same-Spin Energy          =      -0.6954717071580070 [Eh]
	 Opposite-Spin Energy      =      -2.0988208124375958 [Eh]
	 Correlation Energy        =      -2.7942925195956025 [Eh]
	 Total Energy              =   -1287.3190221658840073 [Eh]

	 ================> DF-SCS-MP2 Energies <==================
	-----------------------------------------------------------
	 SCS Same-Spin Scale       =       0.3333333333333333 [-]
	 SCS Opposite-Spin Scale   =       1.2000000000000000 [-]
	 SCS Same-Spin Energy      =      -0.2318239023860023 [Eh]
	 SCS Opposite-Spin Energy  =      -2.5185849749251150 [Eh]
	 SCS Correlation Energy    =      -2.7504088773111173 [Eh]
	 SCS Total Energy          =   -1287.2751385235997077 [Eh]
	-----------------------------------------------------------

*** Psi4 exiting successfully. Buy a developer a beer!
