                               Psi4 1.4a2.dev224

  ==> Input File <==

--------------------------------------------------------------------------
#Generated by lconvert.py for cbs job

memory 40 GB

molecule  {
0 1
  P       -0.0345390    -0.2187240     1.1983610
  O        0.9939770    -0.6610930     0.0634880
  O        0.6964510     1.0805890     1.7108350
  O       -0.3834980    -1.2496500     2.2006320
  O       -1.3532430     0.2543680     0.4330890
  H        0.4678340     1.2714430     2.6453060
  H       -1.1668910     0.9332110    -0.2253710
  H        0.8496650    -1.5791460    -0.1922880
--
0 1
  P       -0.2562940     0.2120820     5.2791590
  O        0.8871390     0.5607120     6.3372290
  O       -0.1665280     1.4124640     4.1680990
  O       -1.6099350     0.1206890     5.8531380
  O        0.4167800    -0.9743270     4.5184450
  H       -0.9081520     2.0109630     4.3189000
  H        0.0325500    -1.1598610     3.6208010
  H        0.4780790     0.7270350     7.1934750
units angstrom
no_reorient
symmetry c1
}

set {
scf_type DF
mp2_type DF
e_convergence 7
reference rhf
}

energy('mp2/aug-cc-pv[tq]z', bsse_type='cp')
--------------------------------------------------------------------------

    Molecular point group: c1
  Charge       = 0
  Multiplicity = 1
  Basis Set: AUG-CC-PVTZ
    Blend: AUG-CC-PVTZ
  Basis Set: (AUG-CC-PVTZ AUX)
    Blend: AUG-CC-PVTZ-JKFIT
  @DF-RHF Final Energy:  -642.21744863073002
    Total Energy =                       -642.2174486307300185
  Basis Set: (AUG-CC-PVTZ AUX)
    Blend: AUG-CC-PVTZ-RI
	 Reference Energy          =    -642.2174486307300185 [Eh]
	 Singles Energy            =      -0.0000000000000000 [Eh]
	 Same-Spin Energy          =      -0.3245965032928257 [Eh]
	 Opposite-Spin Energy      =      -0.9225306042652432 [Eh]
	 Correlation Energy        =      -1.2471271075580690 [Eh]
	 Total Energy              =    -643.4645757382880902 [Eh]
	 SCS Total Energy          =    -643.4326841902792466 [Eh]
    Molecular point group: c1
  Basis Set: AUG-CC-PVQZ
    Blend: AUG-CC-PVQZ
  Basis Set: (AUG-CC-PVQZ AUX)
    Blend: AUG-CC-PVQZ-JKFIT
  @DF-RHF Final Energy:  -642.25033151449747
    Total Energy =                       -642.2503315144974749
  Basis Set: (AUG-CC-PVQZ AUX)
  @DF-RHF Final Energy:  -642.21786184450809
    Total Energy =                       -642.2178618445080929
  @DF-RHF Final Energy:  -642.25049104683399
    Total Energy =                       -642.2504910468339858
  @DF-RHF Final Energy:  -642.21969732732873
    Total Energy =                       -642.2196973273287313
  @DF-RHF Final Energy:  -642.25238551300970
    Total Energy =                       -642.2523855130096990
  @DF-RHF Final Energy:  -642.21923918024902
    Total Energy =                       -642.2192391802490192
  @DF-RHF Final Energy:  -642.25222446561713
    Total Energy =                       -642.2522244656171324
  Multiplicity = 1
  @DF-RHF Final Energy: -1284.45640975495735
    Total Energy =                      -1284.4564097549573489
	 Singles Energy            =      -0.0000000000000000 [Eh]
	 Same-Spin Energy          =      -0.6564105277414003 [Eh]
	 Opposite-Spin Energy      =      -1.8529514619740015 [Eh]
	 Correlation Energy        =      -2.5093619897154018 [Eh]
	 Total Energy              =   -1286.9657717446727929 [Eh]
	 SCS Total Energy          =   -1286.8987550185731834 [Eh]
    Molecular point group: c1

    Geometry (in Angstrom), charge = 0, multiplicity = 1:

       Center              X                  Y                   Z               Mass
    ------------   -----------------  -----------------  -----------------  -----------------
         P            0.055054125773    -0.273392131795    -1.978717267079    30.973761998420
         O            1.083570125773    -0.715761131795    -3.113590267079    15.994914619570
         O            0.786044125773     1.025920868205    -1.466243267079    15.994914619570
         O           -0.293904874227    -1.304318131795    -0.976446267079    15.994914619570
         O           -1.263649874227     0.199699868205    -2.743989267079    15.994914619570
         H            0.557427125773     1.216774868205    -0.531772267079     1.007825032230
         H           -1.077297874227     0.878542868205    -3.402449267079     1.007825032230
         H            0.939258125773    -1.633814131795    -3.369366267079     1.007825032230
         P           -0.166700874227     0.157413868205     2.102080732921    30.973761998420
         O            0.976732125773     0.506043868205     3.160150732921    15.994914619570
         O           -0.076934874227     1.357795868205     0.991020732921    15.994914619570
         O           -1.520341874227     0.066020868205     2.676059732921    15.994914619570
         O            0.506373125773    -1.028995131795     1.341366732921    15.994914619570
         H           -0.818558874227     1.956294868205     1.141821732921     1.007825032230
         H            0.122143125773    -1.214529131795     0.443722732921     1.007825032230
         H            0.567672125773     0.672366868205     4.016396732921     1.007825032230

  Charge       = 0
  Multiplicity = 1
  Basis Set: AUG-CC-PVQZ
    Blend: AUG-CC-PVQZ
  Basis Set: (AUG-CC-PVQZ AUX)
    Blend: AUG-CC-PVQZ-JKFIT

    Orbital Energies [Eh]
    ---------------------

    Doubly Occupied:

       1A    -80.131709     2A    -80.102447     3A    -20.628558
       4A    -20.625908     5A    -20.625242     6A    -20.608980
       7A    -20.602691     8A    -20.572161     9A    -20.550651
      10A    -20.515506    11A     -7.648084    12A     -7.618973
      13A     -5.546973    14A     -5.546666    15A     -5.545919
      16A     -5.518113    17A     -5.517619    18A     -5.516158
      19A     -1.484781    20A     -1.461902    21A     -1.412285
      22A     -1.408249    23A     -1.396287    24A     -1.378451
      25A     -1.339627    26A     -1.300143    27A     -0.891868
      28A     -0.864249    29A     -0.810851    30A     -0.772718
      31A     -0.756562    32A     -0.729357    33A     -0.704804
      34A     -0.686342    35A     -0.676533    36A     -0.670777
      37A     -0.648280    38A     -0.633186    39A     -0.609397
      40A     -0.589956    41A     -0.585457    42A     -0.577131
      43A     -0.573115    44A     -0.553113    45A     -0.543856
      46A     -0.538628    47A     -0.517203    48A     -0.506353
      49A     -0.474450    50A     -0.470840

  @DF-RHF Final Energy: -1284.52183303362335

   => Energetics <=

    Nuclear Repulsion Energy =            878.4061268428769154
    One-Electron Energy =               -3525.8776833263154913
    Two-Electron Energy =                1362.9497234498153375
    Total Energy =                      -1284.5218330336233521

  Dipole Moment: [D]
     X:     0.6155      Y:     2.7879      Z:    -3.8253     Total:     4.7733

  Basis Set: (AUG-CC-PVQZ AUX)
    Blend: AUG-CC-PVQZ-RI
	 Reference Energy          =   -1284.5218330336233521 [Eh]
	 Singles Energy            =      -0.0000000000000000 [Eh]
	 Same-Spin Energy          =      -0.6963727421001948 [Eh]
	 Opposite-Spin Energy      =      -2.0995722058635331 [Eh]
	 Correlation Energy        =      -2.7959449479637279 [Eh]
	 Total Energy              =   -1287.3177779815871418 [Eh]

	 ================> DF-SCS-MP2 Energies <==================
	-----------------------------------------------------------
	 SCS Same-Spin Scale       =       0.3333333333333333 [-]
	 SCS Opposite-Spin Scale   =       1.2000000000000000 [-]
	 SCS Same-Spin Energy      =      -0.2321242473667316 [Eh]
	 SCS Opposite-Spin Energy  =      -2.5194866470362398 [Eh]
	 SCS Correlation Energy    =      -2.7516108944029716 [Eh]
	 SCS Total Energy          =   -1287.2734439280263814 [Eh]
	-----------------------------------------------------------

*** Psi4 exiting successfully. Buy a developer a beer!
