                               Psi4 1.4a2.dev224

  ==> Input File <==

--------------------------------------------------------------------------
#Generated by lconvert.py for cbs job

memory 20 GB

molecule  {
0 1
  P      -0.034540   -0.218720    1.198360
  O       0.993980   -0.661090    0.063490
  O       0.696450    1.080590    1.710840
  O      -0.383500   -1.249650    2.200630
  O      -1.353240    0.254370    0.433090
  H       0.467830    1.271440    2.645310
  H      -1.166890    0.933210   -0.225370
  H       0.849670   -1.579150   -0.192290
--
0 1
  P      -0.071390    0.251990    5.910350
  O       1.072050    0.600620    6.968420
  O       0.018380    1.452370    4.799290
  O      -1.425030    0.160600    6.484330
  O       0.601690   -0.934420    5.149630
  H      -0.723240    2.050870    4.950090
  H       0.217460   -1.119950    4.251990
  H       0.662990    0.766940    7.824660
units angstrom
no_reorient
symmetry c1
}

set {
scf_type DF
mp2_type DF
e_convergence 7
reference rhf
}

energy('mp2/aug-cc-pv[tq]z', bsse_type='cp')
--------------------------------------------------------------------------

    Molecular point group: c1
  Charge       = 0
  Multiplicity = 1
  Basis Set: AUG-CC-PVTZ
    Blend: AUG-CC-PVTZ
  Basis Set: (AUG-CC-PVTZ AUX)
    Blend: AUG-CC-PVTZ-JKFIT
  @DF-RHF Final Energy:  -642.21744905367621
    Total Energy =                       -642.2174490536762050
  Basis Set: (AUG-CC-PVTZ AUX)
    Blend: AUG-CC-PVTZ-RI
	 Reference Energy          =    -642.2174490536762050 [Eh]
	 Singles Energy            =      -0.0000000000000000 [Eh]
	 Same-Spin Energy          =      -0.3245964683767984 [Eh]
	 Opposite-Spin Energy      =      -0.9225306395600571 [Eh]
	 Correlation Energy        =      -1.2471271079368556 [Eh]
	 Total Energy              =    -643.4645761616130812 [Eh]
	 SCS Total Energy          =    -643.4326846439405472 [Eh]
    Molecular point group: c1
  Basis Set: AUG-CC-PVQZ
    Blend: AUG-CC-PVQZ
  Basis Set: (AUG-CC-PVQZ AUX)
    Blend: AUG-CC-PVQZ-JKFIT
  @DF-RHF Final Energy:  -642.25033187251665
    Total Energy =                       -642.2503318725166537
  Basis Set: (AUG-CC-PVQZ AUX)
  @DF-RHF Final Energy:  -642.21766934362324
    Total Energy =                       -642.2176693436232426
  @DF-RHF Final Energy:  -642.25043047077395
    Total Energy =                       -642.2504304707739493
  @DF-RHF Final Energy:  -642.21947284777934
    Total Energy =                       -642.2194728477793433
  @DF-RHF Final Energy:  -642.25232065405714
    Total Energy =                       -642.2523206540571437
  @DF-RHF Final Energy:  -642.21923895562202
    Total Energy =                       -642.2192389556220178
  @DF-RHF Final Energy:  -642.25222423595676
    Total Energy =                       -642.2522242359567599
  Multiplicity = 1
  @DF-RHF Final Energy: -1284.45579805639227
    Total Energy =                      -1284.4557980563922683
	 Singles Energy            =      -0.0000000000000000 [Eh]
	 Same-Spin Energy          =      -0.6515497648380866 [Eh]
	 Opposite-Spin Energy      =      -1.8480359360637320 [Eh]
	 Correlation Energy        =      -2.4995857009018185 [Eh]
	 Total Energy              =   -1286.9553837572941575 [Eh]
	 SCS Total Energy          =   -1286.8906244346146650 [Eh]
    Molecular point group: c1

    Geometry (in Angstrom), charge = 0, multiplicity = 1:

       Center              X                  Y                   Z               Mass
    ------------   -----------------  -----------------  -----------------  -----------------
         P           -0.037400548599    -0.293343207529    -2.294313659779    30.973761998420
         O            0.991119451401    -0.735713207529    -3.429183659779    15.994914619570
         O            0.693589451401     1.005966792471    -1.781833659779    15.994914619570
         O           -0.386360548599    -1.324273207529    -1.292043659779    15.994914619570
         O           -1.356100548599     0.179746792471    -3.059583659779    15.994914619570
         H            0.464969451401     1.196816792471    -0.847363659779     1.007825032230
         H           -1.169750548599     0.858586792471    -3.718043659779     1.007825032230
         H            0.846809451401    -1.653773207529    -3.684963659779     1.007825032230
         P           -0.074250548599     0.177366792471     2.417676340221    30.973761998420
         O            1.069189451401     0.525996792471     3.475746340221    15.994914619570
         O            0.015519451401     1.377746792471     1.306616340221    15.994914619570
         O           -1.427890548599     0.085976792471     2.991656340221    15.994914619570
         O            0.598829451401    -1.009043207529     1.656956340221    15.994914619570
         H           -0.726100548599     1.976246792471     1.457416340221     1.007825032230
         H            0.214599451401    -1.194573207529     0.759316340221     1.007825032230
         H            0.660129451401     0.692316792471     4.331986340221     1.007825032230

  Charge       = 0
  Multiplicity = 1
  Basis Set: AUG-CC-PVQZ
    Blend: AUG-CC-PVQZ
  Basis Set: (AUG-CC-PVQZ AUX)
    Blend: AUG-CC-PVQZ-JKFIT

    Orbital Energies [Eh]
    ---------------------

    Doubly Occupied:

       1A    -80.123219     2A    -80.108509     3A    -20.623868
       4A    -20.622578     5A    -20.621280     6A    -20.615232
       7A    -20.607522     8A    -20.604468     9A    -20.535213
      10A    -20.518913    11A     -7.639803    12A     -7.624950
      13A     -5.538757    14A     -5.538415    15A     -5.537343
      16A     -5.523921    17A     -5.523706    18A     -5.522205
      19A     -1.481174    20A     -1.463800    21A     -1.408568
      22A     -1.407504    23A     -1.395149    24A     -1.388792
      25A     -1.319601    26A     -1.303578    27A     -0.884032
      28A     -0.869639    29A     -0.801219    30A     -0.767157
      31A     -0.743572    32A     -0.731900    33A     -0.695347
      34A     -0.685812    35A     -0.673332    36A     -0.668354
      37A     -0.649766    38A     -0.634219    39A     -0.608448
      40A     -0.593059    41A     -0.586480    42A     -0.584989
      43A     -0.574654    44A     -0.551503    45A     -0.548150
      46A     -0.543740    47A     -0.498506    48A     -0.494452
      49A     -0.476811    50A     -0.476053

  @DF-RHF Final Energy: -1284.52146934076200

   => Energetics <=

    Nuclear Repulsion Energy =            836.8329465660804090
    One-Electron Energy =               -3442.8302921588942809
    Two-Electron Energy =                1321.4758762520518758
    Total Energy =                      -1284.5214693407619961

  Dipole Moment: [D]
     X:     0.8409      Y:     2.8203      Z:    -3.4279     Total:     4.5179

  Basis Set: (AUG-CC-PVQZ AUX)
    Blend: AUG-CC-PVQZ-RI
	 Reference Energy          =   -1284.5214693407619961 [Eh]
	 Singles Energy            =      -0.0000000000000000 [Eh]
	 Same-Spin Energy          =      -0.6915155715282231 [Eh]
	 Opposite-Spin Energy      =      -2.0955524724352608 [Eh]
	 Correlation Energy        =      -2.7870680439634841 [Eh]
	 Total Energy              =   -1287.3085373847254687 [Eh]

	 ================> DF-SCS-MP2 Energies <==================
	-----------------------------------------------------------
	 SCS Same-Spin Scale       =       0.3333333333333333 [-]
	 SCS Opposite-Spin Scale   =       1.2000000000000000 [-]
	 SCS Same-Spin Energy      =      -0.2305051905094077 [Eh]
	 SCS Opposite-Spin Energy  =      -2.5146629669223128 [Eh]
	 SCS Correlation Energy    =      -2.7451681574317206 [Eh]
	 SCS Total Energy          =   -1287.2666374981936315 [Eh]
	-----------------------------------------------------------

*** Psi4 exiting successfully. Buy a developer a beer!
