                               Psi4 1.4a2.dev224

  ==> Input File <==

--------------------------------------------------------------------------
#Generated by lconvert.py for cbs job

memory 40 GB

molecule  {
0 1
  P       -0.0345390    -0.2187240     1.1983610
  O        0.9939770    -0.6610930     0.0634880
  O        0.6964510     1.0805890     1.7108350
  O       -0.3834980    -1.2496500     2.2006320
  O       -1.3532430     0.2543680     0.4330890
  H        0.4678340     1.2714430     2.6453060
  H       -1.1668910     0.9332110    -0.2253710
  H        0.8496650    -1.5791460    -0.1922880
--
0 1
  P       -0.3025220     0.2021060     5.1213630
  O        0.8409110     0.5507360     6.1794330
  O       -0.2127560     1.4024880     4.0103030
  O       -1.6561620     0.1107130     5.6953420
  O        0.3705520    -0.9843030     4.3606490
  H       -0.9543790     2.0009870     4.1611040
  H       -0.0136780    -1.1698370     3.4630050
  H        0.4318520     0.7170590     7.0356790
units angstrom
no_reorient
symmetry c1
}

set {
scf_type DF
mp2_type DF
e_convergence 7
reference rhf
}

energy('mp2/aug-cc-pv[tq]z', bsse_type='cp')
--------------------------------------------------------------------------

    Molecular point group: c1
  Charge       = 0
  Multiplicity = 1
  Basis Set: AUG-CC-PVTZ
    Blend: AUG-CC-PVTZ
  Basis Set: (AUG-CC-PVTZ AUX)
    Blend: AUG-CC-PVTZ-JKFIT
  @DF-RHF Final Energy:  -642.21744875872002
    Total Energy =                       -642.2174487587200247
  Basis Set: (AUG-CC-PVTZ AUX)
    Blend: AUG-CC-PVTZ-RI
	 Reference Energy          =    -642.2174487587200247 [Eh]
	 Singles Energy            =      -0.0000000000000000 [Eh]
	 Same-Spin Energy          =      -0.3245964661598607 [Eh]
	 Opposite-Spin Energy      =      -0.9225305167008657 [Eh]
	 Correlation Energy        =      -1.2471269828607263 [Eh]
	 Total Energy              =    -643.4645757415808021 [Eh]
	 SCS Total Energy          =    -643.4326842008143785 [Eh]
    Molecular point group: c1
  Basis Set: AUG-CC-PVQZ
    Blend: AUG-CC-PVQZ
  Basis Set: (AUG-CC-PVQZ AUX)
    Blend: AUG-CC-PVQZ-JKFIT
  @DF-RHF Final Energy:  -642.25033165972138
    Total Energy =                       -642.2503316597213825
  Basis Set: (AUG-CC-PVQZ AUX)
  @DF-RHF Final Energy:  -642.21793669713475
    Total Energy =                       -642.2179366971347463
  @DF-RHF Final Energy:  -642.25051169802725
    Total Energy =                       -642.2505116980272533
  @DF-RHF Final Energy:  -642.21977641199896
    Total Energy =                       -642.2197764119989642
  @DF-RHF Final Energy:  -642.25240510313267
    Total Energy =                       -642.2524051031326735
  @DF-RHF Final Energy:  -642.21923918078880
    Total Energy =                       -642.2192391807888043
  @DF-RHF Final Energy:  -642.25222446485157
    Total Energy =                       -642.2522244648515652
  Multiplicity = 1
  @DF-RHF Final Energy: -1284.44356477680799
    Total Energy =                      -1284.4435647768079889
	 Singles Energy            =      -0.0000000000000000 [Eh]
	 Same-Spin Energy          =      -0.6584773537315020 [Eh]
	 Opposite-Spin Energy      =      -1.8548526173933511 [Eh]
	 Correlation Energy        =      -2.5133299711248531 [Eh]
	 Total Energy              =   -1286.9568947479328926 [Eh]
	 SCS Total Energy          =   -1286.8888803689237648 [Eh]
    Molecular point group: c1

    Geometry (in Angstrom), charge = 0, multiplicity = 1:

       Center              X                  Y                   Z               Mass
    ------------   -----------------  -----------------  -----------------  -----------------
         P            0.078168033861    -0.268404131795    -1.899819267079    30.973761998420
         O            1.106684033861    -0.710773131795    -3.034692267079    15.994914619570
         O            0.809158033861     1.030908868205    -1.387345267079    15.994914619570
         O           -0.270790966139    -1.299330131795    -0.897548267079    15.994914619570
         O           -1.240535966139     0.204687868205    -2.665091267079    15.994914619570
         H            0.580541033861     1.221762868205    -0.452874267079     1.007825032230
         H           -1.054183966139     0.883530868205    -3.323551267079     1.007825032230
         H            0.962372033861    -1.628826131795    -3.290468267079     1.007825032230
         P           -0.189814966139     0.152425868205     2.023182732921    30.973761998420
         O            0.953618033861     0.501055868205     3.081252732921    15.994914619570
         O           -0.100048966139     1.352807868205     0.912122732921    15.994914619570
         O           -1.543454966139     0.061032868205     2.597161732921    15.994914619570
         O            0.483259033861    -1.033983131795     1.262468732921    15.994914619570
         H           -0.841671966139     1.951306868205     1.062923732921     1.007825032230
         H            0.099029033861    -1.219517131795     0.364824732921     1.007825032230
         H            0.544559033861     0.667378868205     3.937498732921     1.007825032230

  Charge       = 0
  Multiplicity = 1
  Basis Set: AUG-CC-PVQZ
    Blend: AUG-CC-PVQZ
  Basis Set: (AUG-CC-PVQZ AUX)
    Blend: AUG-CC-PVQZ-JKFIT

    Orbital Energies [Eh]
    ---------------------

    Doubly Occupied:

       1A    -80.135358     2A    -80.098875     3A    -20.630554
       4A    -20.628080     5A    -20.628002     6A    -20.603041
       7A    -20.599875     8A    -20.556061     9A    -20.555836
      10A    -20.513681    11A     -7.651676    12A     -7.615482
      13A     -5.550543    14A     -5.550231    15A     -5.549634
      16A     -5.514698    17A     -5.514078    18A     -5.512620
      19A     -1.487761    20A     -1.462520    21A     -1.414268
      22A     -1.409477    23A     -1.394966    24A     -1.382355
      25A     -1.340840    26A     -1.298076    27A     -0.897792
      28A     -0.863338    29A     -0.817392    30A     -0.777186
      31A     -0.765344    32A     -0.732788    33A     -0.706215
      34A     -0.687093    35A     -0.678247    36A     -0.668946
      37A     -0.647344    38A     -0.633549    39A     -0.610521
      40A     -0.588394    41A     -0.582029    42A     -0.576079
      43A     -0.569171    44A     -0.555392    45A     -0.541019
      46A     -0.535762    47A     -0.523260    48A     -0.502907
      49A     -0.473162    50A     -0.467483

  @DF-RHF Final Energy: -1284.50890261241580

   => Energetics <=

    Nuclear Repulsion Energy =            890.7106785105947893
    One-Electron Energy =               -3550.4411465696675805
    Two-Electron Energy =                1375.2215654466569958
    Total Energy =                      -1284.5089026124157954

  Dipole Moment: [D]
     X:     0.5160      Y:     2.7763      Z:    -4.0387     Total:     4.9280

  Basis Set: (AUG-CC-PVQZ AUX)
    Blend: AUG-CC-PVQZ-RI
	 Reference Energy          =   -1284.5089026124157954 [Eh]
	 Singles Energy            =      -0.0000000000000000 [Eh]
	 Same-Spin Energy          =      -0.6984568493287983 [Eh]
	 Opposite-Spin Energy      =      -2.1012742353837339 [Eh]
	 Correlation Energy        =      -2.7997310847125321 [Eh]
	 Total Energy              =   -1287.3086336971282435 [Eh]

	 ================> DF-SCS-MP2 Energies <==================
	-----------------------------------------------------------
	 SCS Same-Spin Scale       =       0.3333333333333333 [-]
	 SCS Opposite-Spin Scale   =       1.2000000000000000 [-]
	 SCS Same-Spin Energy      =      -0.2328189497762661 [Eh]
	 SCS Opposite-Spin Energy  =      -2.5215290824604808 [Eh]
	 SCS Correlation Energy    =      -2.7543480322367468 [Eh]
	 SCS Total Energy          =   -1287.2632506446525440 [Eh]
	-----------------------------------------------------------

*** Psi4 exiting successfully. Buy a developer a beer!
