                               Psi4 1.4a2.dev224

  ==> Input File <==

--------------------------------------------------------------------------
#Generated by lconvert.py for cbs job

memory 40 GB

molecule  {
0 1
  P       -0.0345390    -0.2187240     1.1983610
  O        0.9939770    -0.6610930     0.0634880
  O        0.6964510     1.0805890     1.7108350
  O       -0.3834980    -1.2496500     2.2006320
  O       -1.3532430     0.2543680     0.4330890
  H        0.4678340     1.2714430     2.6453060
  H       -1.1668910     0.9332110    -0.2253710
  H        0.8496650    -1.5791460    -0.1922880
--
0 1
  P       -0.2100670     0.2220590     5.4369560
  O        0.9333660     0.5706890     6.4950260
  O       -0.1203010     1.4224410     4.3258960
  O       -1.5637070     0.1306660     6.0109350
  O        0.4630070    -0.9643500     4.6762420
  H       -0.8619240     2.0209400     4.4766970
  H        0.0787770    -1.1498840     3.7785980
  H        0.5243070     0.7370120     7.3512720
units angstrom
no_reorient
symmetry c1
}

set {
scf_type DF
mp2_type DF
e_convergence 7
reference rhf
}

energy('mp2/aug-cc-pv[tq]z', bsse_type='cp')
--------------------------------------------------------------------------

    Molecular point group: c1
  Charge       = 0
  Multiplicity = 1
  Basis Set: AUG-CC-PVTZ
    Blend: AUG-CC-PVTZ
  Basis Set: (AUG-CC-PVTZ AUX)
    Blend: AUG-CC-PVTZ-JKFIT
  @DF-RHF Final Energy:  -642.21744875932495
    Total Energy =                       -642.2174487593249523
  Basis Set: (AUG-CC-PVTZ AUX)
    Blend: AUG-CC-PVTZ-RI
	 Reference Energy          =    -642.2174487593249523 [Eh]
	 Singles Energy            =      -0.0000000000000000 [Eh]
	 Same-Spin Energy          =      -0.3245964661591374 [Eh]
	 Opposite-Spin Energy      =      -0.9225305166963653 [Eh]
	 Correlation Energy        =      -1.2471269828555027 [Eh]
	 Total Energy              =    -643.4645757421805001 [Eh]
	 SCS Total Energy          =    -643.4326842014136218 [Eh]
    Molecular point group: c1
  Basis Set: AUG-CC-PVQZ
    Blend: AUG-CC-PVQZ
  Basis Set: (AUG-CC-PVQZ AUX)
    Blend: AUG-CC-PVQZ-JKFIT
  @DF-RHF Final Energy:  -642.25033165986815
    Total Energy =                       -642.2503316598681522
  Basis Set: (AUG-CC-PVQZ AUX)
  @DF-RHF Final Energy:  -642.21779856350929
    Total Energy =                       -642.2177985635092909
  @DF-RHF Final Energy:  -642.25047275282259
    Total Energy =                       -642.2504727528225885
  @DF-RHF Final Energy:  -642.21962384564017
    Total Energy =                       -642.2196238456401716
  @DF-RHF Final Energy:  -642.25236657135633
    Total Energy =                       -642.2523665713563332
  @DF-RHF Final Energy:  -642.21923918006905
    Total Energy =                       -642.2192391800690530
  @DF-RHF Final Energy:  -642.25222446406508
    Total Energy =                       -642.2522244640650797
  Multiplicity = 1
  @DF-RHF Final Energy: -1284.46060285468957
    Total Energy =                      -1284.4606028546895686
	 Singles Energy            =      -0.0000000000000000 [Eh]
	 Same-Spin Energy          =      -0.6547214464099995 [Eh]
	 Opposite-Spin Energy      =      -1.8513196599942494 [Eh]
	 Correlation Energy        =      -2.5060411064042487 [Eh]
	 Total Energy              =   -1286.9666439610937232 [Eh]
	 SCS Total Energy          =   -1286.9004269288193427 [Eh]
    Molecular point group: c1

    Geometry (in Angstrom), charge = 0, multiplicity = 1:

       Center              X                  Y                   Z               Mass
    ------------   -----------------  -----------------  -----------------  -----------------
         P            0.031940533861    -0.278380631795    -2.057615767079    30.973761998420
         O            1.060456533861    -0.720749631795    -3.192488767079    15.994914619570
         O            0.762930533861     1.020932368205    -1.545141767079    15.994914619570
         O           -0.317018466139    -1.309306631795    -1.055344767079    15.994914619570
         O           -1.286763466139     0.194711368205    -2.822887767079    15.994914619570
         H            0.534313533861     1.211786368205    -0.610670767079     1.007825032230
         H           -1.100411466139     0.873554368205    -3.481347767079     1.007825032230
         H            0.916144533861    -1.638802631795    -3.448264767079     1.007825032230
         P           -0.143587466139     0.162402368205     2.180979232921    30.973761998420
         O            0.999845533861     0.511032368205     3.239049232921    15.994914619570
         O           -0.053821466139     1.362784368205     1.069919232921    15.994914619570
         O           -1.497227466139     0.071009368205     2.754958232921    15.994914619570
         O            0.529486533861    -1.024006631795     1.420265232921    15.994914619570
         H           -0.795444466139     1.961283368205     1.220720232921     1.007825032230
         H            0.145256533861    -1.209540631795     0.522621232921     1.007825032230
         H            0.590786533861     0.677355368205     4.095295232921     1.007825032230

  Charge       = 0
  Multiplicity = 1
  Basis Set: AUG-CC-PVQZ
    Blend: AUG-CC-PVQZ
  Basis Set: (AUG-CC-PVQZ AUX)
    Blend: AUG-CC-PVQZ-JKFIT

    Orbital Energies [Eh]
    ---------------------

    Doubly Occupied:

       1A    -80.128862     2A    -80.104927     3A    -20.627004
       4A    -20.624322     5A    -20.622435     6A    -20.613810
       7A    -20.604660     8A    -20.584208     9A    -20.545944
      10A    -20.516820    11A     -7.645295    12A     -7.621407
      13A     -5.544204    14A     -5.543893    15A     -5.543030
      16A     -5.520485    17A     -5.520095    18A     -5.518621
      19A     -1.483143    20A     -1.462086    21A     -1.410768
      22A     -1.407491    23A     -1.397132    24A     -1.380541
      25A     -1.333978    26A     -1.301537    27A     -0.888352
      28A     -0.865757    29A     -0.806779    30A     -0.770226
      31A     -0.750402    32A     -0.728564    33A     -0.702662
      34A     -0.685615    35A     -0.675385    36A     -0.671172
      37A     -0.649073    38A     -0.632812    39A     -0.608824
      40A     -0.591268    41A     -0.587786    42A     -0.578096
      43A     -0.575782    44A     -0.551372    45A     -0.546459
      46A     -0.541363    47A     -0.510959    48A     -0.505052
      49A     -0.475244    50A     -0.473165

  @DF-RHF Final Energy: -1284.52613305698424

   => Energetics <=

    Nuclear Repulsion Energy =            866.9442481527164546
    One-Electron Energy =               -3502.9830118324744035
    Two-Electron Energy =                1351.5126306227734858
    Total Energy =                      -1284.5261330569842357

  Dipole Moment: [D]
     X:     0.6952      Y:     2.7972      Z:    -3.6720     Total:     4.6680

  Basis Set: (AUG-CC-PVQZ AUX)
    Blend: AUG-CC-PVQZ-RI
	 Reference Energy          =   -1284.5261330569842357 [Eh]
	 Singles Energy            =      -0.0000000000000000 [Eh]
	 Same-Spin Energy          =      -0.6946668055526835 [Eh]
	 Opposite-Spin Energy      =      -2.0981509397109388 [Eh]
	 Correlation Energy        =      -2.7928177452636223 [Eh]
	 Total Energy              =   -1287.3189508022478549 [Eh]

	 ================> DF-SCS-MP2 Energies <==================
	-----------------------------------------------------------
	 SCS Same-Spin Scale       =       0.3333333333333333 [-]
	 SCS Opposite-Spin Scale   =       1.2000000000000000 [-]
	 SCS Same-Spin Energy      =      -0.2315556018508945 [Eh]
	 SCS Opposite-Spin Energy  =      -2.5177811276531266 [Eh]
	 SCS Correlation Energy    =      -2.7493367295040212 [Eh]
	 SCS Total Energy          =   -1287.2754697864882019 [Eh]
	-----------------------------------------------------------

*** Psi4 exiting successfully. Buy a developer a beer!
