                               Psi4 1.4a2.dev224

  ==> Input File <==

--------------------------------------------------------------------------
#Generated by lconvert.py for cbs job

memory 40 GB

molecule  {
0 1
  F       -0.1044510     0.9315880    -0.4175030
  C       -0.6883870    -0.2727000    -0.0407590
  H        0.0916640    -0.9482280     0.2964040
  H       -1.3937240    -0.0796360     0.7618900
  H       -1.2049480    -0.6908960    -0.8994190
--
0 1
  O        2.3823170     0.0068480     0.1982200
  H        3.2024560     0.4949910     0.1117150
  H        1.7105650     0.6253780    -0.1034730
units angstrom
no_reorient
symmetry c1
}

set {
scf_type DF
mp2_type DF
e_convergence 7
reference rhf
}

energy('mp2/aug-cc-pv[tq]z', bsse_type='cp')
--------------------------------------------------------------------------

    Molecular point group: c1
  Charge       = 0
  Multiplicity = 1
  Basis Set: AUG-CC-PVTZ
    Blend: AUG-CC-PVTZ
  Basis Set: (AUG-CC-PVTZ AUX)
    Blend: AUG-CC-PVTZ-JKFIT
  @DF-RHF Final Energy:   -76.06036551382000
    Total Energy =                        -76.0603655138199883
  Basis Set: (AUG-CC-PVTZ AUX)
    Blend: AUG-CC-PVTZ-RI
	 Reference Energy          =     -76.0603655138200025 [Eh]
	 Singles Energy            =      -0.0000000000000000 [Eh]
	 Same-Spin Energy          =      -0.0683931251688738 [Eh]
	 Opposite-Spin Energy      =      -0.2153236933182415 [Eh]
	 Correlation Energy        =      -0.2837168184871153 [Eh]
	 Total Energy              =     -76.3440823323071243 [Eh]
	 SCS Total Energy          =     -76.3415516541915196 [Eh]
    Molecular point group: c1
  Basis Set: AUG-CC-PVQZ
    Blend: AUG-CC-PVQZ
  Basis Set: (AUG-CC-PVQZ AUX)
    Blend: AUG-CC-PVQZ-JKFIT
  @DF-RHF Final Energy:   -76.06574526754827
    Total Energy =                        -76.0657452675482659
  Basis Set: (AUG-CC-PVQZ AUX)
  @DF-RHF Final Energy:   -76.06042507410407
    Total Energy =                        -76.0604250741040744
  @DF-RHF Final Energy:   -76.06576679169211
    Total Energy =                        -76.0657667916921127
  @DF-RHF Final Energy:  -139.09739778145291
    Total Energy =                       -139.0973977814529121
  @DF-RHF Final Energy:  -139.10677954210604
    Total Energy =                       -139.1067795421060396
  @DF-RHF Final Energy:  -139.09724920104767
    Total Energy =                       -139.0972492010476742
  @DF-RHF Final Energy:  -139.10671297543149
    Total Energy =                       -139.1067129754314919
  Multiplicity = 1
  @DF-RHF Final Energy:  -215.16022180393114
    Total Energy =                       -215.1602218039311367
	 Singles Energy            =      -0.0000000000000000 [Eh]
	 Same-Spin Energy          =      -0.1801891670419031 [Eh]
	 Opposite-Spin Energy      =      -0.5846115997246544 [Eh]
	 Correlation Energy        =      -0.7648007667665575 [Eh]
	 Total Energy              =    -215.9250225706977062 [Eh]
	 SCS Total Energy          =    -215.9218187792813524 [Eh]
    Molecular point group: c1

    Geometry (in Angstrom), charge = 0, multiplicity = 1:

       Center              X                  Y                   Z               Mass
    ------------   -----------------  -----------------  -----------------  -----------------
         F           -0.686486922572     0.663817675106    -0.319831982528    18.998403162730
         C           -1.270422922572    -0.540470324894     0.056912017472    12.000000000000
         H           -0.490371922572    -1.215998324894     0.394075017472     1.007825032230
         H           -1.975759922572    -0.347406324894     0.859561017472     1.007825032230
         H           -1.786983922572    -0.958666324894    -0.801747982528     1.007825032230
         O            1.800281077428    -0.260922324894     0.295891017472    15.994914619570
         H            2.620420077428     0.227220675106     0.209386017472     1.007825032230
         H            1.128529077428     0.357607675106    -0.005801982528     1.007825032230

  Charge       = 0
  Multiplicity = 1
  Basis Set: AUG-CC-PVQZ
    Blend: AUG-CC-PVQZ
  Basis Set: (AUG-CC-PVQZ AUX)
    Blend: AUG-CC-PVQZ-JKFIT

    Orbital Energies [Eh]
    ---------------------

    Doubly Occupied:

       1A    -26.291062     2A    -20.547547     3A    -11.306636
       4A     -1.602602     5A     -1.337613     6A     -0.962552
       7A     -0.737887     8A     -0.707749     9A     -0.688572
      10A     -0.671853    11A     -0.578726    12A     -0.541264
      13A     -0.535604    14A     -0.495895

  @DF-RHF Final Energy:  -215.17503638899831

   => Energetics <=

    Nuclear Repulsion Energy =             79.5172052913842435
    One-Electron Energy =                -455.3733603683563729
    Two-Electron Energy =                 160.6811186879738216
    Total Energy =                       -215.1750363889983078

  Dipole Moment: [D]
     X:    -0.8940      Y:     0.0064      Z:    -0.0997     Total:     0.8995

  Basis Set: (AUG-CC-PVQZ AUX)
    Blend: AUG-CC-PVQZ-RI
	 Reference Energy          =    -215.1750363889983078 [Eh]
	 Singles Energy            =      -0.0000000000000000 [Eh]
	 Same-Spin Energy          =      -0.1923102885460932 [Eh]
	 Opposite-Spin Energy      =      -0.6635699854574886 [Eh]
	 Correlation Energy        =      -0.8558802740035818 [Eh]
	 Total Energy              =    -216.0309166630019035 [Eh]

	 ================> DF-SCS-MP2 Energies <==================
	-----------------------------------------------------------
	 SCS Same-Spin Scale       =       0.3333333333333333 [-]
	 SCS Opposite-Spin Scale   =       1.2000000000000000 [-]
	 SCS Same-Spin Energy      =      -0.0641034295153644 [Eh]
	 SCS Opposite-Spin Energy  =      -0.7962839825489862 [Eh]
	 SCS Correlation Energy    =      -0.8603874120643507 [Eh]
	 SCS Total Energy          =    -216.0354238010626489 [Eh]
	-----------------------------------------------------------

*** Psi4 exiting successfully. Buy a developer a beer!
