                               Psi4 1.4a2.dev224

  ==> Input File <==

--------------------------------------------------------------------------
#Generated by lconvert.py for cbs job

memory 40 GB

molecule  {
0 1
  F       -0.1044510     0.9315880    -0.4175030
  C       -0.6883870    -0.2727000    -0.0407590
  H        0.0916640    -0.9482280     0.2964040
  H       -1.3937240    -0.0796360     0.7618900
  H       -1.2049480    -0.6908960    -0.8994190
--
0 1
  O        2.7907790    -0.0380630     0.2601290
  H        3.6109180     0.4500800     0.1736240
  H        2.1190270     0.5804670    -0.0415640
units angstrom
no_reorient
symmetry c1
}

set {
scf_type DF
mp2_type DF
e_convergence 7
reference rhf
}

energy('mp2/aug-cc-pv[tq]z', bsse_type='cp')
--------------------------------------------------------------------------

    Molecular point group: c1
  Charge       = 0
  Multiplicity = 1
  Basis Set: AUG-CC-PVTZ
    Blend: AUG-CC-PVTZ
  Basis Set: (AUG-CC-PVTZ AUX)
    Blend: AUG-CC-PVTZ-JKFIT
  @DF-RHF Final Energy:   -76.06036551381759
    Total Energy =                        -76.0603655138176009
  Basis Set: (AUG-CC-PVTZ AUX)
    Blend: AUG-CC-PVTZ-RI
	 Reference Energy          =     -76.0603655138175867 [Eh]
	 Singles Energy            =      -0.0000000000000000 [Eh]
	 Same-Spin Energy          =      -0.0683931251688573 [Eh]
	 Opposite-Spin Energy      =      -0.2153236933181909 [Eh]
	 Correlation Energy        =      -0.2837168184870482 [Eh]
	 Total Energy              =     -76.3440823323046374 [Eh]
	 SCS Total Energy          =     -76.3415516541890327 [Eh]
    Molecular point group: c1
  Basis Set: AUG-CC-PVQZ
    Blend: AUG-CC-PVQZ
  Basis Set: (AUG-CC-PVQZ AUX)
    Blend: AUG-CC-PVQZ-JKFIT
  @DF-RHF Final Energy:   -76.06574526756370
    Total Energy =                        -76.0657452675636989
  Basis Set: (AUG-CC-PVQZ AUX)
  @DF-RHF Final Energy:   -76.06040105794007
    Total Energy =                        -76.0604010579400693
  @DF-RHF Final Energy:   -76.06575979566622
    Total Energy =                        -76.0657597956662244
  @DF-RHF Final Energy:  -139.09736377323705
    Total Energy =                       -139.0973637732370207
  @DF-RHF Final Energy:  -139.10676339984735
    Total Energy =                       -139.1067633998473525
  @DF-RHF Final Energy:  -139.09724920107195
    Total Energy =                       -139.0972492010719463
  @DF-RHF Final Energy:  -139.10671297541310
    Total Energy =                       -139.1067129754130747
  Multiplicity = 1
  @DF-RHF Final Energy:  -215.16180915790073
    Total Energy =                       -215.1618091579007341
	 Singles Energy            =      -0.0000000000000000 [Eh]
	 Same-Spin Energy          =      -0.1790929767313382 [Eh]
	 Opposite-Spin Energy      =      -0.5834171473087773 [Eh]
	 Correlation Energy        =      -0.7625101240401155 [Eh]
	 Total Energy              =    -215.9243192819408534 [Eh]
	 SCS Total Energy          =    -215.9216073935817235 [Eh]
    Molecular point group: c1

    Geometry (in Angstrom), charge = 0, multiplicity = 1:

       Center              X                  Y                   Z               Mass
    ------------   -----------------  -----------------  -----------------  -----------------
         F           -0.827872390096     0.679363216018    -0.341261229089    18.998403162730
         C           -1.411808390096    -0.524924783982     0.035482770911    12.000000000000
         H           -0.631757390096    -1.200452783982     0.372645770911     1.007825032230
         H           -2.117145390096    -0.331860783982     0.838131770911     1.007825032230
         H           -1.928369390096    -0.943120783982    -0.823177229089     1.007825032230
         O            2.067357609904    -0.290287783982     0.336370770911    15.994914619570
         H            2.887496609904     0.197855216018     0.249865770911     1.007825032230
         H            1.395605609904     0.328242216018     0.034677770911     1.007825032230

  Charge       = 0
  Multiplicity = 1
  Basis Set: AUG-CC-PVQZ
    Blend: AUG-CC-PVQZ
  Basis Set: (AUG-CC-PVQZ AUX)
    Blend: AUG-CC-PVQZ-JKFIT

    Orbital Energies [Eh]
    ---------------------

    Doubly Occupied:

       1A    -26.284757     2A    -20.555510     3A    -11.306401
       4A     -1.594264     5A     -1.343007     6A     -0.960116
       7A     -0.719454     8A     -0.702375     9A     -0.691478
      10A     -0.680122    11A     -0.578939    12A     -0.538195
      13A     -0.537233    14A     -0.501839

  @DF-RHF Final Energy:  -215.17657656772295

   => Energetics <=

    Nuclear Repulsion Energy =             75.3920291073085309
    One-Electron Energy =                -447.1498281550311731
    Two-Electron Energy =                 156.5812224799996955
    Total Energy =                       -215.1765765677229467

  Dipole Moment: [D]
     X:    -0.7698      Y:     0.0084      Z:    -0.0867     Total:     0.7747

  Basis Set: (AUG-CC-PVQZ AUX)
    Blend: AUG-CC-PVQZ-RI
	 Reference Energy          =    -215.1765765677229467 [Eh]
	 Singles Energy            =      -0.0000000000000000 [Eh]
	 Same-Spin Energy          =      -0.1912038916118602 [Eh]
	 Opposite-Spin Energy      =      -0.6625675658342101 [Eh]
	 Correlation Energy        =      -0.8537714574460703 [Eh]
	 Total Energy              =    -216.0303480251690189 [Eh]

	 ================> DF-SCS-MP2 Energies <==================
	-----------------------------------------------------------
	 SCS Same-Spin Scale       =       0.3333333333333333 [-]
	 SCS Opposite-Spin Scale   =       1.2000000000000000 [-]
	 SCS Same-Spin Energy      =      -0.0637346305372867 [Eh]
	 SCS Opposite-Spin Energy  =      -0.7950810790010521 [Eh]
	 SCS Correlation Energy    =      -0.8588157095383389 [Eh]
	 SCS Total Energy          =    -216.0353922772612805 [Eh]
	-----------------------------------------------------------

*** Psi4 exiting successfully. Buy a developer a beer!
