                               Psi4 1.4a2.dev224

  ==> Input File <==

--------------------------------------------------------------------------
#Generated by lconvert.py for cbs job

memory 40 GB

molecule  {
0 1
  F       -0.1044510     0.9315880    -0.4175030
  C       -0.6883870    -0.2727000    -0.0407590
  H        0.0916640    -0.9482280     0.2964040
  H       -1.3937240    -0.0796360     0.7618900
  H       -1.2049480    -0.6908960    -0.8994190
--
0 1
  O        2.1779740     0.0293150     0.1672490
  H        2.9981130     0.5174580     0.0807440
  H        1.5062220     0.6478450    -0.1344440
units angstrom
no_reorient
symmetry c1
}

set {
scf_type DF
mp2_type DF
e_convergence 7
reference rhf
}

energy('mp2/aug-cc-pv[tq]z', bsse_type='cp')
--------------------------------------------------------------------------

    Molecular point group: c1
  Charge       = 0
  Multiplicity = 1
  Basis Set: AUG-CC-PVTZ
    Blend: AUG-CC-PVTZ
  Basis Set: (AUG-CC-PVTZ AUX)
    Blend: AUG-CC-PVTZ-JKFIT
  @DF-RHF Final Energy:   -76.06036551381933
    Total Energy =                        -76.0603655138193346
  Basis Set: (AUG-CC-PVTZ AUX)
    Blend: AUG-CC-PVTZ-RI
	 Reference Energy          =     -76.0603655138193346 [Eh]
	 Singles Energy            =      -0.0000000000000000 [Eh]
	 Same-Spin Energy          =      -0.0683931251688646 [Eh]
	 Opposite-Spin Energy      =      -0.2153236933182231 [Eh]
	 Correlation Energy        =      -0.2837168184870876 [Eh]
	 Total Energy              =     -76.3440823323064279 [Eh]
	 SCS Total Energy          =     -76.3415516541908232 [Eh]
    Molecular point group: c1
  Basis Set: AUG-CC-PVQZ
    Blend: AUG-CC-PVQZ
  Basis Set: (AUG-CC-PVQZ AUX)
    Blend: AUG-CC-PVQZ-JKFIT
  @DF-RHF Final Energy:   -76.06574526755033
    Total Energy =                        -76.0657452675503123
  Basis Set: (AUG-CC-PVQZ AUX)
  @DF-RHF Final Energy:   -76.06043988937630
    Total Energy =                        -76.0604398893762976
  @DF-RHF Final Energy:   -76.06577179815282
    Total Energy =                        -76.0657717981528236
  @DF-RHF Final Energy:  -139.09742800470445
    Total Energy =                       -139.0974280047044545
  @DF-RHF Final Energy:  -139.10679143771148
    Total Energy =                       -139.1067914377114789
  @DF-RHF Final Energy:  -139.09724920107996
    Total Energy =                       -139.0972492010799613
  @DF-RHF Final Energy:  -139.10671297541236
    Total Energy =                       -139.1067129754123926
  Multiplicity = 1
  @DF-RHF Final Energy:  -215.15533747830511
    Total Energy =                       -215.1553374783051140
	 Singles Energy            =      -0.0000000000000000 [Eh]
	 Same-Spin Energy          =      -0.1811596281711355 [Eh]
	 Opposite-Spin Energy      =      -0.5856176199325516 [Eh]
	 Correlation Energy        =      -0.7667772481036870 [Eh]
	 Total Energy              =    -215.9221147264088074 [Eh]
	 SCS Total Energy          =    -215.9184651649478894 [Eh]
    Molecular point group: c1

    Geometry (in Angstrom), charge = 0, multiplicity = 1:

       Center              X                  Y                   Z               Mass
    ------------   -----------------  -----------------  -----------------  -----------------
         F           -0.615755421012     0.656040924028    -0.309111647920    18.998403162730
         C           -1.199691421012    -0.548247075972     0.067632352080    12.000000000000
         H           -0.419640421012    -1.223775075972     0.404795352080     1.007825032230
         H           -1.905028421012    -0.355183075972     0.870281352080     1.007825032230
         H           -1.716252421012    -0.966443075972    -0.791027647920     1.007825032230
         O            1.666669578988    -0.246232075972     0.275640352080    15.994914619570
         H            2.486808578988     0.241910924028     0.189135352080     1.007825032230
         H            0.994917578988     0.372297924028    -0.026052647920     1.007825032230

  Charge       = 0
  Multiplicity = 1
  Basis Set: AUG-CC-PVQZ
    Blend: AUG-CC-PVQZ
  Basis Set: (AUG-CC-PVQZ AUX)
    Blend: AUG-CC-PVQZ-JKFIT

    Orbital Energies [Eh]
    ---------------------

    Doubly Occupied:

       1A    -26.296118     2A    -20.539597     3A    -11.306894
       4A     -1.610637     5A     -1.332925     6A     -0.965018
       7A     -0.754320     8A     -0.712671     9A     -0.693052
      10A     -0.657366    11A     -0.581262    12A     -0.543944
      13A     -0.531118    14A     -0.490335

  @DF-RHF Final Energy:  -215.17016381744313

   => Energetics <=

    Nuclear Repulsion Energy =             82.0523755110941835
    One-Electron Energy =                -460.4145634870362755
    Two-Electron Energy =                 163.1920241584989810
    Total Energy =                       -215.1701638174431253

  Dipole Moment: [D]
     X:    -1.0124      Y:     0.0155      Z:    -0.1162     Total:     1.0191

  Basis Set: (AUG-CC-PVQZ AUX)
    Blend: AUG-CC-PVQZ-RI
	 Reference Energy          =    -215.1701638174431253 [Eh]
	 Singles Energy            =      -0.0000000000000000 [Eh]
	 Same-Spin Energy          =      -0.1933079660039827 [Eh]
	 Opposite-Spin Energy      =      -0.6644316177184699 [Eh]
	 Correlation Energy        =      -0.8577395837224526 [Eh]
	 Total Energy              =    -216.0279034011655881 [Eh]

	 ================> DF-SCS-MP2 Energies <==================
	-----------------------------------------------------------
	 SCS Same-Spin Scale       =       0.3333333333333333 [-]
	 SCS Opposite-Spin Scale   =       1.2000000000000000 [-]
	 SCS Same-Spin Energy      =      -0.0644359886679942 [Eh]
	 SCS Opposite-Spin Energy  =      -0.7973179412621639 [Eh]
	 SCS Correlation Energy    =      -0.8617539299301582 [Eh]
	 SCS Total Energy          =    -216.0319177473732850 [Eh]
	-----------------------------------------------------------

*** Psi4 exiting successfully. Buy a developer a beer!
