                               Psi4 1.4a2.dev224

  ==> Input File <==

--------------------------------------------------------------------------
#Generated by lconvert.py for cbs job

memory 40 GB

molecule  {
0 1
  F       -0.1044510     0.9315880    -0.4175030
  C       -0.6883870    -0.2727000    -0.0407590
  H        0.0916640    -0.9482280     0.2964040
  H       -1.3937240    -0.0796360     0.7618900
  H       -1.2049480    -0.6908960    -0.8994190
--
0 1
  O        2.6886850    -0.0268380     0.2446550
  H        3.5088240     0.4613050     0.1581500
  H        2.0169330     0.5916920    -0.0570380
units angstrom
no_reorient
symmetry c1
}

set {
scf_type DF
mp2_type DF
e_convergence 7
reference rhf
}

energy('mp2/aug-cc-pv[tq]z', bsse_type='cp')
--------------------------------------------------------------------------

    Molecular point group: c1
  Charge       = 0
  Multiplicity = 1
  Basis Set: AUG-CC-PVTZ
    Blend: AUG-CC-PVTZ
  Basis Set: (AUG-CC-PVTZ AUX)
    Blend: AUG-CC-PVTZ-JKFIT
  @DF-RHF Final Energy:   -76.06036551381942
    Total Energy =                        -76.0603655138194199
  Basis Set: (AUG-CC-PVTZ AUX)
    Blend: AUG-CC-PVTZ-RI
	 Reference Energy          =     -76.0603655138194199 [Eh]
	 Singles Energy            =      -0.0000000000000000 [Eh]
	 Same-Spin Energy          =      -0.0683931251688609 [Eh]
	 Opposite-Spin Energy      =      -0.2153236933182429 [Eh]
	 Correlation Energy        =      -0.2837168184871037 [Eh]
	 Total Energy              =     -76.3440823323065274 [Eh]
	 SCS Total Energy          =     -76.3415516541909369 [Eh]
    Molecular point group: c1
  Basis Set: AUG-CC-PVQZ
    Blend: AUG-CC-PVQZ
  Basis Set: (AUG-CC-PVQZ AUX)
    Blend: AUG-CC-PVQZ-JKFIT
  @DF-RHF Final Energy:   -76.06574526755519
    Total Energy =                        -76.0657452675551866
  Basis Set: (AUG-CC-PVQZ AUX)
  @DF-RHF Final Energy:   -76.06040584702504
    Total Energy =                        -76.0604058470250237
  @DF-RHF Final Energy:   -76.06576126009006
    Total Energy =                        -76.0657612600900563
  @DF-RHF Final Energy:  -139.09737693573936
    Total Energy =                       -139.0973769357393621
  @DF-RHF Final Energy:  -139.10676763655138
    Total Energy =                       -139.1067676365513819
  @DF-RHF Final Energy:  -139.09724920107544
    Total Energy =                       -139.0972492010754422
  @DF-RHF Final Energy:  -139.10671297533895
    Total Energy =                       -139.1067129753389509
  Multiplicity = 1
  @DF-RHF Final Energy:  -215.16186882323271
    Total Energy =                       -215.1618688232327088
	 Singles Energy            =      -0.0000000000000000 [Eh]
	 Same-Spin Energy          =      -0.1792907740082906 [Eh]
	 Opposite-Spin Energy      =      -0.5836410093388346 [Eh]
	 Correlation Energy        =      -0.7629317833471252 [Eh]
	 Total Energy              =    -215.9248006065798222 [Eh]
	 SCS Total Energy          =    -215.9220016257754082 [Eh]
    Molecular point group: c1

    Geometry (in Angstrom), charge = 0, multiplicity = 1:

       Center              X                  Y                   Z               Mass
    ------------   -----------------  -----------------  -----------------  -----------------
         F           -0.792533465248     0.675477782677    -0.335905042407    18.998403162730
         C           -1.376469465248    -0.528810217323     0.040838957593    12.000000000000
         H           -0.596418465248    -1.204338217323     0.378001957593     1.007825032230
         H           -2.081806465248    -0.335746217323     0.843487957593     1.007825032230
         H           -1.893030465248    -0.947006217323    -0.817821042407     1.007825032230
         O            2.000602534752    -0.282948217323     0.326252957593    15.994914619570
         H            2.820741534752     0.205194782677     0.239747957593     1.007825032230
         H            1.328850534752     0.335581782677     0.024559957593     1.007825032230

  Charge       = 0
  Multiplicity = 1
  Basis Set: AUG-CC-PVQZ
    Blend: AUG-CC-PVQZ
  Basis Set: (AUG-CC-PVQZ AUX)
    Blend: AUG-CC-PVQZ-JKFIT

    Orbital Energies [Eh]
    ---------------------

    Doubly Occupied:

       1A    -26.286001     2A    -20.554140     3A    -11.306449
       4A     -1.595772     5A     -1.342003     6A     -0.960548
       7A     -0.722711     8A     -0.703371     9A     -0.689309
      10A     -0.680390    11A     -0.578612    12A     -0.538777
      13A     -0.537249    14A     -0.500778

  @DF-RHF Final Energy:  -215.17663721957155

   => Energetics <=

    Nuclear Repulsion Energy =             76.3242587721687045
    One-Electron Energy =                -449.0095716967205703
    Two-Electron Energy =                 157.5086757049803055
    Total Energy =                       -215.1766372195715462

  Dipole Moment: [D]
     X:    -0.7917      Y:     0.0065      Z:    -0.0884     Total:     0.7967

  Basis Set: (AUG-CC-PVQZ AUX)
    Blend: AUG-CC-PVQZ-RI
	 Reference Energy          =    -215.1766372195715462 [Eh]
	 Singles Energy            =      -0.0000000000000000 [Eh]
	 Same-Spin Energy          =      -0.1914018659732316 [Eh]
	 Opposite-Spin Energy      =      -0.6627533599375206 [Eh]
	 Correlation Energy        =      -0.8541552259107522 [Eh]
	 Total Energy              =    -216.0307924454822910 [Eh]

	 ================> DF-SCS-MP2 Energies <==================
	-----------------------------------------------------------
	 SCS Same-Spin Scale       =       0.3333333333333333 [-]
	 SCS Opposite-Spin Scale   =       1.2000000000000000 [-]
	 SCS Same-Spin Energy      =      -0.0638006219910772 [Eh]
	 SCS Opposite-Spin Energy  =      -0.7953040319250247 [Eh]
	 SCS Correlation Energy    =      -0.8591046539161019 [Eh]
	 SCS Total Energy          =    -216.0357418734876376 [Eh]
	-----------------------------------------------------------

*** Psi4 exiting successfully. Buy a developer a beer!
