                               Psi4 1.4a2.dev224

  ==> Input File <==

--------------------------------------------------------------------------
#Generated by lconvert.py for cbs job

memory 20 GB

molecule  {
0 1
  F      -0.104450    0.931590   -0.417500
  C      -0.688390   -0.272700   -0.040760
  H       0.091660   -0.948230    0.296400
  H      -1.393720   -0.079640    0.761890
  H      -1.204950   -0.690900   -0.899420
--
0 1
  O       3.813090   -0.150470    0.415070
  H       4.633230    0.337680    0.328570
  H       3.141340    0.468060    0.113380
units angstrom
no_reorient
symmetry c1
}

set {
scf_type DF
mp2_type DF
e_convergence 7
reference rhf
}

energy('mp2/aug-cc-pv[tq]z', bsse_type='cp')
--------------------------------------------------------------------------

    Molecular point group: c1
  Charge       = 0
  Multiplicity = 1
  Basis Set: AUG-CC-PVTZ
    Blend: AUG-CC-PVTZ
  Basis Set: (AUG-CC-PVTZ AUX)
    Blend: AUG-CC-PVTZ-JKFIT
  @DF-RHF Final Energy:   -76.06036545202841
    Total Energy =                        -76.0603654520284067
  Basis Set: (AUG-CC-PVTZ AUX)
    Blend: AUG-CC-PVTZ-RI
	 Reference Energy          =     -76.0603654520284067 [Eh]
	 Singles Energy            =      -0.0000000000000000 [Eh]
	 Same-Spin Energy          =      -0.0683931446588517 [Eh]
	 Opposite-Spin Energy      =      -0.2153237506197568 [Eh]
	 Correlation Energy        =      -0.2837168952786085 [Eh]
	 Total Energy              =     -76.3440823473070083 [Eh]
	 SCS Total Energy          =     -76.3415516676583934 [Eh]
    Molecular point group: c1
  Basis Set: AUG-CC-PVQZ
    Blend: AUG-CC-PVQZ
  Basis Set: (AUG-CC-PVQZ AUX)
    Blend: AUG-CC-PVQZ-JKFIT
  @DF-RHF Final Energy:   -76.06574520178177
    Total Energy =                        -76.0657452017817661
  Basis Set: (AUG-CC-PVQZ AUX)
  @DF-RHF Final Energy:   -76.06037532680088
    Total Energy =                        -76.0603753268008944
  @DF-RHF Final Energy:   -76.06574965656326
    Total Energy =                        -76.0657496565632698
  @DF-RHF Final Energy:  -139.09728205546961
    Total Energy =                       -139.0972820554696057
  @DF-RHF Final Energy:  -139.10672789718950
    Total Energy =                       -139.1067278971895007
  @DF-RHF Final Energy:  -139.09724913133354
    Total Energy =                       -139.0972491313335411
  @DF-RHF Final Energy:  -139.10671290529163
    Total Energy =                       -139.1067129052916300
  Multiplicity = 1
  @DF-RHF Final Energy:  -215.15953593677190
    Total Energy =                       -215.1595359367719027
	 Singles Energy            =      -0.0000000000000000 [Eh]
	 Same-Spin Energy          =      -0.1783170422026988 [Eh]
	 Opposite-Spin Energy      =      -0.5824067718484977 [Eh]
	 Correlation Energy        =      -0.7607238140511964 [Eh]
	 Total Energy              =    -215.9202597508231065 [Eh]
	 SCS Total Energy          =    -215.9178630770576603 [Eh]
    Molecular point group: c1

    Geometry (in Angstrom), charge = 0, multiplicity = 1:

       Center              X                  Y                   Z               Mass
    ------------   -----------------  -----------------  -----------------  -----------------
         F           -1.181734890584     0.718273221419    -0.394890593121    18.998403162730
         C           -1.765674890584    -0.486016778581    -0.018150593121    12.000000000000
         H           -0.985624890584    -1.161546778581     0.319009406879     1.007825032230
         H           -2.471004890584    -0.292956778581     0.784499406879     1.007825032230
         H           -2.282234890584    -0.904216778581    -0.876810593121     1.007825032230
         O            2.735805109416    -0.363786778581     0.437679406879    15.994914619570
         H            3.555945109416     0.124363221419     0.351179406879     1.007825032230
         H            2.064055109416     0.254743221419     0.135989406879     1.007825032230

  Charge       = 0
  Multiplicity = 1
  Basis Set: AUG-CC-PVQZ
    Blend: AUG-CC-PVQZ
  Basis Set: (AUG-CC-PVQZ AUX)
    Blend: AUG-CC-PVQZ-JKFIT

    Orbital Energies [Eh]
    ---------------------

    Doubly Occupied:

       1A    -26.278216     2A    -20.561242     3A    -11.305918
       4A     -1.587104     5A     -1.347773     6A     -0.958008
       7A     -0.711441     8A     -0.697576     9A     -0.697461
      10A     -0.675442    11A     -0.581951    12A     -0.535465
      13A     -0.535184    14A     -0.506555

  @DF-RHF Final Energy:  -215.17434594642626

   => Energetics <=

    Nuclear Repulsion Energy =             68.4887052104879643
    One-Electron Energy =                -433.3674272327654080
    Two-Electron Energy =                 149.7043760758511723
    Total Energy =                       -215.1743459464262571

  Dipole Moment: [D]
     X:    -0.6751      Y:     0.0326      Z:    -0.0850     Total:     0.6812

  Basis Set: (AUG-CC-PVQZ AUX)
    Blend: AUG-CC-PVQZ-RI
	 Reference Energy          =    -215.1743459464262571 [Eh]
	 Singles Energy            =      -0.0000000000000000 [Eh]
	 Same-Spin Energy          =      -0.1904378896073060 [Eh]
	 Opposite-Spin Energy      =      -0.6618072215413526 [Eh]
	 Correlation Energy        =      -0.8522451111486586 [Eh]
	 Total Energy              =    -216.0265910575749047 [Eh]

	 ================> DF-SCS-MP2 Energies <==================
	-----------------------------------------------------------
	 SCS Same-Spin Scale       =       0.3333333333333333 [-]
	 SCS Opposite-Spin Scale   =       1.2000000000000000 [-]
	 SCS Same-Spin Energy      =      -0.0634792965357687 [Eh]
	 SCS Opposite-Spin Energy  =      -0.7941686658496231 [Eh]
	 SCS Correlation Energy    =      -0.8576479623853918 [Eh]
	 SCS Total Energy          =    -216.0319939088116428 [Eh]
	-----------------------------------------------------------

*** Psi4 exiting successfully. Buy a developer a beer!
