                               Psi4 1.4a2.dev224

  ==> Input File <==

--------------------------------------------------------------------------
#Generated by lconvert.py for cbs job

memory 40 GB

molecule  {
0 1
  F       -0.1044510     0.9315880    -0.4175030
  C       -0.6883870    -0.2727000    -0.0407590
  H        0.0916640    -0.9482280     0.2964040
  H       -1.3937240    -0.0796360     0.7618900
  H       -1.2049480    -0.6908960    -0.8994190
--
0 1
  O        2.5865780    -0.0156110     0.2291790
  H        3.4067170     0.4725320     0.1426740
  H        1.9148260     0.6029190    -0.0725140
units angstrom
no_reorient
symmetry c1
}

set {
scf_type DF
mp2_type DF
e_convergence 7
reference rhf
}

energy('mp2/aug-cc-pv[tq]z', bsse_type='cp')
--------------------------------------------------------------------------

    Molecular point group: c1
  Charge       = 0
  Multiplicity = 1
  Basis Set: AUG-CC-PVTZ
    Blend: AUG-CC-PVTZ
  Basis Set: (AUG-CC-PVTZ AUX)
    Blend: AUG-CC-PVTZ-JKFIT
  @DF-RHF Final Energy:   -76.06036551381450
    Total Energy =                        -76.0603655138145029
  Basis Set: (AUG-CC-PVTZ AUX)
    Blend: AUG-CC-PVTZ-RI
	 Reference Energy          =     -76.0603655138145029 [Eh]
	 Singles Energy            =      -0.0000000000000000 [Eh]
	 Same-Spin Energy          =      -0.0683931251688712 [Eh]
	 Opposite-Spin Energy      =      -0.2153236933182152 [Eh]
	 Correlation Energy        =      -0.2837168184870865 [Eh]
	 Total Energy              =     -76.3440823323015962 [Eh]
	 SCS Total Energy          =     -76.3415516541859915 [Eh]
    Molecular point group: c1
  Basis Set: AUG-CC-PVQZ
    Blend: AUG-CC-PVQZ
  Basis Set: (AUG-CC-PVQZ AUX)
    Blend: AUG-CC-PVQZ-JKFIT
  @DF-RHF Final Energy:   -76.06574526755453
    Total Energy =                        -76.0657452675545187
  Basis Set: (AUG-CC-PVQZ AUX)
  @DF-RHF Final Energy:   -76.06041138013848
    Total Energy =                        -76.0604113801384756
  @DF-RHF Final Energy:   -76.06576294054138
    Total Energy =                        -76.0657629405413616
  @DF-RHF Final Energy:  -139.09738644510441
    Total Energy =                       -139.0973864451044051
  @DF-RHF Final Energy:  -139.10677174861928
    Total Energy =                       -139.1067717486192805
  @DF-RHF Final Energy:  -139.09724920105927
    Total Energy =                       -139.0972492010592703
  @DF-RHF Final Energy:  -139.10671297530115
    Total Energy =                       -139.1067129753011500
  Multiplicity = 1
  @DF-RHF Final Energy:  -215.16172058649357
    Total Energy =                       -215.1617205864935727
	 Singles Energy            =      -0.0000000000000000 [Eh]
	 Same-Spin Energy          =      -0.1795326778658491 [Eh]
	 Opposite-Spin Energy      =      -0.5839079151142501 [Eh]
	 Correlation Energy        =      -0.7634405929800993 [Eh]
	 Total Energy              =    -215.9251611794736618 [Eh]
	 SCS Total Energy          =    -215.9222543105859700 [Eh]
    Molecular point group: c1

    Geometry (in Angstrom), charge = 0, multiplicity = 1:

       Center              X                  Y                   Z               Mass
    ------------   -----------------  -----------------  -----------------  -----------------
         F           -0.757190040566     0.671591657055    -0.330548163443    18.998403162730
         C           -1.341126040566    -0.532696342945     0.046195836557    12.000000000000
         H           -0.561075040566    -1.208224342945     0.383358836557     1.007825032230
         H           -2.046463040566    -0.339632342945     0.848844836557     1.007825032230
         H           -1.857687040566    -0.950892342945    -0.812464163443     1.007825032230
         O            1.933838959434    -0.275607342945     0.316133836557    15.994914619570
         H            2.753977959434     0.212535657055     0.229628836557     1.007825032230
         H            1.262086959434     0.342922657055     0.014440836557     1.007825032230

  Charge       = 0
  Multiplicity = 1
  Basis Set: AUG-CC-PVQZ
    Blend: AUG-CC-PVQZ
  Basis Set: (AUG-CC-PVQZ AUX)
    Blend: AUG-CC-PVQZ-JKFIT

    Orbital Energies [Eh]
    ---------------------

    Doubly Occupied:

       1A    -26.287438     2A    -20.552431     3A    -11.306500
       4A     -1.597593     5A     -1.340802     6A     -0.961073
       7A     -0.726771     8A     -0.704558     9A     -0.687657
      10A     -0.679597    11A     -0.578393    12A     -0.539462
      13A     -0.537076    14A     -0.499480

  @DF-RHF Final Energy:  -215.17649832751533

   => Energetics <=

    Nuclear Repulsion Energy =             77.3181431693596863
    One-Electron Energy =                -450.9916186122463273
    Two-Electron Energy =                 158.4969771153712941
    Total Energy =                       -215.1764983275153327

  Dipole Moment: [D]
     X:    -0.8187      Y:     0.0053      Z:    -0.0910     Total:     0.8238

  Basis Set: (AUG-CC-PVQZ AUX)
    Blend: AUG-CC-PVQZ-RI
	 Reference Energy          =    -215.1764983275153327 [Eh]
	 Singles Energy            =      -0.0000000000000000 [Eh]
	 Same-Spin Energy          =      -0.1916449199338486 [Eh]
	 Opposite-Spin Energy      =      -0.6629764337854612 [Eh]
	 Correlation Energy        =      -0.8546213537193098 [Eh]
	 Total Energy              =    -216.0311196812346566 [Eh]

	 ================> DF-SCS-MP2 Energies <==================
	-----------------------------------------------------------
	 SCS Same-Spin Scale       =       0.3333333333333333 [-]
	 SCS Opposite-Spin Scale   =       1.2000000000000000 [-]
	 SCS Same-Spin Energy      =      -0.0638816399779495 [Eh]
	 SCS Opposite-Spin Energy  =      -0.7955717205425534 [Eh]
	 SCS Correlation Energy    =      -0.8594533605205029 [Eh]
	 SCS Total Energy          =    -216.0359516880358228 [Eh]
	-----------------------------------------------------------

*** Psi4 exiting successfully. Buy a developer a beer!
