                               Psi4 1.4a2.dev224

  ==> Input File <==

--------------------------------------------------------------------------
#Generated by lconvert.py for cbs job

memory 20 GB

molecule  {
0 1
  F      -0.104450    0.931590   -0.417500
  C      -0.688390   -0.272700   -0.040760
  H       0.091660   -0.948230    0.296400
  H      -1.393720   -0.079640    0.761890
  H      -1.204950   -0.690900   -0.899420
--
0 1
  O       3.199700   -0.083030    0.322110
  H       4.019840    0.405120    0.235600
  H       2.527950    0.535510    0.020410
units angstrom
no_reorient
symmetry c1
}

set {
scf_type DF
mp2_type DF
e_convergence 7
reference rhf
}

energy('mp2/aug-cc-pv[tq]z', bsse_type='cp')
--------------------------------------------------------------------------

    Molecular point group: c1
  Charge       = 0
  Multiplicity = 1
  Basis Set: AUG-CC-PVTZ
    Blend: AUG-CC-PVTZ
  Basis Set: (AUG-CC-PVTZ AUX)
    Blend: AUG-CC-PVTZ-JKFIT
  @DF-RHF Final Energy:   -76.06036497019645
    Total Energy =                        -76.0603649701964457
  Basis Set: (AUG-CC-PVTZ AUX)
    Blend: AUG-CC-PVTZ-RI
	 Reference Energy          =     -76.0603649701964457 [Eh]
	 Singles Energy            =      -0.0000000000000000 [Eh]
	 Same-Spin Energy          =      -0.0683932503584370 [Eh]
	 Opposite-Spin Energy      =      -0.2153240694226465 [Eh]
	 Correlation Energy        =      -0.2837173197810835 [Eh]
	 Total Energy              =     -76.3440822899775355 [Eh]
	 SCS Total Energy          =     -76.3415516036231026 [Eh]
    Molecular point group: c1
  Basis Set: AUG-CC-PVQZ
    Blend: AUG-CC-PVQZ
  Basis Set: (AUG-CC-PVQZ AUX)
    Blend: AUG-CC-PVQZ-JKFIT
  @DF-RHF Final Energy:   -76.06574469438510
    Total Energy =                        -76.0657446943851028
  Basis Set: (AUG-CC-PVQZ AUX)
  @DF-RHF Final Energy:   -76.06038507892049
    Total Energy =                        -76.0603850789204898
  @DF-RHF Final Energy:   -76.06575436406725
    Total Energy =                        -76.0657543640672458
  @DF-RHF Final Energy:  -139.09731131274094
    Total Energy =                       -139.0973113127409420
  @DF-RHF Final Energy:  -139.10674717280537
    Total Energy =                       -139.1067471728053704
  @DF-RHF Final Energy:  -139.09724913136066
    Total Energy =                       -139.0972491313606554
  @DF-RHF Final Energy:  -139.10671290522467
    Total Energy =                       -139.1067129052246685
  Multiplicity = 1
  @DF-RHF Final Energy:  -215.16084424635457
    Total Energy =                       -215.1608442463545714
	 Singles Energy            =      -0.0000000000000000 [Eh]
	 Same-Spin Energy          =      -0.1786004515886652 [Eh]
	 Opposite-Spin Energy      =      -0.5828123046113221 [Eh]
	 Correlation Energy        =      -0.7614127561999873 [Eh]
	 Total Energy              =    -215.9222570025545451 [Eh]
	 SCS Total Energy          =    -215.9197524957510552 [Eh]
    Molecular point group: c1

    Geometry (in Angstrom), charge = 0, multiplicity = 1:

       Center              X                  Y                   Z               Mass
    ------------   -----------------  -----------------  -----------------  -----------------
         F           -0.969415428983     0.694929274992    -0.362712933284    18.998403162730
         C           -1.553355428983    -0.509360725008     0.014027066716    12.000000000000
         H           -0.773305428983    -1.184890725008     0.351187066716     1.007825032230
         H           -2.258685428983    -0.316300725008     0.816677066716     1.007825032230
         H           -2.069915428983    -0.927560725008    -0.844632933284     1.007825032230
         O            2.334734571017    -0.319690725008     0.376897066716    15.994914619570
         H            3.154874571017     0.168459274992     0.290387066716     1.007825032230
         H            1.662984571017     0.298849274992     0.075197066716     1.007825032230

  Charge       = 0
  Multiplicity = 1
  Basis Set: AUG-CC-PVQZ
    Blend: AUG-CC-PVQZ
  Basis Set: (AUG-CC-PVQZ AUX)
    Blend: AUG-CC-PVQZ-JKFIT

    Orbital Energies [Eh]
    ---------------------

    Doubly Occupied:

       1A    -26.281165     2A    -20.558917     3A    -11.306208
       4A     -1.590208     5A     -1.345711     6A     -0.958955
       7A     -0.712437     8A     -0.699635     9A     -0.697086
      10A     -0.677801    11A     -0.580409    12A     -0.536553
      13A     -0.536520    14A     -0.504578

  @DF-RHF Final Energy:  -215.17563694041533

   => Energetics <=

    Nuclear Repulsion Energy =             72.1729418391884110
    One-Electron Energy =                -440.7247876277616569
    Two-Electron Energy =                 153.3762088481579156
    Total Energy =                       -215.1756369404153304

  Dipole Moment: [D]
     X:    -0.7138      Y:     0.0187      Z:    -0.0843     Total:     0.7190

  Basis Set: (AUG-CC-PVQZ AUX)
    Blend: AUG-CC-PVQZ-RI
	 Reference Energy          =    -215.1756369404153304 [Eh]
	 Singles Energy            =      -0.0000000000000000 [Eh]
	 Same-Spin Energy          =      -0.1907149101362023 [Eh]
	 Opposite-Spin Energy      =      -0.6620835189285121 [Eh]
	 Correlation Energy        =      -0.8527984290647144 [Eh]
	 Total Energy              =    -216.0284353694800359 [Eh]

	 ================> DF-SCS-MP2 Energies <==================
	-----------------------------------------------------------
	 SCS Same-Spin Scale       =       0.3333333333333333 [-]
	 SCS Opposite-Spin Scale   =       1.2000000000000000 [-]
	 SCS Same-Spin Energy      =      -0.0635716367120674 [Eh]
	 SCS Opposite-Spin Energy  =      -0.7945002227142145 [Eh]
	 SCS Correlation Energy    =      -0.8580718594262819 [Eh]
	 SCS Total Energy          =    -216.0337087998416052 [Eh]
	-----------------------------------------------------------

*** Psi4 exiting successfully. Buy a developer a beer!
