                               Psi4 1.4a2.dev224

  ==> Input File <==

--------------------------------------------------------------------------
#Generated by lconvert.py for cbs job

memory 40 GB

molecule  {
0 1
  F       -0.1044510     0.9315880    -0.4175030
  C       -0.6883870    -0.2727000    -0.0407590
  H        0.0916640    -0.9482280     0.2964040
  H       -1.3937240    -0.0796360     0.7618900
  H       -1.2049480    -0.6908960    -0.8994190
--
0 1
  O        2.4844560    -0.0043830     0.2137010
  H        3.3045950     0.4837600     0.1271960
  H        1.8127040     0.6141470    -0.0879920
units angstrom
no_reorient
symmetry c1
}

set {
scf_type DF
mp2_type DF
e_convergence 7
reference rhf
}

energy('mp2/aug-cc-pv[tq]z', bsse_type='cp')
--------------------------------------------------------------------------

    Molecular point group: c1
  Charge       = 0
  Multiplicity = 1
  Basis Set: AUG-CC-PVTZ
    Blend: AUG-CC-PVTZ
  Basis Set: (AUG-CC-PVTZ AUX)
    Blend: AUG-CC-PVTZ-JKFIT
  @DF-RHF Final Energy:   -76.06036551381868
    Total Energy =                        -76.0603655138186809
  Basis Set: (AUG-CC-PVTZ AUX)
    Blend: AUG-CC-PVTZ-RI
	 Reference Energy          =     -76.0603655138186809 [Eh]
	 Singles Energy            =      -0.0000000000000000 [Eh]
	 Same-Spin Energy          =      -0.0683931251688807 [Eh]
	 Opposite-Spin Energy      =      -0.2153236933182196 [Eh]
	 Correlation Energy        =      -0.2837168184871003 [Eh]
	 Total Energy              =     -76.3440823323057742 [Eh]
	 SCS Total Energy          =     -76.3415516541901695 [Eh]
    Molecular point group: c1
  Basis Set: AUG-CC-PVQZ
    Blend: AUG-CC-PVQZ
  Basis Set: (AUG-CC-PVQZ AUX)
    Blend: AUG-CC-PVQZ-JKFIT
  @DF-RHF Final Energy:   -76.06574526754581
    Total Energy =                        -76.0657452675458075
  Basis Set: (AUG-CC-PVQZ AUX)
  @DF-RHF Final Energy:   -76.06041784600677
    Total Energy =                        -76.0604178460067715
  @DF-RHF Final Energy:   -76.06576479159220
    Total Energy =                        -76.0657647915922013
  @DF-RHF Final Energy:  -139.09739209253704
    Total Energy =                       -139.0973920925370351
  @DF-RHF Final Energy:  -139.10677573735563
    Total Energy =                       -139.1067757373556333
  @DF-RHF Final Energy:  -139.09724920107851
    Total Energy =                       -139.0972492010785118
  @DF-RHF Final Energy:  -139.10671297535524
    Total Energy =                       -139.1067129753552649
  Multiplicity = 1
  @DF-RHF Final Energy:  -215.16123486484574
    Total Energy =                       -215.1612348648457385
	 Singles Energy            =      -0.0000000000000000 [Eh]
	 Same-Spin Energy          =      -0.1798284099052836 [Eh]
	 Opposite-Spin Energy      =      -0.5842277372532050 [Eh]
	 Correlation Energy        =      -0.7640561471584886 [Eh]
	 Total Energy              =    -215.9252910120042372 [Eh]
	 SCS Total Energy          =    -215.9222509528513569 [Eh]
    Molecular point group: c1

    Geometry (in Angstrom), charge = 0, multiplicity = 1:

       Center              X                  Y                   Z               Mass
    ------------   -----------------  -----------------  -----------------  -----------------
         F           -0.721841423768     0.667705185292    -0.325190592197    18.998403162730
         C           -1.305777423768    -0.536582814708     0.051553407803    12.000000000000
         H           -0.525726423768    -1.212110814708     0.388716407803     1.007825032230
         H           -2.011114423768    -0.343518814708     0.854202407803     1.007825032230
         H           -1.822338423768    -0.954778814708    -0.807106592197     1.007825032230
         O            1.867065576232    -0.268265814708     0.306013407803    15.994914619570
         H            2.687204576232     0.219877185292     0.219508407803     1.007825032230
         H            1.195313576232     0.350264185292     0.004320407803     1.007825032230

  Charge       = 0
  Multiplicity = 1
  Basis Set: AUG-CC-PVQZ
    Blend: AUG-CC-PVQZ
  Basis Set: (AUG-CC-PVQZ AUX)
    Blend: AUG-CC-PVQZ-JKFIT

    Orbital Energies [Eh]
    ---------------------

    Doubly Occupied:

       1A    -26.289107     2A    -20.550278     3A    -11.306560
       4A     -1.599825     5A     -1.339358     6A     -0.961726
       7A     -0.731772     8A     -0.705993     9A     -0.687477
      10A     -0.676713    11A     -0.578383    12A     -0.540279
      13A     -0.536589    14A     -0.497880

  @DF-RHF Final Energy:  -215.17603010751773

   => Energetics <=

    Nuclear Repulsion Energy =             78.3800321530873276
    One-Electron Energy =                -453.1082444909316109
    Two-Electron Energy =                 159.5521822303265651
    Total Energy =                       -215.1760301075177324

  Dipole Moment: [D]
     X:    -0.8522      Y:     0.0051      Z:    -0.0946     Total:     0.8574

  Basis Set: (AUG-CC-PVQZ AUX)
    Blend: AUG-CC-PVQZ-RI
	 Reference Energy          =    -215.1760301075177324 [Eh]
	 Singles Energy            =      -0.0000000000000000 [Eh]
	 Same-Spin Energy          =      -0.1919435389292288 [Eh]
	 Opposite-Spin Energy      =      -0.6632453864721445 [Eh]
	 Correlation Energy        =      -0.8551889254013733 [Eh]
	 Total Energy              =    -216.0312190329190969 [Eh]

	 ================> DF-SCS-MP2 Energies <==================
	-----------------------------------------------------------
	 SCS Same-Spin Scale       =       0.3333333333333333 [-]
	 SCS Opposite-Spin Scale   =       1.2000000000000000 [-]
	 SCS Same-Spin Energy      =      -0.0639811796430763 [Eh]
	 SCS Opposite-Spin Energy  =      -0.7958944637665734 [Eh]
	 SCS Correlation Energy    =      -0.8598756434096496 [Eh]
	 SCS Total Energy          =    -216.0359057509273839 [Eh]
	-----------------------------------------------------------

*** Psi4 exiting successfully. Buy a developer a beer!
