                               Psi4 1.4a2.dev224

  ==> Input File <==

--------------------------------------------------------------------------
#Generated by lconvert.py for cbs job

memory 40 GB

molecule  {
0 1
  F       -0.1044510     0.9315880    -0.4175030
  C       -0.6883870    -0.2727000    -0.0407590
  H        0.0916640    -0.9482280     0.2964040
  H       -1.3937240    -0.0796360     0.7618900
  H       -1.2049480    -0.6908960    -0.8994190
--
0 1
  O        1.9735120     0.0517960     0.1362600
  H        2.7936510     0.5399390     0.0497550
  H        1.3017600     0.6703260    -0.1654330
units angstrom
no_reorient
symmetry c1
}

set {
scf_type DF
mp2_type DF
e_convergence 7
reference rhf
}

energy('mp2/aug-cc-pv[tq]z', bsse_type='cp')
--------------------------------------------------------------------------

    Molecular point group: c1
  Charge       = 0
  Multiplicity = 1
  Basis Set: AUG-CC-PVTZ
    Blend: AUG-CC-PVTZ
  Basis Set: (AUG-CC-PVTZ AUX)
    Blend: AUG-CC-PVTZ-JKFIT
  @DF-RHF Final Energy:   -76.06036551381162
    Total Energy =                        -76.0603655138116181
  Basis Set: (AUG-CC-PVTZ AUX)
    Blend: AUG-CC-PVTZ-RI
	 Reference Energy          =     -76.0603655138116181 [Eh]
	 Singles Energy            =      -0.0000000000000000 [Eh]
	 Same-Spin Energy          =      -0.0683931251688826 [Eh]
	 Opposite-Spin Energy      =      -0.2153236933182328 [Eh]
	 Correlation Energy        =      -0.2837168184871154 [Eh]
	 Total Energy              =     -76.3440823322987399 [Eh]
	 SCS Total Energy          =     -76.3415516541831209 [Eh]
    Molecular point group: c1
  Basis Set: AUG-CC-PVQZ
    Blend: AUG-CC-PVQZ
  Basis Set: (AUG-CC-PVQZ AUX)
    Blend: AUG-CC-PVQZ-JKFIT
  @DF-RHF Final Energy:   -76.06574526754144
    Total Energy =                        -76.0657452675414447
  Basis Set: (AUG-CC-PVQZ AUX)
  @DF-RHF Final Energy:   -76.06045654896093
    Total Energy =                        -76.0604565489609286
  @DF-RHF Final Energy:   -76.06577890810793
    Total Energy =                        -76.0657789081079443
  @DF-RHF Final Energy:  -139.09747346229184
    Total Energy =                       -139.0974734622918447
  @DF-RHF Final Energy:  -139.10680983749131
    Total Energy =                       -139.1068098374913120
  @DF-RHF Final Energy:  -139.09724920105970
    Total Energy =                       -139.0972492010596966
  @DF-RHF Final Energy:  -139.10671297539250
    Total Energy =                       -139.1067129753924974
  @DF-RHF Final Energy:  -215.14264119459699
    Total Energy =                       -215.1426411945969903
  @DF-RHF Final Energy:  -215.15744136006549
    Total Energy =                       -215.1574413600654907
*** Psi4 exiting successfully. Buy a developer a beer!
                               Psi4 1.4a2.dev224
  @DF-RHF Final Energy:   -76.06036551381933
    Total Energy =                        -76.0603655138193346
  @DF-RHF Final Energy:   -76.06574526755033
    Total Energy =                        -76.0657452675503123
  @DF-RHF Final Energy:   -76.06043988937630
    Total Energy =                        -76.0604398893762976
  @DF-RHF Final Energy:   -76.06577179815282
    Total Energy =                        -76.0657717981528236
  @DF-RHF Final Energy:  -139.09742800470445
    Total Energy =                       -139.0974280047044545
  @DF-RHF Final Energy:  -139.10679143771148
    Total Energy =                       -139.1067914377114789
  @DF-RHF Final Energy:  -139.09724920107996
    Total Energy =                       -139.0972492010799613
  @DF-RHF Final Energy:  -139.10671297541236
    Total Energy =                       -139.1067129754123926
  @DF-RHF Final Energy:  -215.15533747830511
    Total Energy =                       -215.1553374783051140
  @DF-RHF Final Energy:  -215.17016381744313
    Total Energy =                       -215.1701638174431253
*** Psi4 exiting successfully. Buy a developer a beer!
                               Psi4 1.4a2.dev224
                               Psi4 1.4a2.dev224
                               Psi4 1.4a2.dev224
                               Psi4 1.4a2.dev224
                               Psi4 1.4a2.dev224
                               Psi4 1.4a2.dev224
                               Psi4 1.4a2.dev224
  @DF-RHF Final Energy:   -76.06036545202841
    Total Energy =                        -76.0603654520284067
  @DF-RHF Final Energy:   -76.06574520178177
    Total Energy =                        -76.0657452017817661
  @DF-RHF Final Energy:   -76.06037532680088
    Total Energy =                        -76.0603753268008944
  @DF-RHF Final Energy:   -76.06574965656326
    Total Energy =                        -76.0657496565632698
  @DF-RHF Final Energy:  -139.09728205546961
    Total Energy =                       -139.0972820554696057
  @DF-RHF Final Energy:  -139.10672789718950
    Total Energy =                       -139.1067278971895007
  @DF-RHF Final Energy:  -139.09724913133354
    Total Energy =                       -139.0972491313335411
  @DF-RHF Final Energy:  -139.10671290529163
    Total Energy =                       -139.1067129052916300
  @DF-RHF Final Energy:  -215.15953593677190
    Total Energy =                       -215.1595359367719027
  @DF-RHF Final Energy:  -215.17434594642626
    Total Energy =                       -215.1743459464262571
*** Psi4 exiting successfully. Buy a developer a beer!
                               Psi4 1.4a2.dev224
  @DF-RHF Final Energy:   -76.06036566626908
    Total Energy =                        -76.0603656662690781
  @DF-RHF Final Energy:   -76.06574542849167
    Total Energy =                        -76.0657454284916810
  @DF-RHF Final Energy:   -76.06037087881387
    Total Energy =                        -76.0603708788138704
  @DF-RHF Final Energy:   -76.06574811429525
    Total Energy =                        -76.0657481142952463
  @DF-RHF Final Energy:  -139.09726239826011
    Total Energy =                       -139.0972623982601135
  @DF-RHF Final Energy:  -139.10672219393325
    Total Energy =                       -139.1067221939332512
  @DF-RHF Final Energy:  -139.09724913136586
    Total Energy =                       -139.0972491313658566
  @DF-RHF Final Energy:  -139.10671290512397
    Total Energy =                       -139.1067129051239704
  Multiplicity = 1
  @DF-RHF Final Energy:  -215.15879366966243
    Total Energy =                       -215.1587936696624297
	 Singles Energy            =      -0.0000000000000000 [Eh]
	 Same-Spin Energy          =      -0.1782269700173807 [Eh]
	 Opposite-Spin Energy      =      -0.5822870598977360 [Eh]
	 Correlation Energy        =      -0.7605140299151167 [Eh]
	 Total Energy              =    -215.9193076995775584 [Eh]
	 SCS Total Energy          =    -215.9169471315454985 [Eh]
    Molecular point group: c1

    Geometry (in Angstrom), charge = 0, multiplicity = 1:

       Center              X                  Y                   Z               Mass
    ------------   -----------------  -----------------  -----------------  -----------------
         F           -1.394050890775     0.741617167846    -0.427071326985    18.998403162730
         C           -1.977990890775    -0.462672832154    -0.050331326985    12.000000000000
         H           -1.197940890775    -1.138202832154     0.286828673015     1.007825032230
         H           -2.683320890775    -0.269612832154     0.752318673015     1.007825032230
         H           -2.494550890775    -0.880872832154    -0.908991326985     1.007825032230
         O            3.136869109225    -0.407882832154     0.498468673015    15.994914619570
         H            3.957009109225     0.080257167846     0.411968673015     1.007825032230
         H            2.465119109225     0.210647167846     0.196778673015     1.007825032230

  Charge       = 0
  Multiplicity = 1
  Basis Set: AUG-CC-PVQZ
    Blend: AUG-CC-PVQZ
  Basis Set: (AUG-CC-PVQZ AUX)
    Blend: AUG-CC-PVQZ-JKFIT

    Orbital Energies [Eh]
    ---------------------

    Doubly Occupied:

       1A    -26.276670     2A    -20.562423     3A    -11.305675
       4A     -1.585504     5A     -1.348879     6A     -0.957463
       7A     -0.712340     8A     -0.696546     9A     -0.696303
      10A     -0.674137    11A     -0.582859    12A     -0.534804
      13A     -0.534421    14A     -0.507595

  @DF-RHF Final Energy:  -215.17362734234314

   => Energetics <=

    Nuclear Repulsion Energy =             65.7235257491332021
    One-Electron Energy =                -427.8430663404165557
    Two-Electron Energy =                 146.9459132489402009
    Total Energy =                       -215.1736273423431385

  Dipole Moment: [D]
     X:    -0.6563      Y:     0.0415      Z:    -0.0862     Total:     0.6632

  Basis Set: (AUG-CC-PVQZ AUX)
    Blend: AUG-CC-PVQZ-RI
	 Reference Energy          =    -215.1736273423431385 [Eh]
	 Singles Energy            =      -0.0000000000000000 [Eh]
	 Same-Spin Energy          =      -0.1903486995512123 [Eh]
	 Opposite-Spin Energy      =      -0.6617280154999772 [Eh]
	 Correlation Energy        =      -0.8520767150511894 [Eh]
	 Total Energy              =    -216.0257040573943357 [Eh]

	 ================> DF-SCS-MP2 Energies <==================
	-----------------------------------------------------------
	 SCS Same-Spin Scale       =       0.3333333333333333 [-]
	 SCS Opposite-Spin Scale   =       1.2000000000000000 [-]
	 SCS Same-Spin Energy      =      -0.0634495665170707 [Eh]
	 SCS Opposite-Spin Energy  =      -0.7940736185999726 [Eh]
	 SCS Correlation Energy    =      -0.8575231851170434 [Eh]
	 SCS Total Energy          =    -216.0311505274601700 [Eh]
	-----------------------------------------------------------

*** Psi4 exiting successfully. Buy a developer a beer!
