                               Psi4 1.4a2.dev224

  ==> Input File <==

--------------------------------------------------------------------------
#Generated by lconvert.py for cbs job

memory 40 GB

molecule  {
0 1
  F       -0.1044510     0.9315880    -0.4175030
  C       -0.6883870    -0.2727000    -0.0407590
  H        0.0916640    -0.9482280     0.2964040
  H       -1.3937240    -0.0796360     0.7618900
  H       -1.2049480    -0.6908960    -0.8994190
--
0 1
  O        1.9735120     0.0517960     0.1362600
  H        2.7936510     0.5399390     0.0497550
  H        1.3017600     0.6703260    -0.1654330
units angstrom
no_reorient
symmetry c1
}

set {
scf_type DF
mp2_type DF
e_convergence 7
reference rhf
}

energy('mp2/aug-cc-pv[tq]z', bsse_type='cp')
--------------------------------------------------------------------------

    Molecular point group: c1
  Charge       = 0
  Multiplicity = 1
  Basis Set: AUG-CC-PVTZ
    Blend: AUG-CC-PVTZ
  Basis Set: (AUG-CC-PVTZ AUX)
    Blend: AUG-CC-PVTZ-JKFIT
  @DF-RHF Final Energy:   -76.06036551381162
    Total Energy =                        -76.0603655138116181
  Basis Set: (AUG-CC-PVTZ AUX)
    Blend: AUG-CC-PVTZ-RI
	 Reference Energy          =     -76.0603655138116181 [Eh]
	 Singles Energy            =      -0.0000000000000000 [Eh]
	 Same-Spin Energy          =      -0.0683931251688826 [Eh]
	 Opposite-Spin Energy      =      -0.2153236933182328 [Eh]
	 Correlation Energy        =      -0.2837168184871154 [Eh]
	 Total Energy              =     -76.3440823322987399 [Eh]
	 SCS Total Energy          =     -76.3415516541831209 [Eh]
    Molecular point group: c1
  Basis Set: AUG-CC-PVQZ
    Blend: AUG-CC-PVQZ
  Basis Set: (AUG-CC-PVQZ AUX)
    Blend: AUG-CC-PVQZ-JKFIT
  @DF-RHF Final Energy:   -76.06574526754144
    Total Energy =                        -76.0657452675414447
  Basis Set: (AUG-CC-PVQZ AUX)
  @DF-RHF Final Energy:   -76.06045654896093
    Total Energy =                        -76.0604565489609286
  @DF-RHF Final Energy:   -76.06577890810793
    Total Energy =                        -76.0657789081079443
  @DF-RHF Final Energy:  -139.09747346229184
    Total Energy =                       -139.0974734622918447
  @DF-RHF Final Energy:  -139.10680983749131
    Total Energy =                       -139.1068098374913120
  @DF-RHF Final Energy:  -139.09724920105970
    Total Energy =                       -139.0972492010596966
  @DF-RHF Final Energy:  -139.10671297539250
    Total Energy =                       -139.1067129753924974
  Multiplicity = 1
  @DF-RHF Final Energy:  -215.14264119459699
    Total Energy =                       -215.1426411945969903
	 Singles Energy            =      -0.0000000000000000 [Eh]
	 Same-Spin Energy          =      -0.1825743865347503 [Eh]
	 Opposite-Spin Energy      =      -0.5870041235796363 [Eh]
	 Correlation Energy        =      -0.7695785101143866 [Eh]
	 Total Energy              =    -215.9122197047113900 [Eh]
	 SCS Total Energy          =    -215.9079042717374648 [Eh]
    Molecular point group: c1

    Geometry (in Angstrom), charge = 0, multiplicity = 1:

       Center              X                  Y                   Z               Mass
    ------------   -----------------  -----------------  -----------------  -----------------
         F           -0.544982728666     0.648259326975    -0.298385082773    18.998403162730
         C           -1.128918728666    -0.556028673025     0.078358917227    12.000000000000
         H           -0.348867728666    -1.231556673025     0.415521917227     1.007825032230
         H           -1.834255728666    -0.362964673025     0.881007917227     1.007825032230
         H           -1.645479728666    -0.974224673025    -0.780301082773     1.007825032230
         O            1.532980271334    -0.231532673025     0.255377917227    15.994914619570
         H            2.353119271334     0.256610326975     0.168872917227     1.007825032230
         H            0.861228271334     0.386997326975    -0.046315082773     1.007825032230

  Charge       = 0
  Multiplicity = 1
  Basis Set: AUG-CC-PVQZ
    Blend: AUG-CC-PVQZ
  Basis Set: (AUG-CC-PVQZ AUX)
    Blend: AUG-CC-PVQZ-JKFIT

    Orbital Energies [Eh]
    ---------------------

    Doubly Occupied:

       1A    -26.303459     2A    -20.526539     3A    -11.307463
       4A     -1.624439     5A     -1.326011     6A     -0.969407
       7A     -0.778155     8A     -0.720663     9A     -0.700696
      10A     -0.635839    11A     -0.587623    12A     -0.548067
      13A     -0.521217    14A     -0.481689

  @DF-RHF Final Energy:  -215.15744136006549

   => Energetics <=

    Nuclear Repulsion Energy =             85.0092770430148761
    One-Electron Energy =                -466.2709060613491943
    Two-Electron Energy =                 166.1041876582688133
    Total Energy =                       -215.1574413600654907

  Dipole Moment: [D]
     X:    -1.1998      Y:     0.0389      Z:    -0.1456     Total:     1.2092

  Basis Set: (AUG-CC-PVQZ AUX)
    Blend: AUG-CC-PVQZ-RI
	 Reference Energy          =    -215.1574413600654907 [Eh]
	 Singles Energy            =      -0.0000000000000000 [Eh]
	 Same-Spin Energy          =      -0.1947696752811794 [Eh]
	 Opposite-Spin Energy      =      -0.6656750901594429 [Eh]
	 Correlation Energy        =      -0.8604447654406224 [Eh]
	 Total Energy              =    -216.0178861255061236 [Eh]

	 ================> DF-SCS-MP2 Energies <==================
	-----------------------------------------------------------
	 SCS Same-Spin Scale       =       0.3333333333333333 [-]
	 SCS Opposite-Spin Scale   =       1.2000000000000000 [-]
	 SCS Same-Spin Energy      =      -0.0649232250937265 [Eh]
	 SCS Opposite-Spin Energy  =      -0.7988101081913315 [Eh]
	 SCS Correlation Energy    =      -0.8637333332850580 [Eh]
	 SCS Total Energy          =    -216.0211746933505594 [Eh]
	-----------------------------------------------------------

*** Psi4 exiting successfully. Buy a developer a beer!
