                               Psi4 1.4a2.dev224

  ==> Input File <==

--------------------------------------------------------------------------
#Generated by lconvert.py for cbs job

memory 40 GB

molecule  {
0 1
  F        1.7986600    -0.3045100     0.0001670
  C        1.6273430     1.0704320     0.0001070
  H        0.5647760     1.2939850     0.0000860
  H        2.0966540     1.4831710    -0.8888160
  H        2.0966340     1.4832470     0.8890040
--
0 1
  F       -1.0206310     0.4556300     0.0002090
  C       -0.8494370    -0.9193250     0.0001190
  H       -1.3188800    -1.3320160    -0.8887560
  H       -1.3186730    -1.3321070     0.8890610
  H        0.2131090    -1.1429810    -0.0000150
units angstrom
no_reorient
symmetry c1
}

set {
scf_type DF
mp2_type DF
e_convergence 7
reference rhf
}

energy('mp2/aug-cc-pv[tq]z', bsse_type='cp')
--------------------------------------------------------------------------

    Molecular point group: c1
  Charge       = 0
  Multiplicity = 1
  Basis Set: AUG-CC-PVTZ
    Blend: AUG-CC-PVTZ
  Basis Set: (AUG-CC-PVTZ AUX)
    Blend: AUG-CC-PVTZ-JKFIT
  @DF-RHF Final Energy:  -139.09738036305680
    Total Energy =                       -139.0973803630568000
  Basis Set: (AUG-CC-PVTZ AUX)
    Blend: AUG-CC-PVTZ-RI
	 Reference Energy          =    -139.0973803630568000 [Eh]
	 Singles Energy            =      -0.0000000000000000 [Eh]
	 Same-Spin Energy          =      -0.1097737396123473 [Eh]
	 Opposite-Spin Energy      =      -0.3667902076068827 [Eh]
	 Correlation Energy        =      -0.4765639472192300 [Eh]
	 Total Energy              =    -139.5739443102760333 [Eh]
	 SCS Total Energy          =    -139.5741198587224972 [Eh]
    Molecular point group: c1
  Basis Set: AUG-CC-PVQZ
    Blend: AUG-CC-PVQZ
  Basis Set: (AUG-CC-PVQZ AUX)
    Blend: AUG-CC-PVQZ-JKFIT
  @DF-RHF Final Energy:  -139.10685270783992
    Total Energy =                       -139.1068527078399200
  Basis Set: (AUG-CC-PVQZ AUX)
  @DF-RHF Final Energy:  -139.09757518581645
    Total Energy =                       -139.0975751858164813
  @DF-RHF Final Energy:  -139.10693308604976
    Total Energy =                       -139.1069330860497644
  @DF-RHF Final Energy:  -139.09757512403399
    Total Energy =                       -139.0975751240339946
  @DF-RHF Final Energy:  -139.10693303201992
    Total Energy =                       -139.1069330320199242
  @DF-RHF Final Energy:  -139.09738032143886
    Total Energy =                       -139.0973803214388624
  @DF-RHF Final Energy:  -139.10685266159101
    Total Energy =                       -139.1068526615910059
  @DF-RHF Final Energy:  -278.17709326537772
    Total Energy =                       -278.1770932653777209
  @DF-RHF Final Energy:  -278.19596956955741
    Total Energy =                       -278.1959695695574055
*** Psi4 exiting successfully. Buy a developer a beer!
                               Psi4 1.4a2.dev224
  @DF-RHF Final Energy:  -139.09738036306399
    Total Energy =                       -139.0973803630639907
  @DF-RHF Final Energy:  -139.10685270781528
    Total Energy =                       -139.1068527078152783
  @DF-RHF Final Energy:  -139.09754717216910
    Total Energy =                       -139.0975471721691008
  @DF-RHF Final Energy:  -139.10692178389522
    Total Energy =                       -139.1069217838952454
  @DF-RHF Final Energy:  -139.09754712047055
    Total Energy =                       -139.0975471204705514
  @DF-RHF Final Energy:  -139.10692173072212
    Total Energy =                       -139.1069217307220924
  @DF-RHF Final Energy:  -139.09738032142025
    Total Energy =                       -139.0973803214202462
  @DF-RHF Final Energy:  -139.10685266163975
    Total Energy =                       -139.1068526616397492
  @DF-RHF Final Energy:  -278.19080987276692
    Total Energy =                       -278.1908098727668630
  @DF-RHF Final Energy:  -278.20962464495273
    Total Energy =                       -278.2096246449527257
*** Psi4 exiting successfully. Buy a developer a beer!
                               Psi4 1.4a2.dev224
                               Psi4 1.4a2.dev224
                               Psi4 1.4a2.dev224
                               Psi4 1.4a2.dev224
                               Psi4 1.4a2.dev224
                               Psi4 1.4a2.dev224
                               Psi4 1.4a2.dev224
  @DF-RHF Final Energy:  -139.09738018968517
    Total Energy =                       -139.0973801896851683
  @DF-RHF Final Energy:  -139.10685252539722
    Total Energy =                       -139.1068525253971870
  @DF-RHF Final Energy:  -139.09739624907576
    Total Energy =                       -139.0973962490757572
  @DF-RHF Final Energy:  -139.10686303183189
    Total Energy =                       -139.1068630318318924
  @DF-RHF Final Energy:  -139.09739647113611
    Total Energy =                       -139.0973964711361077
  @DF-RHF Final Energy:  -139.10686326690853
    Total Energy =                       -139.1068632669085332
  @DF-RHF Final Energy:  -139.09738041402656
    Total Energy =                       -139.0973804140265599
  @DF-RHF Final Energy:  -139.10685276147103
    Total Energy =                       -139.1068527614710320
  @DF-RHF Final Energy:  -278.19566613412923
    Total Energy =                       -278.1956661341292261
  @DF-RHF Final Energy:  -278.21459621663786
    Total Energy =                       -278.2145962166378581
*** Psi4 exiting successfully. Buy a developer a beer!
                               Psi4 1.4a2.dev224
  @DF-RHF Final Energy:  -139.09738049780395
    Total Energy =                       -139.0973804978039539
  @DF-RHF Final Energy:  -139.10685284876774
    Total Energy =                       -139.1068528487677440
  @DF-RHF Final Energy:  -139.09738432663346
    Total Energy =                       -139.0973843266334598
  @DF-RHF Final Energy:  -139.10685655114236
    Total Energy =                       -139.1068565511423571
  @DF-RHF Final Energy:  -139.09738424246302
    Total Energy =                       -139.0973842424630220
  @DF-RHF Final Energy:  -139.10685646347216
    Total Energy =                       -139.1068564634721270
  @DF-RHF Final Energy:  -139.09738041407766
    Total Energy =                       -139.0973804140776622
  @DF-RHF Final Energy:  -139.10685276154763
    Total Energy =                       -139.1068527615476569
  Multiplicity = 1
  @DF-RHF Final Energy:  -278.19530749788140
    Total Energy =                       -278.1953074978814016
	 Singles Energy            =      -0.0000000000000000 [Eh]
	 Same-Spin Energy          =      -0.2195728161875321 [Eh]
	 Opposite-Spin Energy      =      -0.7336369826554316 [Eh]
	 Correlation Energy        =      -0.9532097988429638 [Eh]
	 Total Energy              =    -279.1485172967243784 [Eh]
	 SCS Total Energy          =    -279.1488628157970879 [Eh]
    Molecular point group: c1

    Geometry (in Angstrom), charge = 0, multiplicity = 1:

       Center              X                  Y                   Z               Mass
    ------------   -----------------  -----------------  -----------------  -----------------
         F            2.971918124223    -0.076612495858    -0.000000252036    18.998403162730
         C            2.800598124223     1.298327504142    -0.000060252036    12.000000000000
         H            1.738038124223     1.521877504142    -0.000080252036     1.007825032230
         H            3.269908124223     1.711067504142    -0.888990252036     1.007825032230
         H            3.269888124223     1.711147504142     0.888829747964     1.007825032230
         F           -2.971861875777     0.076617504142     0.000069747964    18.998403162730
         C           -2.800661875777    -1.298332495858    -0.000020252036    12.000000000000
         H           -3.270111875777    -1.711022495858    -0.888890252036     1.007825032230
         H           -3.269901875777    -1.711112495858     0.888929747964     1.007825032230
         H           -1.738121875777    -1.521992495858    -0.000150252036     1.007825032230

  Charge       = 0
  Multiplicity = 1
  Basis Set: AUG-CC-PVQZ
    Blend: AUG-CC-PVQZ
  Basis Set: (AUG-CC-PVQZ AUX)
    Blend: AUG-CC-PVQZ-JKFIT

    Orbital Energies [Eh]
    ---------------------

    Doubly Occupied:

       1A    -26.274615     2A    -26.274614     3A    -11.303411
       4A    -11.303410     5A     -1.584790     6A     -1.584787
       7A     -0.955137     8A     -0.955134     9A     -0.695100
      10A     -0.694922    11A     -0.694684    12A     -0.694678
      13A     -0.673572    14A     -0.673538    15A     -0.531763
      16A     -0.531706    17A     -0.531090    18A     -0.531084

  @DF-RHF Final Energy:  -278.21425001806051

   => Energetics <=

    Nuclear Repulsion Energy =            103.3555186816895883
    One-Electron Energy =                -590.1634663051399912
    Two-Electron Energy =                 208.5936976053898775
    Total Energy =                       -278.2142500180605111

  Dipole Moment: [D]
     X:    -0.0002      Y:     0.0000      Z:    -0.0002     Total:     0.0003

  Basis Set: (AUG-CC-PVQZ AUX)
    Blend: AUG-CC-PVQZ-RI
	 Reference Energy          =    -278.2142500180605111 [Eh]
	 Singles Energy            =      -0.0000000000000000 [Eh]
	 Same-Spin Energy          =      -0.2351732039531131 [Eh]
	 Opposite-Spin Energy      =      -0.8347231349705307 [Eh]
	 Correlation Energy        =      -1.0698963389236438 [Eh]
	 Total Energy              =    -279.2841463569841380 [Eh]

	 ================> DF-SCS-MP2 Energies <==================
	-----------------------------------------------------------
	 SCS Same-Spin Scale       =       0.3333333333333333 [-]
	 SCS Opposite-Spin Scale   =       1.2000000000000000 [-]
	 SCS Same-Spin Energy      =      -0.0783910679843710 [Eh]
	 SCS Opposite-Spin Energy  =      -1.0016677619646368 [Eh]
	 SCS Correlation Energy    =      -1.0800588299490079 [Eh]
	 SCS Total Energy          =    -279.2943088480095071 [Eh]
	-----------------------------------------------------------

*** Psi4 exiting successfully. Buy a developer a beer!
