                               Psi4 1.4a2.dev224

  ==> Input File <==

--------------------------------------------------------------------------
#Generated by lconvert.py for cbs job

memory 20 GB

molecule  {
0 1
  F       1.798660   -0.304510    0.000170
  C       1.627340    1.070430    0.000110
  H       0.564780    1.293980    0.000090
  H       2.096650    1.483170   -0.888820
  H       2.096630    1.483250    0.889000
--
0 1
  F      -2.577360    0.153250    0.000230
  C      -2.406170   -1.221710    0.000140
  H      -2.875610   -1.634400   -0.888740
  H      -2.875400   -1.634490    0.889080
  H      -1.343620   -1.445360    0.000000
units angstrom
no_reorient
symmetry c1
}

set {
scf_type DF
mp2_type DF
e_convergence 7
reference rhf
}

energy('mp2/aug-cc-pv[tq]z', bsse_type='cp')
--------------------------------------------------------------------------

    Molecular point group: c1
  Charge       = 0
  Multiplicity = 1
  Basis Set: AUG-CC-PVTZ
    Blend: AUG-CC-PVTZ
  Basis Set: (AUG-CC-PVTZ AUX)
    Blend: AUG-CC-PVTZ-JKFIT
  @DF-RHF Final Energy:  -139.09738023565865
    Total Energy =                       -139.0973802356586475
  Basis Set: (AUG-CC-PVTZ AUX)
    Blend: AUG-CC-PVTZ-RI
	 Reference Energy          =    -139.0973802356586475 [Eh]
	 Singles Energy            =      -0.0000000000000000 [Eh]
	 Same-Spin Energy          =      -0.1097737542770117 [Eh]
	 Opposite-Spin Energy      =      -0.3667903279678042 [Eh]
	 Correlation Energy        =      -0.4765640822448159 [Eh]
	 Total Energy              =    -139.5739443179034538 [Eh]
	 SCS Total Energy          =    -139.5741198806456964 [Eh]
    Molecular point group: c1
  Basis Set: AUG-CC-PVQZ
    Blend: AUG-CC-PVQZ
  Basis Set: (AUG-CC-PVQZ AUX)
    Blend: AUG-CC-PVQZ-JKFIT
  @DF-RHF Final Energy:  -139.10685257175220
    Total Energy =                       -139.1068525717521993
  Basis Set: (AUG-CC-PVQZ AUX)
  @DF-RHF Final Energy:  -139.09742337680345
    Total Energy =                       -139.0974233768034480
  @DF-RHF Final Energy:  -139.10687252511613
    Total Energy =                       -139.1068725251161595
  @DF-RHF Final Energy:  -139.09742355785153
    Total Energy =                       -139.0974235578515277
  @DF-RHF Final Energy:  -139.10687271280523
    Total Energy =                       -139.1068727128052274
  @DF-RHF Final Energy:  -139.09738041407323
    Total Energy =                       -139.0973804140732284
  @DF-RHF Final Energy:  -139.10685276146748
    Total Energy =                       -139.1068527614674792
  Multiplicity = 1
  @DF-RHF Final Energy:  -278.19635785450521
    Total Energy =                       -278.1963578545052087
	 Singles Energy            =      -0.0000000000000000 [Eh]
	 Same-Spin Energy          =      -0.2198181024286361 [Eh]
	 Opposite-Spin Energy      =      -0.7340682186170218 [Eh]
	 Correlation Energy        =      -0.9538863210456578 [Eh]
	 Total Energy              =    -279.1502441755508812 [Eh]
	 SCS Total Energy          =    -279.1505124176551931 [Eh]
    Molecular point group: c1

    Geometry (in Angstrom), charge = 0, multiplicity = 1:

       Center              X                  Y                   Z               Mass
    ------------   -----------------  -----------------  -----------------  -----------------
         F            2.188039887794    -0.228875436058     0.000005192307    18.998403162730
         C            2.016719887794     1.146064563942    -0.000054807693    12.000000000000
         H            0.954159887794     1.369614563942    -0.000074807693     1.007825032230
         H            2.486029887794     1.558804563942    -0.888984807693     1.007825032230
         H            2.486009887794     1.558884563942     0.888835192307     1.007825032230
         F           -2.187980112206     0.228884563942     0.000065192307    18.998403162730
         C           -2.016790112206    -1.146075436058    -0.000024807693    12.000000000000
         H           -2.486230112206    -1.558765436058    -0.888904807693     1.007825032230
         H           -2.486020112206    -1.558855436058     0.888915192307     1.007825032230
         H           -0.954240112206    -1.369725436058    -0.000164807693     1.007825032230

  Charge       = 0
  Multiplicity = 1
  Basis Set: AUG-CC-PVQZ
    Blend: AUG-CC-PVQZ
  Basis Set: (AUG-CC-PVQZ AUX)
    Blend: AUG-CC-PVQZ-JKFIT

    Orbital Energies [Eh]
    ---------------------

    Doubly Occupied:

       1A    -26.274851     2A    -26.274850     3A    -11.301723
       4A    -11.301720     5A     -1.585158     6A     -1.585095
       7A     -0.954041     8A     -0.953931     9A     -0.696985
      10A     -0.694610    11A     -0.694379    12A     -0.692655
      13A     -0.673844    14A     -0.673046    15A     -0.532064
      16A     -0.530451    17A     -0.530297    18A     -0.529043

  @DF-RHF Final Energy:  -278.21524578372509

   => Energetics <=

    Nuclear Repulsion Energy =            113.5407447473874214
    One-Electron Energy =                -610.5544891227157223
    Two-Electron Energy =                 218.7984985916032201
    Total Energy =                       -278.2152457837250950

  Dipole Moment: [D]
     X:    -0.0002      Y:    -0.0000      Z:    -0.0002     Total:     0.0003

  Basis Set: (AUG-CC-PVQZ AUX)
    Blend: AUG-CC-PVQZ-RI
	 Reference Energy          =    -278.2152457837250950 [Eh]
	 Singles Energy            =      -0.0000000000000000 [Eh]
	 Same-Spin Energy          =      -0.2354120710338289 [Eh]
	 Opposite-Spin Energy      =      -0.8349781134946379 [Eh]
	 Correlation Energy        =      -1.0703901845284669 [Eh]
	 Total Energy              =    -279.2856359682535867 [Eh]

	 ================> DF-SCS-MP2 Energies <==================
	-----------------------------------------------------------
	 SCS Same-Spin Scale       =       0.3333333333333333 [-]
	 SCS Opposite-Spin Scale   =       1.2000000000000000 [-]
	 SCS Same-Spin Energy      =      -0.0784706903446096 [Eh]
	 SCS Opposite-Spin Energy  =      -1.0019737361935654 [Eh]
	 SCS Correlation Energy    =      -1.0804444265381750 [Eh]
	 SCS Total Energy          =    -279.2956902102632739 [Eh]
	-----------------------------------------------------------

*** Psi4 exiting successfully. Buy a developer a beer!
