                               Psi4 1.4a2.dev224

  ==> Input File <==

--------------------------------------------------------------------------
#Generated by lconvert.py for cbs job

memory 40 GB

molecule  {
0 1
  F        1.7986600    -0.3045100     0.0001670
  C        1.6273430     1.0704320     0.0001070
  H        0.5647760     1.2939850     0.0000860
  H        2.0966540     1.4831710    -0.8888160
  H        2.0966340     1.4832470     0.8890040
--
0 1
  F       -1.7984210     0.3045510     0.0002170
  C       -1.6272270    -1.0704040     0.0001270
  H       -2.0966700    -1.4830950    -0.8887480
  H       -2.0964630    -1.4831860     0.8890690
  H       -0.5646810    -1.2940600    -0.0000070
units angstrom
no_reorient
symmetry c1
}

set {
scf_type DF
mp2_type DF
e_convergence 7
reference rhf
}

energy('mp2/aug-cc-pv[tq]z', bsse_type='cp')
--------------------------------------------------------------------------

    Molecular point group: c1
  Charge       = 0
  Multiplicity = 1
  Basis Set: AUG-CC-PVTZ
    Blend: AUG-CC-PVTZ
  Basis Set: (AUG-CC-PVTZ AUX)
    Blend: AUG-CC-PVTZ-JKFIT
  @DF-RHF Final Energy:  -139.09738036304583
    Total Energy =                       -139.0973803630458292
  Basis Set: (AUG-CC-PVTZ AUX)
    Blend: AUG-CC-PVTZ-RI
	 Reference Energy          =    -139.0973803630458292 [Eh]
	 Singles Energy            =      -0.0000000000000000 [Eh]
	 Same-Spin Energy          =      -0.1097737396123985 [Eh]
	 Opposite-Spin Energy      =      -0.3667902076070451 [Eh]
	 Correlation Energy        =      -0.4765639472194436 [Eh]
	 Total Energy              =    -139.5739443102652615 [Eh]
	 SCS Total Energy          =    -139.5741198587117537 [Eh]
    Molecular point group: c1
  Basis Set: AUG-CC-PVQZ
    Blend: AUG-CC-PVQZ
  Basis Set: (AUG-CC-PVQZ AUX)
    Blend: AUG-CC-PVQZ-JKFIT
  @DF-RHF Final Energy:  -139.10685270776546
    Total Energy =                       -139.1068527077654551
  Basis Set: (AUG-CC-PVQZ AUX)
  @DF-RHF Final Energy:  -139.09747676772582
    Total Energy =                       -139.0974767677258228
  @DF-RHF Final Energy:  -139.10689727953357
    Total Energy =                       -139.1068972795335696
  @DF-RHF Final Energy:  -139.09747670865178
    Total Energy =                       -139.0974767086517829
  @DF-RHF Final Energy:  -139.10689722776070
    Total Energy =                       -139.1068972277606974
  @DF-RHF Final Energy:  -139.09738032139794
    Total Energy =                       -139.0973803213979636
  @DF-RHF Final Energy:  -139.10685266157273
    Total Energy =                       -139.1068526615727308
  Multiplicity = 1
  @DF-RHF Final Energy:  -278.19676130667489
    Total Energy =                       -278.1967613066748868
	 Singles Energy            =      -0.0000000000000000 [Eh]
	 Same-Spin Energy          =      -0.2205607868894861 [Eh]
	 Opposite-Spin Energy      =      -0.7351597977103700 [Eh]
	 Correlation Energy        =      -0.9557205845998561 [Eh]
	 Total Energy              =    -279.1524818912747605 [Eh]
	 SCS Total Energy          =    -279.1524733262237987 [Eh]
    Molecular point group: c1

    Geometry (in Angstrom), charge = 0, multiplicity = 1:

       Center              X                  Y                   Z               Mass
    ------------   -----------------  -----------------  -----------------  -----------------
         F            1.798569108860    -0.304527303861     0.000009807210    18.998403162730
         C            1.627252108860     1.070414696139    -0.000050192790    12.000000000000
         H            0.564685108860     1.293967696139    -0.000071192790     1.007825032230
         H            2.096563108860     1.483153696139    -0.888973192790     1.007825032230
         H            2.096543108860     1.483229696139     0.888846807210     1.007825032230
         F           -1.798511891140     0.304533696139     0.000059807210    18.998403162730
         C           -1.627317891140    -1.070421303861    -0.000030192790    12.000000000000
         H           -2.096760891140    -1.483112303861    -0.888905192790     1.007825032230
         H           -2.096553891140    -1.483203303861     0.888911807210     1.007825032230
         H           -0.564771891140    -1.294077303861    -0.000164192790     1.007825032230

  Charge       = 0
  Multiplicity = 1
  Basis Set: AUG-CC-PVQZ
    Blend: AUG-CC-PVQZ
  Basis Set: (AUG-CC-PVQZ AUX)
    Blend: AUG-CC-PVQZ-JKFIT

    Orbital Energies [Eh]
    ---------------------

    Doubly Occupied:

       1A    -26.275328     2A    -26.275325     3A    -11.298806
       4A    -11.298803     5A     -1.586355     6A     -1.585722
       7A     -0.953199     8A     -0.951635     9A     -0.705293
      10A     -0.695133    11A     -0.693719    12A     -0.686076
      13A     -0.675110    14A     -0.670804    15A     -0.536915
      16A     -0.529856    17A     -0.528946    18A     -0.520637

  @DF-RHF Final Energy:  -278.21559336771247

   => Energetics <=

    Nuclear Repulsion Energy =            121.7855412593207376
    One-Electron Energy =                -627.0669430548447281
    Two-Electron Energy =                 227.0658084278115041
    Total Energy =                       -278.2155933677124722

  Dipole Moment: [D]
     X:    -0.0002      Y:    -0.0000      Z:    -0.0002     Total:     0.0003

  Basis Set: (AUG-CC-PVQZ AUX)
    Blend: AUG-CC-PVQZ-RI
	 Reference Energy          =    -278.2155933677124722 [Eh]
	 Singles Energy            =      -0.0000000000000000 [Eh]
	 Same-Spin Energy          =      -0.2361437408627752 [Eh]
	 Opposite-Spin Energy      =      -0.8357662436074158 [Eh]
	 Correlation Energy        =      -1.0719099844701909 [Eh]
	 Total Energy              =    -279.2875033521826822 [Eh]

	 ================> DF-SCS-MP2 Energies <==================
	-----------------------------------------------------------
	 SCS Same-Spin Scale       =       0.3333333333333333 [-]
	 SCS Opposite-Spin Scale   =       1.2000000000000000 [-]
	 SCS Same-Spin Energy      =      -0.0787145802875917 [Eh]
	 SCS Opposite-Spin Energy  =      -1.0029194923288989 [Eh]
	 SCS Correlation Energy    =      -1.0816340726164906 [Eh]
	 SCS Total Energy          =    -279.2972274403289816 [Eh]
	-----------------------------------------------------------

*** Psi4 exiting successfully. Buy a developer a beer!
