                               Psi4 1.4a2.dev224

  ==> Input File <==

--------------------------------------------------------------------------
#Generated by lconvert.py for cbs job

memory 40 GB

molecule  {
0 1
  F        1.7986600    -0.3045100     0.0001670
  C        1.6273430     1.0704320     0.0001070
  H        0.5647760     1.2939850     0.0000860
  H        2.0966540     1.4831710    -0.8888160
  H        2.0966340     1.4832470     0.8890040
--
0 1
  F       -1.9266700     0.2796400     0.0002180
  C       -1.7554760    -1.0953150     0.0001280
  H       -2.2249190    -1.5080060    -0.8887470
  H       -2.2247120    -1.5080970     0.8890700
  H       -0.6929300    -1.3189710    -0.0000060
units angstrom
no_reorient
symmetry c1
}

set {
scf_type DF
mp2_type DF
e_convergence 7
reference rhf
}

energy('mp2/aug-cc-pv[tq]z', bsse_type='cp')
--------------------------------------------------------------------------

    Molecular point group: c1
  Charge       = 0
  Multiplicity = 1
  Basis Set: AUG-CC-PVTZ
    Blend: AUG-CC-PVTZ
  Basis Set: (AUG-CC-PVTZ AUX)
    Blend: AUG-CC-PVTZ-JKFIT
  @DF-RHF Final Energy:  -139.09738036304913
    Total Energy =                       -139.0973803630491261
  Basis Set: (AUG-CC-PVTZ AUX)
    Blend: AUG-CC-PVTZ-RI
	 Reference Energy          =    -139.0973803630491261 [Eh]
	 Singles Energy            =      -0.0000000000000000 [Eh]
	 Same-Spin Energy          =      -0.1097737396122937 [Eh]
	 Opposite-Spin Energy      =      -0.3667902076066450 [Eh]
	 Correlation Energy        =      -0.4765639472189387 [Eh]
	 Total Energy              =    -139.5739443102680752 [Eh]
	 SCS Total Energy          =    -139.5741198587145391 [Eh]
    Molecular point group: c1
  Basis Set: AUG-CC-PVQZ
    Blend: AUG-CC-PVQZ
  Basis Set: (AUG-CC-PVQZ AUX)
    Blend: AUG-CC-PVQZ-JKFIT
  @DF-RHF Final Energy:  -139.10685270785410
    Total Energy =                       -139.1068527078541024
  Basis Set: (AUG-CC-PVQZ AUX)
  @DF-RHF Final Energy:  -139.09746064483306
    Total Energy =                       -139.0974606448330633
  @DF-RHF Final Energy:  -139.10689236050723
    Total Energy =                       -139.1068923605072314
  @DF-RHF Final Energy:  -139.09746058818305
    Total Energy =                       -139.0974605881830541
  @DF-RHF Final Energy:  -139.10689231025538
    Total Energy =                       -139.1068923102553754
  @DF-RHF Final Energy:  -139.09738032140993
    Total Energy =                       -139.0973803214099291
  @DF-RHF Final Energy:  -139.10685266155338
    Total Energy =                       -139.1068526615533756
  Multiplicity = 1
  @DF-RHF Final Energy:  -278.19689355357752
    Total Energy =                       -278.1968935535775245
	 Singles Energy            =      -0.0000000000000000 [Eh]
	 Same-Spin Energy          =      -0.2203546692430876 [Eh]
	 Opposite-Spin Energy      =      -0.7348799639776411 [Eh]
	 Correlation Energy        =      -0.9552346332207288 [Eh]
	 Total Energy              =    -279.1521281867982793 [Eh]
	 SCS Total Energy          =    -279.1522010667650306 [Eh]
    Molecular point group: c1

    Geometry (in Angstrom), charge = 0, multiplicity = 1:

       Center              X                  Y                   Z               Mass
    ------------   -----------------  -----------------  -----------------  -----------------
         F            1.862693608860    -0.292071803861     0.000009307210    18.998403162730
         C            1.691376608860     1.082870196139    -0.000050692790    12.000000000000
         H            0.628809608860     1.306423196139    -0.000071692790     1.007825032230
         H            2.160687608860     1.495609196139    -0.888973692790     1.007825032230
         H            2.160667608860     1.495685196139     0.888846307210     1.007825032230
         F           -1.862636391140     0.292078196139     0.000060307210    18.998403162730
         C           -1.691442391140    -1.082876803861    -0.000029692790    12.000000000000
         H           -2.160885391140    -1.495567803861    -0.888904692790     1.007825032230
         H           -2.160678391140    -1.495658803861     0.888912307210     1.007825032230
         H           -0.628896391140    -1.306532803861    -0.000163692790     1.007825032230

  Charge       = 0
  Multiplicity = 1
  Basis Set: AUG-CC-PVQZ
    Blend: AUG-CC-PVQZ
  Basis Set: (AUG-CC-PVQZ AUX)
    Blend: AUG-CC-PVQZ-JKFIT

    Orbital Energies [Eh]
    ---------------------

    Doubly Occupied:

       1A    -26.275230     2A    -26.275227     3A    -11.299555
       4A    -11.299552     5A     -1.586003     6A     -1.585569
       7A     -0.953297     8A     -0.952247     9A     -0.702901
      10A     -0.694955    11A     -0.693906    12A     -0.687711
      13A     -0.674763    14A     -0.671571    15A     -0.535443
      16A     -0.529972    17A     -0.529295    18A     -0.522976

  @DF-RHF Final Energy:  -278.21574423813621

   => Energetics <=

    Nuclear Repulsion Energy =            120.2005612388805105
    One-Electron Energy =                -623.8922618567546579
    Two-Electron Energy =                 225.4759563797379656
    Total Energy =                       -278.2157442381362102

  Dipole Moment: [D]
     X:    -0.0002      Y:    -0.0000      Z:    -0.0002     Total:     0.0003

  Basis Set: (AUG-CC-PVQZ AUX)
    Blend: AUG-CC-PVQZ-RI
	 Reference Energy          =    -278.2157442381362102 [Eh]
	 Singles Energy            =      -0.0000000000000000 [Eh]
	 Same-Spin Energy          =      -0.2359397349759892 [Eh]
	 Opposite-Spin Energy      =      -0.8355480995080100 [Eh]
	 Correlation Energy        =      -1.0714878344839993 [Eh]
	 Total Energy              =    -279.2872320726202133 [Eh]

	 ================> DF-SCS-MP2 Energies <==================
	-----------------------------------------------------------
	 SCS Same-Spin Scale       =       0.3333333333333333 [-]
	 SCS Opposite-Spin Scale   =       1.2000000000000000 [-]
	 SCS Same-Spin Energy      =      -0.0786465783253297 [Eh]
	 SCS Opposite-Spin Energy  =      -1.0026577194096120 [Eh]
	 SCS Correlation Energy    =      -1.0813042977349419 [Eh]
	 SCS Total Energy          =    -279.2970485358711699 [Eh]
	-----------------------------------------------------------

*** Psi4 exiting successfully. Buy a developer a beer!
