                               Psi4 1.4a2.dev224

  ==> Input File <==

--------------------------------------------------------------------------
#Generated by lconvert.py for cbs job

memory 40 GB

molecule  {
0 1
  F        1.7986600    -0.3045100     0.0001670
  C        1.6273430     1.0704320     0.0001070
  H        0.5647760     1.2939850     0.0000860
  H        2.0966540     1.4831710    -0.8888160
  H        2.0966340     1.4832470     0.8890040
--
0 1
  F       -1.0206310     0.4556300     0.0002090
  C       -0.8494370    -0.9193250     0.0001190
  H       -1.3188800    -1.3320160    -0.8887560
  H       -1.3186730    -1.3321070     0.8890610
  H        0.2131090    -1.1429810    -0.0000150
units angstrom
no_reorient
symmetry c1
}

set {
scf_type DF
mp2_type DF
e_convergence 7
reference rhf
}

energy('mp2/aug-cc-pv[tq]z', bsse_type='cp')
--------------------------------------------------------------------------

    Molecular point group: c1
  Charge       = 0
  Multiplicity = 1
  Basis Set: AUG-CC-PVTZ
    Blend: AUG-CC-PVTZ
  Basis Set: (AUG-CC-PVTZ AUX)
    Blend: AUG-CC-PVTZ-JKFIT
  @DF-RHF Final Energy:  -139.09738036305680
    Total Energy =                       -139.0973803630568000
  Basis Set: (AUG-CC-PVTZ AUX)
    Blend: AUG-CC-PVTZ-RI
	 Reference Energy          =    -139.0973803630568000 [Eh]
	 Singles Energy            =      -0.0000000000000000 [Eh]
	 Same-Spin Energy          =      -0.1097737396123473 [Eh]
	 Opposite-Spin Energy      =      -0.3667902076068827 [Eh]
	 Correlation Energy        =      -0.4765639472192300 [Eh]
	 Total Energy              =    -139.5739443102760333 [Eh]
	 SCS Total Energy          =    -139.5741198587224972 [Eh]
    Molecular point group: c1
  Basis Set: AUG-CC-PVQZ
    Blend: AUG-CC-PVQZ
  Basis Set: (AUG-CC-PVQZ AUX)
    Blend: AUG-CC-PVQZ-JKFIT
  @DF-RHF Final Energy:  -139.10685270783992
    Total Energy =                       -139.1068527078399200
  Basis Set: (AUG-CC-PVQZ AUX)
  @DF-RHF Final Energy:  -139.09757518581645
    Total Energy =                       -139.0975751858164813
  @DF-RHF Final Energy:  -139.10693308604976
    Total Energy =                       -139.1069330860497644
  @DF-RHF Final Energy:  -139.09757512403399
    Total Energy =                       -139.0975751240339946
  @DF-RHF Final Energy:  -139.10693303201992
    Total Energy =                       -139.1069330320199242
  @DF-RHF Final Energy:  -139.09738032143886
    Total Energy =                       -139.0973803214388624
  @DF-RHF Final Energy:  -139.10685266159101
    Total Energy =                       -139.1068526615910059
  Multiplicity = 1
  @DF-RHF Final Energy:  -278.17709326537772
    Total Energy =                       -278.1770932653777209
	 Singles Energy            =      -0.0000000000000000 [Eh]
	 Same-Spin Energy          =      -0.2237979943272456 [Eh]
	 Opposite-Spin Energy      =      -0.7387612900959571 [Eh]
	 Correlation Energy        =      -0.9625592844232027 [Eh]
	 Total Energy              =    -279.1396525498009282 [Eh]
	 SCS Total Energy          =    -279.1382061449352818 [Eh]
    Molecular point group: c1

    Geometry (in Angstrom), charge = 0, multiplicity = 1:

       Center              X                  Y                   Z               Mass
    ------------   -----------------  -----------------  -----------------  -----------------
         F            1.409674108860    -0.380066803861     0.000013807210    18.998403162730
         C            1.238357108860     0.994875196139    -0.000046192790    12.000000000000
         H            0.175790108860     1.218428196139    -0.000067192790     1.007825032230
         H            1.707668108860     1.407614196139    -0.888969192790     1.007825032230
         H            1.707648108860     1.407690196139     0.888850807210     1.007825032230
         F           -1.409616891140     0.380073196139     0.000055807210    18.998403162730
         C           -1.238422891140    -0.994881803861    -0.000034192790    12.000000000000
         H           -1.707865891140    -1.407572803861    -0.888909192790     1.007825032230
         H           -1.707658891140    -1.407663803861     0.888907807210     1.007825032230
         H           -0.175876891140    -1.218537803861    -0.000168192790     1.007825032230

  Charge       = 0
  Multiplicity = 1
  Basis Set: AUG-CC-PVQZ
    Blend: AUG-CC-PVQZ
  Basis Set: (AUG-CC-PVQZ AUX)
    Blend: AUG-CC-PVQZ-JKFIT

    Orbital Energies [Eh]
    ---------------------

    Doubly Occupied:

       1A    -26.276337     2A    -26.276330     3A    -11.287038
       4A    -11.287027     5A     -1.595059     6A     -1.589053
       7A     -0.957208     8A     -0.942255     9A     -0.743478
      10A     -0.699891    11A     -0.691294    12A     -0.681584
      13A     -0.676348    14A     -0.651592    15A     -0.555701
      16A     -0.529439    17A     -0.523959    18A     -0.485374

  @DF-RHF Final Energy:  -278.19596956955741

   => Energetics <=

    Nuclear Repulsion Energy =            134.3111606562061411
    One-Electron Energy =                -652.1163244575590170
    Two-Electron Energy =                 239.6091942317953851
    Total Energy =                       -278.1959695695574055

  Dipole Moment: [D]
     X:    -0.0004      Y:    -0.0001      Z:    -0.0002     Total:     0.0004

  Basis Set: (AUG-CC-PVQZ AUX)
    Blend: AUG-CC-PVQZ-RI
	 Reference Energy          =    -278.1959695695574055 [Eh]
	 Singles Energy            =      -0.0000000000000000 [Eh]
	 Same-Spin Energy          =      -0.2394334027256317 [Eh]
	 Opposite-Spin Energy      =      -0.8389506164758009 [Eh]
	 Correlation Energy        =      -1.0783840192014327 [Eh]
	 Total Energy              =    -279.2743535887588564 [Eh]

	 ================> DF-SCS-MP2 Energies <==================
	-----------------------------------------------------------
	 SCS Same-Spin Scale       =       0.3333333333333333 [-]
	 SCS Opposite-Spin Scale   =       1.2000000000000000 [-]
	 SCS Same-Spin Energy      =      -0.0798111342418772 [Eh]
	 SCS Opposite-Spin Energy  =      -1.0067407397709611 [Eh]
	 SCS Correlation Energy    =      -1.0865518740128384 [Eh]
	 SCS Total Energy          =    -279.2825214435702605 [Eh]
	-----------------------------------------------------------

*** Psi4 exiting successfully. Buy a developer a beer!
