                               Psi4 1.4a2.dev224

  ==> Input File <==

--------------------------------------------------------------------------
#Generated by lconvert.py for cbs job

memory 40 GB

molecule  {
0 1
  F        1.7986600    -0.3045100     0.0001670
  C        1.6273430     1.0704320     0.0001070
  H        0.5647760     1.2939850     0.0000860
  H        2.0966540     1.4831710    -0.8888160
  H        2.0966340     1.4832470     0.8890040
--
0 1
  F       -1.5409510     0.3545630     0.0002140
  C       -1.3697570    -1.0203920     0.0001240
  H       -1.8392000    -1.4330830    -0.8887510
  H       -1.8389930    -1.4331740     0.8890660
  H       -0.3072110    -1.2440480    -0.0000100
units angstrom
no_reorient
symmetry c1
}

set {
scf_type DF
mp2_type DF
e_convergence 7
reference rhf
}

energy('mp2/aug-cc-pv[tq]z', bsse_type='cp')
--------------------------------------------------------------------------

    Molecular point group: c1
  Charge       = 0
  Multiplicity = 1
  Basis Set: AUG-CC-PVTZ
    Blend: AUG-CC-PVTZ
  Basis Set: (AUG-CC-PVTZ AUX)
    Blend: AUG-CC-PVTZ-JKFIT
  @DF-RHF Final Energy:  -139.09738036304759
    Total Energy =                       -139.0973803630475913
  Basis Set: (AUG-CC-PVTZ AUX)
    Blend: AUG-CC-PVTZ-RI
	 Reference Energy          =    -139.0973803630475913 [Eh]
	 Singles Energy            =      -0.0000000000000000 [Eh]
	 Same-Spin Energy          =      -0.1097737396122198 [Eh]
	 Opposite-Spin Energy      =      -0.3667902076061710 [Eh]
	 Correlation Energy        =      -0.4765639472183908 [Eh]
	 Total Energy              =    -139.5739443102659720 [Eh]
	 SCS Total Energy          =    -139.5741198587124074 [Eh]
    Molecular point group: c1
  Basis Set: AUG-CC-PVQZ
    Blend: AUG-CC-PVQZ
  Basis Set: (AUG-CC-PVQZ AUX)
    Blend: AUG-CC-PVQZ-JKFIT
  @DF-RHF Final Energy:  -139.10685270782386
    Total Energy =                       -139.1068527078238617
  Basis Set: (AUG-CC-PVQZ AUX)
  @DF-RHF Final Energy:  -139.09751322938411
    Total Energy =                       -139.0975132293841057
  @DF-RHF Final Energy:  -139.10690967785646
    Total Energy =                       -139.1069096778564642
  @DF-RHF Final Energy:  -139.09751316845822
    Total Energy =                       -139.0975131684582209
  @DF-RHF Final Energy:  -139.10690962450587
    Total Energy =                       -139.1069096245058745
  @DF-RHF Final Energy:  -139.09738032135317
    Total Energy =                       -139.0973803213531710
  @DF-RHF Final Energy:  -139.10685266159274
    Total Energy =                       -139.1068526615927397
  Multiplicity = 1
  @DF-RHF Final Energy:  -278.19547868101870
    Total Energy =                       -278.1954786810186988
	 Singles Energy            =      -0.0000000000000000 [Eh]
	 Same-Spin Energy          =      -0.2211600965852916 [Eh]
	 Opposite-Spin Energy      =      -0.7359048981865981 [Eh]
	 Correlation Energy        =      -0.9570649947718897 [Eh]
	 Total Energy              =    -279.1525436757905823 [Eh]
	 SCS Total Energy          =    -279.1522845910376986 [Eh]
    Molecular point group: c1

    Geometry (in Angstrom), charge = 0, multiplicity = 1:

       Center              X                  Y                   Z               Mass
    ------------   -----------------  -----------------  -----------------  -----------------
         F            1.669834108860    -0.329533303861     0.000011307210    18.998403162730
         C            1.498517108860     1.045408696139    -0.000048692790    12.000000000000
         H            0.435950108860     1.268961696139    -0.000069692790     1.007825032230
         H            1.967828108860     1.458147696139    -0.888971692790     1.007825032230
         H            1.967808108860     1.458223696139     0.888848307210     1.007825032230
         F           -1.669776891140     0.329539696139     0.000058307210    18.998403162730
         C           -1.498582891140    -1.045415303861    -0.000031692790    12.000000000000
         H           -1.968025891140    -1.458106303861    -0.888906692790     1.007825032230
         H           -1.967818891140    -1.458197303861     0.888910307210     1.007825032230
         H           -0.436036891140    -1.269071303861    -0.000165692790     1.007825032230

  Charge       = 0
  Multiplicity = 1
  Basis Set: AUG-CC-PVQZ
    Blend: AUG-CC-PVQZ
  Basis Set: (AUG-CC-PVQZ AUX)
    Blend: AUG-CC-PVQZ-JKFIT

    Orbital Energies [Eh]
    ---------------------

    Doubly Occupied:

       1A    -26.275544     2A    -26.275540     3A    -11.296665
       4A    -11.296661     5A     -1.587509     6A     -1.586165
       7A     -0.953247     8A     -0.949861     9A     -0.712383
      10A     -0.695746    11A     -0.693174    12A     -0.682307
      13A     -0.676128    14A     -0.667877    15A     -0.541250
      16A     -0.529608    17A     -0.527963    18A     -0.513871

  @DF-RHF Final Energy:  -278.21428264628344

   => Energetics <=

    Nuclear Repulsion Energy =            125.3174779115991555
    One-Electron Energy =                -634.1405186210691909
    Two-Electron Energy =                 230.6087580631866274
    Total Energy =                       -278.2142826462834364

  Dipole Moment: [D]
     X:    -0.0003      Y:    -0.0000      Z:    -0.0002     Total:     0.0003

  Basis Set: (AUG-CC-PVQZ AUX)
    Blend: AUG-CC-PVQZ-RI
	 Reference Energy          =    -278.2142826462834364 [Eh]
	 Singles Energy            =      -0.0000000000000000 [Eh]
	 Same-Spin Energy          =      -0.2367428662205065 [Eh]
	 Opposite-Spin Energy      =      -0.8363847671696741 [Eh]
	 Correlation Energy        =      -1.0731276333901807 [Eh]
	 Total Energy              =    -279.2874102796736224 [Eh]

	 ================> DF-SCS-MP2 Energies <==================
	-----------------------------------------------------------
	 SCS Same-Spin Scale       =       0.3333333333333333 [-]
	 SCS Opposite-Spin Scale   =       1.2000000000000000 [-]
	 SCS Same-Spin Energy      =      -0.0789142887401688 [Eh]
	 SCS Opposite-Spin Energy  =      -1.0036617206036089 [Eh]
	 SCS Correlation Energy    =      -1.0825760093437777 [Eh]
	 SCS Total Energy          =    -279.2968586556272044 [Eh]
	-----------------------------------------------------------

*** Psi4 exiting successfully. Buy a developer a beer!
