                               Psi4 1.4a2.dev224

  ==> Input File <==

--------------------------------------------------------------------------
#Generated by lconvert.py for cbs job

memory 20 GB

molecule  {
0 1
  F       1.798660   -0.304510    0.000170
  C       1.627340    1.070430    0.000110
  H       0.564780    1.293980    0.000090
  H       2.096650    1.483170   -0.888820
  H       2.096630    1.483250    0.889000
--
0 1
  F      -3.361240    0.000990    0.000230
  C      -3.190050   -1.373970    0.000150
  H      -3.659490   -1.786660   -0.888730
  H      -3.659280   -1.786750    0.889090
  H      -2.127500   -1.597630    0.000010
units angstrom
no_reorient
symmetry c1
}

set {
scf_type DF
mp2_type DF
e_convergence 7
reference rhf
}

energy('mp2/aug-cc-pv[tq]z', bsse_type='cp')
--------------------------------------------------------------------------

    Molecular point group: c1
  Charge       = 0
  Multiplicity = 1
  Basis Set: AUG-CC-PVTZ
    Blend: AUG-CC-PVTZ
  Basis Set: (AUG-CC-PVTZ AUX)
    Blend: AUG-CC-PVTZ-JKFIT
  @DF-RHF Final Energy:  -139.09738018968517
    Total Energy =                       -139.0973801896851683
  Basis Set: (AUG-CC-PVTZ AUX)
    Blend: AUG-CC-PVTZ-RI
	 Reference Energy          =    -139.0973801896851683 [Eh]
	 Singles Energy            =      -0.0000000000000000 [Eh]
	 Same-Spin Energy          =      -0.1097737621803135 [Eh]
	 Opposite-Spin Energy      =      -0.3667903510790854 [Eh]
	 Correlation Energy        =      -0.4765641132593988 [Eh]
	 Total Energy              =    -139.5739443029445681 [Eh]
	 SCS Total Energy          =    -139.5741198650401884 [Eh]
    Molecular point group: c1
  Basis Set: AUG-CC-PVQZ
    Blend: AUG-CC-PVQZ
  Basis Set: (AUG-CC-PVQZ AUX)
    Blend: AUG-CC-PVQZ-JKFIT
  @DF-RHF Final Energy:  -139.10685252539722
    Total Energy =                       -139.1068525253971870
  Basis Set: (AUG-CC-PVQZ AUX)
  @DF-RHF Final Energy:  -139.09739624907576
    Total Energy =                       -139.0973962490757572
  @DF-RHF Final Energy:  -139.10686303183189
    Total Energy =                       -139.1068630318318924
  @DF-RHF Final Energy:  -139.09739647113611
    Total Energy =                       -139.0973964711361077
  @DF-RHF Final Energy:  -139.10686326690853
    Total Energy =                       -139.1068632669085332
  @DF-RHF Final Energy:  -139.09738041402656
    Total Energy =                       -139.0973804140265599
  @DF-RHF Final Energy:  -139.10685276147103
    Total Energy =                       -139.1068527614710320
  Multiplicity = 1
  @DF-RHF Final Energy:  -278.19566613412923
    Total Energy =                       -278.1956661341292261
	 Singles Energy            =      -0.0000000000000000 [Eh]
	 Same-Spin Energy          =      -0.2196297075539288 [Eh]
	 Opposite-Spin Energy      =      -0.7337682752561645 [Eh]
	 Correlation Energy        =      -0.9533979828100934 [Eh]
	 Total Energy              =    -279.1490641169393143 [Eh]
	 SCS Total Energy          =    -279.1493979669546093 [Eh]
    Molecular point group: c1

    Geometry (in Angstrom), charge = 0, multiplicity = 1:

       Center              X                  Y                   Z               Mass
    ------------   -----------------  -----------------  -----------------  -----------------
         F            2.579979887794    -0.152745287944     0.000002984393    18.998403162730
         C            2.408659887794     1.222194712056    -0.000057015607    12.000000000000
         H            1.346099887794     1.445744712056    -0.000077015607     1.007825032230
         H            2.877969887794     1.634934712056    -0.888987015607     1.007825032230
         H            2.877949887794     1.635014712056     0.888832984393     1.007825032230
         F           -2.579920112206     0.152754712056     0.000062984393    18.998403162730
         C           -2.408730112206    -1.222205287944    -0.000017015607    12.000000000000
         H           -2.878170112206    -1.634895287944    -0.888897015607     1.007825032230
         H           -2.877960112206    -1.634985287944     0.888922984393     1.007825032230
         H           -1.346180112206    -1.445865287944    -0.000157015607     1.007825032230

  Charge       = 0
  Multiplicity = 1
  Basis Set: AUG-CC-PVQZ
    Blend: AUG-CC-PVQZ
  Basis Set: (AUG-CC-PVQZ AUX)
    Blend: AUG-CC-PVQZ-JKFIT

    Orbital Energies [Eh]
    ---------------------

    Doubly Occupied:

       1A    -26.274662     2A    -26.274661     3A    -11.302845
       4A    -11.302842     5A     -1.584869     6A     -1.584862
       7A     -0.954731     8A     -0.954727     9A     -0.695346
      10A     -0.694609    11A     -0.694572    12A     -0.694453
      13A     -0.673579    14A     -0.673416    15A     -0.531563
      16A     -0.531088    17A     -0.530838    18A     -0.530811

  @DF-RHF Final Energy:  -278.21459621663786

   => Energetics <=

    Nuclear Repulsion Energy =            107.6902592980752189
    One-Electron Energy =                -598.8407646305296339
    Two-Electron Energy =                 212.9359091158165711
    Total Energy =                       -278.2145962166378581

  Dipole Moment: [D]
     X:    -0.0002      Y:    -0.0000      Z:    -0.0002     Total:     0.0003

  Basis Set: (AUG-CC-PVQZ AUX)
    Blend: AUG-CC-PVQZ-RI
	 Reference Energy          =    -278.2145962166378581 [Eh]
	 Singles Energy            =      -0.0000000000000000 [Eh]
	 Same-Spin Energy          =      -0.2352257755929274 [Eh]
	 Opposite-Spin Energy      =      -0.8347738808036538 [Eh]
	 Correlation Energy        =      -1.0699996563965812 [Eh]
	 Total Energy              =    -279.2845958730344478 [Eh]

	 ================> DF-SCS-MP2 Energies <==================
	-----------------------------------------------------------
	 SCS Same-Spin Scale       =       0.3333333333333333 [-]
	 SCS Opposite-Spin Scale   =       1.2000000000000000 [-]
	 SCS Same-Spin Energy      =      -0.0784085918643091 [Eh]
	 SCS Opposite-Spin Energy  =      -1.0017286569643844 [Eh]
	 SCS Correlation Energy    =      -1.0801372488286936 [Eh]
	 SCS Total Energy          =    -279.2947334654665497 [Eh]
	-----------------------------------------------------------

*** Psi4 exiting successfully. Buy a developer a beer!
