                               Psi4 1.4a2.dev224

  ==> Input File <==

--------------------------------------------------------------------------
#Generated by lconvert.py for cbs job

memory 40 GB

molecule  {
0 1
  F        1.7986600    -0.3045100     0.0001670
  C        1.6273430     1.0704320     0.0001070
  H        0.5647760     1.2939850     0.0000860
  H        2.0966540     1.4831710    -0.8888160
  H        2.0966340     1.4832470     0.8890040
--
0 1
  F       -1.6698480     0.3295250     0.0002160
  C       -1.4986540    -1.0454300     0.0001260
  H       -1.9680970    -1.4581210    -0.8887490
  H       -1.9678900    -1.4582120     0.8890680
  H       -0.4361080    -1.2690860    -0.0000080
units angstrom
no_reorient
symmetry c1
}

set {
scf_type DF
mp2_type DF
e_convergence 7
reference rhf
}

energy('mp2/aug-cc-pv[tq]z', bsse_type='cp')
--------------------------------------------------------------------------

    Molecular point group: c1
  Charge       = 0
  Multiplicity = 1
  Basis Set: AUG-CC-PVTZ
    Blend: AUG-CC-PVTZ
  Basis Set: (AUG-CC-PVTZ AUX)
    Blend: AUG-CC-PVTZ-JKFIT
  @DF-RHF Final Energy:  -139.09738036307374
    Total Energy =                       -139.0973803630737393
  Basis Set: (AUG-CC-PVTZ AUX)
    Blend: AUG-CC-PVTZ-RI
	 Reference Energy          =    -139.0973803630737393 [Eh]
	 Singles Energy            =      -0.0000000000000000 [Eh]
	 Same-Spin Energy          =      -0.1097737396123293 [Eh]
	 Opposite-Spin Energy      =      -0.3667902076067269 [Eh]
	 Correlation Energy        =      -0.4765639472190561 [Eh]
	 Total Energy              =    -139.5739443102928021 [Eh]
	 SCS Total Energy          =    -139.5741198587392660 [Eh]
    Molecular point group: c1
  Basis Set: AUG-CC-PVQZ
    Blend: AUG-CC-PVQZ
  Basis Set: (AUG-CC-PVQZ AUX)
    Blend: AUG-CC-PVQZ-JKFIT
  @DF-RHF Final Energy:  -139.10685270784725
    Total Energy =                       -139.1068527078472528
  Basis Set: (AUG-CC-PVQZ AUX)
  @DF-RHF Final Energy:  -139.09749440351359
    Total Energy =                       -139.0974944035135934
  @DF-RHF Final Energy:  -139.10690328334141
    Total Energy =                       -139.1069032833414099
  @DF-RHF Final Energy:  -139.09749434286874
    Total Energy =                       -139.0974943428687425
  @DF-RHF Final Energy:  -139.10690323013009
    Total Energy =                       -139.1069032301300865
  @DF-RHF Final Energy:  -139.09738032143980
    Total Energy =                       -139.0973803214398004
  @DF-RHF Final Energy:  -139.10685266150605
    Total Energy =                       -139.1068526615060534
  Multiplicity = 1
  @DF-RHF Final Energy:  -278.19635594081473
    Total Energy =                       -278.1963559408147262
	 Singles Energy            =      -0.0000000000000000 [Eh]
	 Same-Spin Energy          =      -0.2208238852383075 [Eh]
	 Opposite-Spin Energy      =      -0.7354967301553984 [Eh]
	 Correlation Energy        =      -0.9563206153937059 [Eh]
	 Total Energy              =    -279.1526765562084051 [Eh]
	 SCS Total Energy          =    -279.1525599787473197 [Eh]
    Molecular point group: c1

    Geometry (in Angstrom), charge = 0, multiplicity = 1:

       Center              X                  Y                   Z               Mass
    ------------   -----------------  -----------------  -----------------  -----------------
         F            1.734282608860    -0.317014303861     0.000010307210    18.998403162730
         C            1.562965608860     1.057927696139    -0.000049692790    12.000000000000
         H            0.500398608860     1.281480696139    -0.000070692790     1.007825032230
         H            2.032276608860     1.470666696139    -0.888972692790     1.007825032230
         H            2.032256608860     1.470742696139     0.888847307210     1.007825032230
         F           -1.734225391140     0.317020696139     0.000059307210    18.998403162730
         C           -1.563031391140    -1.057934303861    -0.000030692790    12.000000000000
         H           -2.032474391140    -1.470625303861    -0.888905692790     1.007825032230
         H           -2.032267391140    -1.470716303861     0.888911307210     1.007825032230
         H           -0.500485391140    -1.281590303861    -0.000164692790     1.007825032230

  Charge       = 0
  Multiplicity = 1
  Basis Set: AUG-CC-PVQZ
    Blend: AUG-CC-PVQZ
  Basis Set: (AUG-CC-PVQZ AUX)
    Blend: AUG-CC-PVQZ-JKFIT

    Orbital Energies [Eh]
    ---------------------

    Doubly Occupied:

       1A    -26.275433     2A    -26.275429     3A    -11.297864
       4A    -11.297861     5A     -1.586837     6A     -1.585914
       7A     -0.953165     8A     -0.950856     9A     -0.708388
      10A     -0.695385    11A     -0.693478    12A     -0.684239
      13A     -0.675553    14A     -0.669645    15A     -0.538823
      16A     -0.529733    17A     -0.528510    18A     -0.517659

  @DF-RHF Final Energy:  -278.21517196308753

   => Energetics <=

    Nuclear Repulsion Energy =            123.4867948137927982
    One-Electron Energy =                -630.4743871759179683
    Two-Electron Energy =                 228.7724203990375997
    Total Energy =                       -278.2151719630875277

  Dipole Moment: [D]
     X:    -0.0002      Y:    -0.0000      Z:    -0.0002     Total:     0.0003

  Basis Set: (AUG-CC-PVQZ AUX)
    Blend: AUG-CC-PVQZ-RI
	 Reference Energy          =    -278.2151719630875277 [Eh]
	 Singles Energy            =      -0.0000000000000000 [Eh]
	 Same-Spin Energy          =      -0.2364057516374470 [Eh]
	 Opposite-Spin Energy      =      -0.8360410371911227 [Eh]
	 Correlation Energy        =      -1.0724467888285696 [Eh]
	 Total Energy              =    -279.2876187519161135 [Eh]

	 ================> DF-SCS-MP2 Energies <==================
	-----------------------------------------------------------
	 SCS Same-Spin Scale       =       0.3333333333333333 [-]
	 SCS Opposite-Spin Scale   =       1.2000000000000000 [-]
	 SCS Same-Spin Energy      =      -0.0788019172124823 [Eh]
	 SCS Opposite-Spin Energy  =      -1.0032492446293471 [Eh]
	 SCS Correlation Energy    =      -1.0820511618418294 [Eh]
	 SCS Total Energy          =    -279.2972231249293600 [Eh]
	-----------------------------------------------------------

*** Psi4 exiting successfully. Buy a developer a beer!
