                               Psi4 1.4a2.dev224

  ==> Input File <==

--------------------------------------------------------------------------
#Generated by lconvert.py for cbs job

memory 40 GB

molecule  {
0 1
  F        1.7986600    -0.3045100     0.0001670
  C        1.6273430     1.0704320     0.0001070
  H        0.5647760     1.2939850     0.0000860
  H        2.0966540     1.4831710    -0.8888160
  H        2.0966340     1.4832470     0.8890040
--
0 1
  F       -2.0547750     0.2547560     0.0002200
  C       -1.8835810    -1.1201990     0.0001300
  H       -2.3530240    -1.5328900    -0.8887450
  H       -2.3528170    -1.5329810     0.8890720
  H       -0.8210350    -1.3438550    -0.0000040
units angstrom
no_reorient
symmetry c1
}

set {
scf_type DF
mp2_type DF
e_convergence 7
reference rhf
}

energy('mp2/aug-cc-pv[tq]z', bsse_type='cp')
--------------------------------------------------------------------------

    Molecular point group: c1
  Charge       = 0
  Multiplicity = 1
  Basis Set: AUG-CC-PVTZ
    Blend: AUG-CC-PVTZ
  Basis Set: (AUG-CC-PVTZ AUX)
    Blend: AUG-CC-PVTZ-JKFIT
  @DF-RHF Final Energy:  -139.09738036305296
    Total Energy =                       -139.0973803630529630
  Basis Set: (AUG-CC-PVTZ AUX)
    Blend: AUG-CC-PVTZ-RI
	 Reference Energy          =    -139.0973803630529630 [Eh]
	 Singles Energy            =      -0.0000000000000000 [Eh]
	 Same-Spin Energy          =      -0.1097737396123984 [Eh]
	 Opposite-Spin Energy      =      -0.3667902076070553 [Eh]
	 Correlation Energy        =      -0.4765639472194537 [Eh]
	 Total Energy              =    -139.5739443102724238 [Eh]
	 SCS Total Energy          =    -139.5741198587188876 [Eh]
    Molecular point group: c1
  Basis Set: AUG-CC-PVQZ
    Blend: AUG-CC-PVQZ
  Basis Set: (AUG-CC-PVQZ AUX)
    Blend: AUG-CC-PVQZ-JKFIT
  @DF-RHF Final Energy:  -139.10685270779780
    Total Energy =                       -139.1068527077977990
  Basis Set: (AUG-CC-PVQZ AUX)
  @DF-RHF Final Energy:  -139.09744667795329
    Total Energy =                       -139.0974466779532861
  @DF-RHF Final Energy:  -139.10688836605803
    Total Energy =                       -139.1068883660580013
  @DF-RHF Final Energy:  -139.09744662530917
    Total Energy =                       -139.0974466253091748
  @DF-RHF Final Energy:  -139.10688831661093
    Total Energy =                       -139.1068883166109345
  @DF-RHF Final Energy:  -139.09738032141860
    Total Energy =                       -139.0973803214185978
  @DF-RHF Final Energy:  -139.10685266157762
    Total Energy =                       -139.1068526615776193
  Multiplicity = 1
  @DF-RHF Final Energy:  -278.19687446869631
    Total Energy =                       -278.1968744686963078
	 Singles Energy            =      -0.0000000000000000 [Eh]
	 Same-Spin Energy          =      -0.2201928886749649 [Eh]
	 Opposite-Spin Energy      =      -0.7346471825636534 [Eh]
	 Correlation Energy        =      -0.9548400712386182 [Eh]
	 Total Energy              =    -279.1517145399349147 [Eh]
	 SCS Total Energy          =    -279.1518487173310064 [Eh]
    Molecular point group: c1

    Geometry (in Angstrom), charge = 0, multiplicity = 1:

       Center              X                  Y                   Z               Mass
    ------------   -----------------  -----------------  -----------------  -----------------
         F            1.926746108860    -0.279629803861     0.000008307210    18.998403162730
         C            1.755429108860     1.095312196139    -0.000051692790    12.000000000000
         H            0.692862108860     1.318865196139    -0.000072692790     1.007825032230
         H            2.224740108860     1.508051196139    -0.888974692790     1.007825032230
         H            2.224720108860     1.508127196139     0.888845307210     1.007825032230
         F           -1.926688891140     0.279636196139     0.000061307210    18.998403162730
         C           -1.755494891140    -1.095318803861    -0.000028692790    12.000000000000
         H           -2.224937891140    -1.508009803861    -0.888903692790     1.007825032230
         H           -2.224730891140    -1.508100803861     0.888913307210     1.007825032230
         H           -0.692948891140    -1.318974803861    -0.000162692790     1.007825032230

  Charge       = 0
  Multiplicity = 1
  Basis Set: AUG-CC-PVQZ
    Blend: AUG-CC-PVQZ
  Basis Set: (AUG-CC-PVQZ AUX)
    Blend: AUG-CC-PVQZ-JKFIT

    Orbital Energies [Eh]
    ---------------------

    Doubly Occupied:

       1A    -26.275138     2A    -26.275135     3A    -11.300159
       4A    -11.300157     5A     -1.585740     6A     -1.585443
       7A     -0.953431     8A     -0.952733     9A     -0.701053
      10A     -0.694830    11A     -0.694050    12A     -0.689108
      13A     -0.674488    14A     -0.672092    15A     -0.534322
      16A     -0.530081    17A     -0.529576    18A     -0.524813

  @DF-RHF Final Energy:  -278.21574346686998

   => Energetics <=

    Nuclear Repulsion Energy =            118.7184186253262794
    One-Electron Energy =                -620.9236297492082031
    Two-Electron Energy =                 223.9894676570119429
    Total Energy =                       -278.2157434668699807

  Dipole Moment: [D]
     X:    -0.0002      Y:    -0.0000      Z:    -0.0002     Total:     0.0003

  Basis Set: (AUG-CC-PVQZ AUX)
    Blend: AUG-CC-PVQZ-RI
	 Reference Energy          =    -278.2157434668699807 [Eh]
	 Singles Energy            =      -0.0000000000000000 [Eh]
	 Same-Spin Energy          =      -0.2357803495414498 [Eh]
	 Opposite-Spin Energy      =      -0.8353762959855690 [Eh]
	 Correlation Energy        =      -1.0711566455270187 [Eh]
	 Total Energy              =    -279.2869001123970065 [Eh]

	 ================> DF-SCS-MP2 Energies <==================
	-----------------------------------------------------------
	 SCS Same-Spin Scale       =       0.3333333333333333 [-]
	 SCS Opposite-Spin Scale   =       1.2000000000000000 [-]
	 SCS Same-Spin Energy      =      -0.0785934498471499 [Eh]
	 SCS Opposite-Spin Energy  =      -1.0024515551826827 [Eh]
	 SCS Correlation Energy    =      -1.0810450050298326 [Eh]
	 SCS Total Energy          =    -279.2967884718997880 [Eh]
	-----------------------------------------------------------

*** Psi4 exiting successfully. Buy a developer a beer!
