                               Psi4 1.4a2.dev224

  ==> Input File <==

--------------------------------------------------------------------------
#Generated by lconvert.py for cbs job

memory 40 GB

molecule  {
0 1
  F        1.7986600    -0.3045100     0.0001670
  C        1.6273430     1.0704320     0.0001070
  H        0.5647760     1.2939850     0.0000860
  H        2.0966540     1.4831710    -0.8888160
  H        2.0966340     1.4832470     0.8890040
--
0 1
  F       -1.2819240     0.4048760     0.0002120
  C       -1.1107300    -0.9700790     0.0001220
  H       -1.5801730    -1.3827700    -0.8887530
  H       -1.5799660    -1.3828610     0.8890640
  H       -0.0481840    -1.1937350    -0.0000120
units angstrom
no_reorient
symmetry c1
}

set {
scf_type DF
mp2_type DF
e_convergence 7
reference rhf
}

energy('mp2/aug-cc-pv[tq]z', bsse_type='cp')
--------------------------------------------------------------------------

    Molecular point group: c1
  Charge       = 0
  Multiplicity = 1
  Basis Set: AUG-CC-PVTZ
    Blend: AUG-CC-PVTZ
  Basis Set: (AUG-CC-PVTZ AUX)
    Blend: AUG-CC-PVTZ-JKFIT
  @DF-RHF Final Energy:  -139.09738036306399
    Total Energy =                       -139.0973803630639907
  Basis Set: (AUG-CC-PVTZ AUX)
    Blend: AUG-CC-PVTZ-RI
	 Reference Energy          =    -139.0973803630639907 [Eh]
	 Singles Energy            =      -0.0000000000000000 [Eh]
	 Same-Spin Energy          =      -0.1097737396123035 [Eh]
	 Opposite-Spin Energy      =      -0.3667902076065093 [Eh]
	 Correlation Energy        =      -0.4765639472188128 [Eh]
	 Total Energy              =    -139.5739443102827977 [Eh]
	 SCS Total Energy          =    -139.5741198587292331 [Eh]
    Molecular point group: c1
  Basis Set: AUG-CC-PVQZ
    Blend: AUG-CC-PVQZ
  Basis Set: (AUG-CC-PVQZ AUX)
    Blend: AUG-CC-PVQZ-JKFIT
  @DF-RHF Final Energy:  -139.10685270781528
    Total Energy =                       -139.1068527078152783
  Basis Set: (AUG-CC-PVQZ AUX)
  @DF-RHF Final Energy:  -139.09754717216910
    Total Energy =                       -139.0975471721691008
  @DF-RHF Final Energy:  -139.10692178389522
    Total Energy =                       -139.1069217838952454
  @DF-RHF Final Energy:  -139.09754712047055
    Total Energy =                       -139.0975471204705514
  @DF-RHF Final Energy:  -139.10692173072212
    Total Energy =                       -139.1069217307220924
  @DF-RHF Final Energy:  -139.09738032142025
    Total Energy =                       -139.0973803214202462
  @DF-RHF Final Energy:  -139.10685266163975
    Total Energy =                       -139.1068526616397492
  Multiplicity = 1
  @DF-RHF Final Energy:  -278.19080987276692
    Total Energy =                       -278.1908098727668630
	 Singles Energy            =      -0.0000000000000000 [Eh]
	 Same-Spin Energy          =      -0.2221465251367143 [Eh]
	 Opposite-Spin Energy      =      -0.7370196301028114 [Eh]
	 Correlation Energy        =      -0.9591661552395256 [Eh]
	 Total Energy              =    -279.1499760280064493 [Eh]
	 SCS Total Energy          =    -279.1492822706025549 [Eh]
    Molecular point group: c1

    Geometry (in Angstrom), charge = 0, multiplicity = 1:

       Center              X                  Y                   Z               Mass
    ------------   -----------------  -----------------  -----------------  -----------------
         F            1.540320608860    -0.354689803861     0.000012307210    18.998403162730
         C            1.369003608860     1.020252196139    -0.000047692790    12.000000000000
         H            0.306436608860     1.243805196139    -0.000068692790     1.007825032230
         H            1.838314608860     1.432991196139    -0.888970692790     1.007825032230
         H            1.838294608860     1.433067196139     0.888849307210     1.007825032230
         F           -1.540263391140     0.354696196139     0.000057307210    18.998403162730
         C           -1.369069391140    -1.020258803861    -0.000032692790    12.000000000000
         H           -1.838512391140    -1.432949803861    -0.888907692790     1.007825032230
         H           -1.838305391140    -1.433040803861     0.888909307210     1.007825032230
         H           -0.306523391140    -1.243914803861    -0.000166692790     1.007825032230

  Charge       = 0
  Multiplicity = 1
  Basis Set: AUG-CC-PVQZ
    Blend: AUG-CC-PVQZ
  Basis Set: (AUG-CC-PVQZ AUX)
    Blend: AUG-CC-PVQZ-JKFIT

    Orbital Energies [Eh]
    ---------------------

    Doubly Occupied:

       1A    -26.275813     2A    -26.275807     3A    -11.293115
       4A    -11.293109     5A     -1.589867     6A     -1.587021
       7A     -0.954121     8A     -0.946957     9A     -0.724145
      10A     -0.697036    11A     -0.692340    12A     -0.678816
      13A     -0.677947    14A     -0.661504    15A     -0.547870
      16A     -0.529397    17A     -0.526405    18A     -0.502948

  @DF-RHF Final Energy:  -278.20962464495273

   => Energetics <=

    Nuclear Repulsion Energy =            129.4350914581686709
    One-Electron Energy =                -642.3809940221118495
    Two-Electron Energy =                 234.7362779189904245
    Total Energy =                       -278.2096246449527257

  Dipole Moment: [D]
     X:    -0.0003      Y:    -0.0001      Z:    -0.0002     Total:     0.0004

  Basis Set: (AUG-CC-PVQZ AUX)
    Blend: AUG-CC-PVQZ-RI
	 Reference Energy          =    -278.2096246449527257 [Eh]
	 Singles Energy            =      -0.0000000000000000 [Eh]
	 Same-Spin Energy          =      -0.2377411802134395 [Eh]
	 Opposite-Spin Energy      =      -0.8373588988745005 [Eh]
	 Correlation Energy        =      -1.0751000790879399 [Eh]
	 Total Energy              =    -279.2847247240406432 [Eh]

	 ================> DF-SCS-MP2 Energies <==================
	-----------------------------------------------------------
	 SCS Same-Spin Scale       =       0.3333333333333333 [-]
	 SCS Opposite-Spin Scale   =       1.2000000000000000 [-]
	 SCS Same-Spin Energy      =      -0.0792470600711465 [Eh]
	 SCS Opposite-Spin Energy  =      -1.0048306786494006 [Eh]
	 SCS Correlation Energy    =      -1.0840777387205471 [Eh]
	 SCS Total Energy          =    -279.2937023836732919 [Eh]
	-----------------------------------------------------------

*** Psi4 exiting successfully. Buy a developer a beer!
