                               Psi4 1.4a2.dev224

  ==> Input File <==

--------------------------------------------------------------------------
#Generated by lconvert.py for cbs job

memory 20 GB

molecule  {
0 1
  F      -0.914320    0.000010    0.000000
  C      -2.297350    0.000020    0.000000
  H      -2.651740    1.027060   -0.000000
  H      -2.651750   -0.513490    0.889440
  H      -2.651750   -0.513490   -0.889440
--
0 1
  F       6.506440    0.000020    0.000000
  C       5.123070    0.000020    0.000000
  H       4.765240    1.025420    0.000000
  H       4.765240   -0.512680    0.888020
  H       4.765240   -0.512680   -0.888020
units angstrom
no_reorient
symmetry c1
}

set {
scf_type DF
mp2_type DF
e_convergence 7
reference rhf
}

energy('mp2/aug-cc-pv[tq]z', bsse_type='cp')
--------------------------------------------------------------------------

    Molecular point group: c1
  Charge       = 0
  Multiplicity = 1
  Basis Set: AUG-CC-PVTZ
    Blend: AUG-CC-PVTZ
  Basis Set: (AUG-CC-PVTZ AUX)
    Blend: AUG-CC-PVTZ-JKFIT
  @DF-RHF Final Energy:  -139.09739983852714
    Total Energy =                       -139.0973998385271386
  Basis Set: (AUG-CC-PVTZ AUX)
    Blend: AUG-CC-PVTZ-RI
	 Reference Energy          =    -139.0973998385271386 [Eh]
	 Singles Energy            =      -0.0000000000000000 [Eh]
	 Same-Spin Energy          =      -0.1097783076888157 [Eh]
	 Opposite-Spin Energy      =      -0.3667401620617949 [Eh]
	 Correlation Energy        =      -0.4765184697506106 [Eh]
	 Total Energy              =    -139.5739183082777402 [Eh]
	 SCS Total Energy          =    -139.5740808022308954 [Eh]
    Molecular point group: c1
  Basis Set: AUG-CC-PVQZ
    Blend: AUG-CC-PVQZ
  Basis Set: (AUG-CC-PVQZ AUX)
    Blend: AUG-CC-PVQZ-JKFIT
  @DF-RHF Final Energy:  -139.10687882370456
    Total Energy =                       -139.1068788237045624
  Basis Set: (AUG-CC-PVQZ AUX)
  @DF-RHF Final Energy:  -139.09740101545700
    Total Energy =                       -139.0974010154569953
  @DF-RHF Final Energy:  -139.10687951115176
    Total Energy =                       -139.1068795111517602
  @DF-RHF Final Energy:  -139.09744750580202
    Total Energy =                       -139.0974475058019948
  @DF-RHF Final Energy:  -139.10692647482503
    Total Energy =                       -139.1069264748250589
  @DF-RHF Final Energy:  -139.09744632719384
    Total Energy =                       -139.0974463271938362
  @DF-RHF Final Energy:  -139.10692368355475
    Total Energy =                       -139.1069236835547542
  Multiplicity = 1
  @DF-RHF Final Energy:  -278.19531361838341
    Total Energy =                       -278.1953136183834090
	 Singles Energy            =      -0.0000000000000000 [Eh]
	 Same-Spin Energy          =      -0.2195411203878860 [Eh]
	 Opposite-Spin Energy      =      -0.7335335885029937 [Eh]
	 Correlation Energy        =      -0.9530747088908798 [Eh]
	 Total Energy              =    -279.1483883272742901 [Eh]
	 SCS Total Energy          =    -279.1487342980496464 [Eh]
    Molecular point group: c1

    Geometry (in Angstrom), charge = 0, multiplicity = 1:

       Center              X                  Y                   Z               Mass
    ------------   -----------------  -----------------  -----------------  -----------------
         F           -3.067935441766    -0.000007504142     0.000000000000    18.998403162730
         C           -4.450965441766     0.000002495858     0.000000000000    12.000000000000
         H           -4.805355441766     1.027042495858     0.000000000000     1.007825032230
         H           -4.805365441766    -0.513507504142     0.889440000000     1.007825032230
         H           -4.805365441766    -0.513507504142    -0.889440000000     1.007825032230
         F            4.352824558234     0.000002495858     0.000000000000    18.998403162730
         C            2.969454558234     0.000002495858     0.000000000000    12.000000000000
         H            2.611624558234     1.025402495858     0.000000000000     1.007825032230
         H            2.611624558234    -0.512697504142     0.888020000000     1.007825032230
         H            2.611624558234    -0.512697504142    -0.888020000000     1.007825032230

  Charge       = 0
  Multiplicity = 1
  Basis Set: AUG-CC-PVQZ
    Blend: AUG-CC-PVQZ
  Basis Set: (AUG-CC-PVQZ AUX)
    Blend: AUG-CC-PVQZ-JKFIT

    Orbital Energies [Eh]
    ---------------------

    Doubly Occupied:

       1A    -26.279413     2A    -26.271168     3A    -11.307663
       4A    -11.299015     5A     -1.590332     6A     -1.581824
       7A     -0.959575     8A     -0.951255     9A     -0.699822
      10A     -0.699821    11A     -0.691182    12A     -0.691182
      13A     -0.679136    14A     -0.670976    15A     -0.535422
      16A     -0.535420    17A     -0.526949    18A     -0.526949

  @DF-RHF Final Energy:  -278.21426877302287

   => Energetics <=

    Nuclear Repulsion Energy =             98.3199739853101420
    One-Electron Energy =                -580.0742739614028096
    Two-Electron Energy =                 203.5400312030697876
    Total Energy =                       -278.2142687730229227

  Dipole Moment: [D]
     X:    -4.1476      Y:     0.0000      Z:     0.0000     Total:     4.1476

  Basis Set: (AUG-CC-PVQZ AUX)
    Blend: AUG-CC-PVQZ-RI
	 Reference Energy          =    -278.2142687730228658 [Eh]
	 Singles Energy            =      -0.0000000000000000 [Eh]
	 Same-Spin Energy          =      -0.2351469418413221 [Eh]
	 Opposite-Spin Energy      =      -0.8345912792498444 [Eh]
	 Correlation Energy        =      -1.0697382210911666 [Eh]
	 Total Energy              =    -279.2840069941140086 [Eh]

	 ================> DF-SCS-MP2 Energies <==================
	-----------------------------------------------------------
	 SCS Same-Spin Scale       =       0.3333333333333333 [-]
	 SCS Opposite-Spin Scale   =       1.2000000000000000 [-]
	 SCS Same-Spin Energy      =      -0.0783823139471074 [Eh]
	 SCS Opposite-Spin Energy  =      -1.0015095350998133 [Eh]
	 SCS Correlation Energy    =      -1.0798918490469207 [Eh]
	 SCS Total Energy          =    -279.2941606220697963 [Eh]
	-----------------------------------------------------------

*** Psi4 exiting successfully. Buy a developer a beer!
