                               Psi4 1.4a2.dev224

  ==> Input File <==

--------------------------------------------------------------------------
#Generated by lconvert.py for cbs job

memory 40 GB

molecule  {
0 1
  F       -0.9143240     0.0000120     0.0000000
  C       -2.2973460     0.0000230     0.0000000
  H       -2.6517400     1.0270620    -0.0000010
  H       -2.6517520    -0.5134920     0.8894400
  H       -2.6517530    -0.5134930    -0.8894390
--
0 1
  F        3.5548150     0.0000190     0.0000010
  C        2.1714490     0.0000180     0.0000000
  H        1.8136160     1.0254190     0.0000000
  H        1.8136170    -0.5126840     0.8880230
  H        1.8136180    -0.5126830    -0.8880250
units angstrom
no_reorient
symmetry c1
}

set {
scf_type DF
mp2_type DF
e_convergence 7
reference rhf
}

energy('mp2/aug-cc-pv[tq]z', bsse_type='cp')
--------------------------------------------------------------------------

    Molecular point group: c1
  Charge       = 0
  Multiplicity = 1
  Basis Set: AUG-CC-PVTZ
    Blend: AUG-CC-PVTZ
  Basis Set: (AUG-CC-PVTZ AUX)
    Blend: AUG-CC-PVTZ-JKFIT
  @DF-RHF Final Energy:  -139.09739988079377
    Total Energy =                       -139.0973998807937733
  Basis Set: (AUG-CC-PVTZ AUX)
    Blend: AUG-CC-PVTZ-RI
	 Reference Energy          =    -139.0973998807937733 [Eh]
	 Singles Energy            =      -0.0000000000000000 [Eh]
	 Same-Spin Energy          =      -0.1097782914844138 [Eh]
	 Opposite-Spin Energy      =      -0.3667401189769696 [Eh]
	 Correlation Energy        =      -0.4765184104613834 [Eh]
	 Total Energy              =    -139.5739182912551541 [Eh]
	 SCS Total Energy          =    -139.5740807873942799 [Eh]
    Molecular point group: c1
  Basis Set: AUG-CC-PVQZ
    Blend: AUG-CC-PVQZ
  Basis Set: (AUG-CC-PVQZ AUX)
    Blend: AUG-CC-PVQZ-JKFIT
  @DF-RHF Final Energy:  -139.10687886606422
    Total Energy =                       -139.1068788660642213
  Basis Set: (AUG-CC-PVQZ AUX)
  @DF-RHF Final Energy:  -139.09742901568160
    Total Energy =                       -139.0974290156815982
  @DF-RHF Final Energy:  -139.10689691928704
    Total Energy =                       -139.1068969192870384
  @DF-RHF Final Energy:  -139.09751048127814
    Total Energy =                       -139.0975104812781353
  @DF-RHF Final Energy:  -139.10694886649361
    Total Energy =                       -139.1069488664936102
  @DF-RHF Final Energy:  -139.09744646681773
    Total Energy =                       -139.0974464668177291
  @DF-RHF Final Energy:  -139.10692383265871
    Total Energy =                       -139.1069238326587083
  Multiplicity = 1
  @DF-RHF Final Energy:  -278.19642040040361
    Total Energy =                       -278.1964204004036105
	 Singles Energy            =      -0.0000000000000000 [Eh]
	 Same-Spin Energy          =      -0.2201033318383007 [Eh]
	 Opposite-Spin Energy      =      -0.7344184228818982 [Eh]
	 Correlation Energy        =      -0.9545217547201988 [Eh]
	 Total Energy              =    -279.1509421551238006 [Eh]
	 SCS Total Energy          =    -279.1510902851413221 [Eh]
    Molecular point group: c1

    Geometry (in Angstrom), charge = 0, multiplicity = 1:

       Center              X                  Y                   Z               Mass
    ------------   -----------------  -----------------  -----------------  -----------------
         F           -1.592127250600    -0.000005796782    -0.000000249586    18.998403162730
         C           -2.975149250600     0.000005203218    -0.000000249586    12.000000000000
         H           -3.329543250600     1.027044203218    -0.000001249586     1.007825032230
         H           -3.329555250600    -0.513509796782     0.889439750414     1.007825032230
         H           -3.329556250600    -0.513510796782    -0.889439249586     1.007825032230
         F            2.877011749400     0.000001203218     0.000000750414    18.998403162730
         C            1.493645749400     0.000000203218    -0.000000249586    12.000000000000
         H            1.135812749400     1.025401203218    -0.000000249586     1.007825032230
         H            1.135813749400    -0.512701796782     0.888022750414     1.007825032230
         H            1.135814749400    -0.512700796782    -0.888025249586     1.007825032230

  Charge       = 0
  Multiplicity = 1
  Basis Set: AUG-CC-PVQZ
    Blend: AUG-CC-PVQZ
  Basis Set: (AUG-CC-PVQZ AUX)
    Blend: AUG-CC-PVQZ-JKFIT

    Orbital Energies [Eh]
    ---------------------

    Doubly Occupied:

       1A    -26.287635     2A    -26.261893     3A    -11.313323
       4A    -11.287508     5A     -1.599100     6A     -1.573066
       7A     -0.966377     8A     -0.939660     9A     -0.707598
      10A     -0.707598    11A     -0.689308    12A     -0.681684
      13A     -0.681684    14A     -0.659431    15A     -0.542247
      16A     -0.542246    17A     -0.516060    18A     -0.516060

  @DF-RHF Final Energy:  -278.21531614960350

   => Energetics <=

    Nuclear Repulsion Energy =            115.1590719805389398
    One-Electron Energy =                -613.8038137816049584
    Two-Electron Energy =                 220.4294256514625374
    Total Energy =                       -278.2153161496034954

  Dipole Moment: [D]
     X:    -4.3538      Y:     0.0000      Z:    -0.0000     Total:     4.3538

  Basis Set: (AUG-CC-PVQZ AUX)
    Blend: AUG-CC-PVQZ-RI
	 Reference Energy          =    -278.2153161496034954 [Eh]
	 Singles Energy            =      -0.0000000000000000 [Eh]
	 Same-Spin Energy          =      -0.2357152943273667 [Eh]
	 Opposite-Spin Energy      =      -0.8352325972798160 [Eh]
	 Correlation Energy        =      -1.0709478916071826 [Eh]
	 Total Energy              =    -279.2862640412106998 [Eh]

	 ================> DF-SCS-MP2 Energies <==================
	-----------------------------------------------------------
	 SCS Same-Spin Scale       =       0.3333333333333333 [-]
	 SCS Opposite-Spin Scale   =       1.2000000000000000 [-]
	 SCS Same-Spin Energy      =      -0.0785717647757889 [Eh]
	 SCS Opposite-Spin Energy  =      -1.0022791167357792 [Eh]
	 SCS Correlation Energy    =      -1.0808508815115681 [Eh]
	 SCS Total Energy          =    -279.2961670311150897 [Eh]
	-----------------------------------------------------------

*** Psi4 exiting successfully. Buy a developer a beer!
