                               Psi4 1.4a2.dev224

  ==> Input File <==

--------------------------------------------------------------------------
#Generated by lconvert.py for cbs job

memory 40 GB

molecule  {
0 1
  F       -0.9143240     0.0000120     0.0000000
  C       -2.2973460     0.0000230     0.0000000
  H       -2.6517400     1.0270620    -0.0000010
  H       -2.6517520    -0.5134920     0.8894400
  H       -2.6517530    -0.5134930    -0.8894390
--
0 1
  F        3.8641280     0.0000190     0.0000010
  C        2.4807620     0.0000180     0.0000000
  H        2.1229290     1.0254190     0.0000000
  H        2.1229300    -0.5126840     0.8880230
  H        2.1229310    -0.5126830    -0.8880250
units angstrom
no_reorient
symmetry c1
}

set {
scf_type DF
mp2_type DF
e_convergence 7
reference rhf
}

energy('mp2/aug-cc-pv[tq]z', bsse_type='cp')
--------------------------------------------------------------------------

    Molecular point group: c1
  Charge       = 0
  Multiplicity = 1
  Basis Set: AUG-CC-PVTZ
    Blend: AUG-CC-PVTZ
  Basis Set: (AUG-CC-PVTZ AUX)
    Blend: AUG-CC-PVTZ-JKFIT
  @DF-RHF Final Energy:  -139.09739988084198
    Total Energy =                       -139.0973998808419765
  Basis Set: (AUG-CC-PVTZ AUX)
    Blend: AUG-CC-PVTZ-RI
	 Reference Energy          =    -139.0973998808419765 [Eh]
	 Singles Energy            =      -0.0000000000000000 [Eh]
	 Same-Spin Energy          =      -0.1097782914843714 [Eh]
	 Opposite-Spin Energy      =      -0.3667401189770910 [Eh]
	 Correlation Energy        =      -0.4765184104614624 [Eh]
	 Total Energy              =    -139.5739182913034426 [Eh]
	 SCS Total Energy          =    -139.5740807874425968 [Eh]
    Molecular point group: c1
  Basis Set: AUG-CC-PVQZ
    Blend: AUG-CC-PVQZ
  Basis Set: (AUG-CC-PVQZ AUX)
    Blend: AUG-CC-PVQZ-JKFIT
  @DF-RHF Final Energy:  -139.10687886602489
    Total Energy =                       -139.1068788660248856
  Basis Set: (AUG-CC-PVQZ AUX)
  @DF-RHF Final Energy:  -139.09742188973257
    Total Energy =                       -139.0974218897325727
  @DF-RHF Final Energy:  -139.10689117498799
    Total Energy =                       -139.1068911749879931
  @DF-RHF Final Energy:  -139.09748608257158
    Total Energy =                       -139.0974860825715780
  @DF-RHF Final Energy:  -139.10694166987119
    Total Energy =                       -139.1069416698711905
  @DF-RHF Final Energy:  -139.09744646686050
    Total Energy =                       -139.0974464668605037
  @DF-RHF Final Energy:  -139.10692383277254
    Total Energy =                       -139.1069238327725373
  Multiplicity = 1
  @DF-RHF Final Energy:  -278.19647801559904
    Total Energy =                       -278.1964780155990411
	 Singles Energy            =      -0.0000000000000000 [Eh]
	 Same-Spin Energy          =      -0.2198564121043354 [Eh]
	 Opposite-Spin Energy      =      -0.7340707002528619 [Eh]
	 Correlation Energy        =      -0.9539271123571973 [Eh]
	 Total Energy              =    -279.1504051279562191 [Eh]
	 SCS Total Energy          =    -279.1506483266039140 [Eh]
    Molecular point group: c1

    Geometry (in Angstrom), charge = 0, multiplicity = 1:

       Center              X                  Y                   Z               Mass
    ------------   -----------------  -----------------  -----------------  -----------------
         F           -1.746783750600    -0.000005796782    -0.000000249586    18.998403162730
         C           -3.129805750600     0.000005203218    -0.000000249586    12.000000000000
         H           -3.484199750600     1.027044203218    -0.000001249586     1.007825032230
         H           -3.484211750600    -0.513509796782     0.889439750414     1.007825032230
         H           -3.484212750600    -0.513510796782    -0.889439249586     1.007825032230
         F            3.031668249400     0.000001203218     0.000000750414    18.998403162730
         C            1.648302249400     0.000000203218    -0.000000249586    12.000000000000
         H            1.290469249400     1.025401203218    -0.000000249586     1.007825032230
         H            1.290470249400    -0.512701796782     0.888022750414     1.007825032230
         H            1.290471249400    -0.512700796782    -0.888025249586     1.007825032230

  Charge       = 0
  Multiplicity = 1
  Basis Set: AUG-CC-PVQZ
    Blend: AUG-CC-PVQZ
  Basis Set: (AUG-CC-PVQZ AUX)
    Blend: AUG-CC-PVQZ-JKFIT

    Orbital Energies [Eh]
    ---------------------

    Doubly Occupied:

       1A    -26.286003     2A    -26.263978     3A    -11.312198
       4A    -11.290024     5A     -1.597178     6A     -1.574990
       7A     -0.964738     8A     -0.942263     9A     -0.705903
      10A     -0.705903    11A     -0.686414    12A     -0.683767
      13A     -0.683767    14A     -0.662666    15A     -0.540744
      16A     -0.540744    17A     -0.518500    18A     -0.518500

  @DF-RHF Final Energy:  -278.21539236434643

   => Energetics <=

    Nuclear Repulsion Energy =            112.3014540911341612
    One-Electron Energy =                -608.0771304296561084
    Two-Electron Energy =                 217.5602839741755474
    Total Energy =                       -278.2153923643464282

  Dipole Moment: [D]
     X:    -4.3022      Y:     0.0000      Z:    -0.0000     Total:     4.3022

  Basis Set: (AUG-CC-PVQZ AUX)
    Blend: AUG-CC-PVQZ-RI
	 Reference Energy          =    -278.2153923643464282 [Eh]
	 Singles Energy            =      -0.0000000000000000 [Eh]
	 Same-Spin Energy          =      -0.2354653032245209 [Eh]
	 Opposite-Spin Energy      =      -0.8349512366974954 [Eh]
	 Correlation Energy        =      -1.0704165399220162 [Eh]
	 Total Energy              =    -279.2858089042684355 [Eh]

	 ================> DF-SCS-MP2 Energies <==================
	-----------------------------------------------------------
	 SCS Same-Spin Scale       =       0.3333333333333333 [-]
	 SCS Opposite-Spin Scale   =       1.2000000000000000 [-]
	 SCS Same-Spin Energy      =      -0.0784884344081736 [Eh]
	 SCS Opposite-Spin Energy  =      -1.0019414840369945 [Eh]
	 SCS Correlation Energy    =      -1.0804299184451680 [Eh]
	 SCS Total Energy          =    -279.2958222827916188 [Eh]
	-----------------------------------------------------------

*** Psi4 exiting successfully. Buy a developer a beer!
