                               Psi4 1.4a2.dev224

  ==> Input File <==

--------------------------------------------------------------------------
#Generated by lconvert.py for cbs job

memory 40 GB

molecule  {
0 1
  F       -0.9143240     0.0000120     0.0000000
  C       -2.2973460     0.0000230     0.0000000
  H       -2.6517400     1.0270620    -0.0000010
  H       -2.6517520    -0.5134920     0.8894400
  H       -2.6517530    -0.5134930    -0.8894390
--
0 1
  F        3.2410050     0.0000190     0.0000010
  C        1.8576390     0.0000180    -0.0000000
  H        1.4998060     1.0254190    -0.0000000
  H        1.4998070    -0.5126840     0.8880230
  H        1.4998080    -0.5126830    -0.8880250
units angstrom
no_reorient
symmetry c1
}

set {
scf_type DF
mp2_type DF
e_convergence 7
reference rhf
}

energy('mp2/aug-cc-pv[tq]z', bsse_type='cp')
--------------------------------------------------------------------------

    Molecular point group: c1
  Charge       = 0
  Multiplicity = 1
  Basis Set: AUG-CC-PVTZ
    Blend: AUG-CC-PVTZ
  Basis Set: (AUG-CC-PVTZ AUX)
    Blend: AUG-CC-PVTZ-JKFIT
  @DF-RHF Final Energy:  -139.09739988087563
    Total Energy =                       -139.0973998808756278
  Basis Set: (AUG-CC-PVTZ AUX)
    Blend: AUG-CC-PVTZ-RI
	 Reference Energy          =    -139.0973998808756278 [Eh]
	 Singles Energy            =      -0.0000000000000000 [Eh]
	 Same-Spin Energy          =      -0.1097782914843676 [Eh]
	 Opposite-Spin Energy      =      -0.3667401189772131 [Eh]
	 Correlation Energy        =      -0.4765184104615807 [Eh]
	 Total Energy              =    -139.5739182913372076 [Eh]
	 SCS Total Energy          =    -139.5740807874764187 [Eh]
    Molecular point group: c1
  Basis Set: AUG-CC-PVQZ
    Blend: AUG-CC-PVQZ
  Basis Set: (AUG-CC-PVQZ AUX)
    Blend: AUG-CC-PVQZ-JKFIT
  @DF-RHF Final Energy:  -139.10687886599231
    Total Energy =                       -139.1068788659923143
  Basis Set: (AUG-CC-PVQZ AUX)
  @DF-RHF Final Energy:  -139.09743701510087
    Total Energy =                       -139.0974370151008657
  @DF-RHF Final Energy:  -139.10690729252374
    Total Energy =                       -139.1069072925237435
  @DF-RHF Final Energy:  -139.09755808222585
    Total Energy =                       -139.0975580822258451
  @DF-RHF Final Energy:  -139.10695561818250
    Total Energy =                       -139.1069556181824964
  @DF-RHF Final Energy:  -139.09744646684263
    Total Energy =                       -139.0974464668426549
  @DF-RHF Final Energy:  -139.10692383271385
    Total Energy =                       -139.1069238327138464
  Multiplicity = 1
  @DF-RHF Final Energy:  -278.19528524324932
    Total Energy =                       -278.1952852432493160
	 Singles Energy            =      -0.0000000000000000 [Eh]
	 Same-Spin Energy          =      -0.2205634439729325 [Eh]
	 Opposite-Spin Energy      =      -0.7350433567093053 [Eh]
	 Correlation Energy        =      -0.9556068006822378 [Eh]
	 Total Energy              =    -279.1508920439315489 [Eh]
	 SCS Total Energy          =    -279.1508584192914668 [Eh]
    Molecular point group: c1

    Geometry (in Angstrom), charge = 0, multiplicity = 1:

       Center              X                  Y                   Z               Mass
    ------------   -----------------  -----------------  -----------------  -----------------
         F           -1.435222250600    -0.000005796782    -0.000000249586    18.998403162730
         C           -2.818244250600     0.000005203218    -0.000000249586    12.000000000000
         H           -3.172638250600     1.027044203218    -0.000001249586     1.007825032230
         H           -3.172650250600    -0.513509796782     0.889439750414     1.007825032230
         H           -3.172651250600    -0.513510796782    -0.889439249586     1.007825032230
         F            2.720106749400     0.000001203218     0.000000750414    18.998403162730
         C            1.336740749400     0.000000203218    -0.000000249586    12.000000000000
         H            0.978907749400     1.025401203218    -0.000000249586     1.007825032230
         H            0.978908749400    -0.512701796782     0.888022750414     1.007825032230
         H            0.978909749400    -0.512700796782    -0.888025249586     1.007825032230

  Charge       = 0
  Multiplicity = 1
  Basis Set: AUG-CC-PVQZ
    Blend: AUG-CC-PVQZ
  Basis Set: (AUG-CC-PVQZ AUX)
    Blend: AUG-CC-PVQZ-JKFIT

    Orbital Energies [Eh]
    ---------------------

    Doubly Occupied:

       1A    -26.289471     2A    -26.258886     3A    -11.314690
       4A    -11.284057     5A     -1.601754     6A     -1.570353
       7A     -0.969140     8A     -0.935979     9A     -0.709975
      10A     -0.709975    11A     -0.694229    12A     -0.678770
      13A     -0.678770    14A     -0.653705    15A     -0.544394
      16A     -0.544394    17A     -0.512583    18A     -0.512582

  @DF-RHF Final Energy:  -278.21414479504824

   => Energetics <=

    Nuclear Repulsion Energy =            118.5634834577191299
    One-Electron Energy =                -620.6278408866457994
    Two-Electron Energy =                 223.8502126338784421
    Total Energy =                       -278.2141447950482416

  Dipole Moment: [D]
     X:    -4.4287      Y:     0.0000      Z:    -0.0000     Total:     4.4287

  Basis Set: (AUG-CC-PVQZ AUX)
    Blend: AUG-CC-PVQZ-RI
	 Reference Energy          =    -278.2141447950482416 [Eh]
	 Singles Energy            =      -0.0000000000000000 [Eh]
	 Same-Spin Energy          =      -0.2361882856255986 [Eh]
	 Opposite-Spin Energy      =      -0.8357986052970293 [Eh]
	 Correlation Energy        =      -1.0719868909226280 [Eh]
	 Total Energy              =    -279.2861316859708722 [Eh]

	 ================> DF-SCS-MP2 Energies <==================
	-----------------------------------------------------------
	 SCS Same-Spin Scale       =       0.3333333333333333 [-]
	 SCS Opposite-Spin Scale   =       1.2000000000000000 [-]
	 SCS Same-Spin Energy      =      -0.0787294285418662 [Eh]
	 SCS Opposite-Spin Energy  =      -1.0029583263564352 [Eh]
	 SCS Correlation Energy    =      -1.0816877548983015 [Eh]
	 SCS Total Energy          =    -279.2958325499465673 [Eh]
	-----------------------------------------------------------

*** Psi4 exiting successfully. Buy a developer a beer!
