                               Psi4 1.4a2.dev224

  ==> Input File <==

--------------------------------------------------------------------------
#Generated by lconvert.py for cbs job

memory 40 GB

molecule  {
0 1
  F       -0.9143240     0.0000120     0.0000000
  C       -2.2973460     0.0000230     0.0000000
  H       -2.6517400     1.0270620    -0.0000010
  H       -2.6517520    -0.5134920     0.8894400
  H       -2.6517530    -0.5134930    -0.8894390
--
0 1
  F        2.9207620     0.0000190     0.0000010
  C        1.5373960     0.0000180    -0.0000000
  H        1.1795630     1.0254190    -0.0000000
  H        1.1795640    -0.5126840     0.8880230
  H        1.1795650    -0.5126830    -0.8880250
units angstrom
no_reorient
symmetry c1
}

set {
scf_type DF
mp2_type DF
e_convergence 7
reference rhf
}

energy('mp2/aug-cc-pv[tq]z', bsse_type='cp')
--------------------------------------------------------------------------

    Molecular point group: c1
  Charge       = 0
  Multiplicity = 1
  Basis Set: AUG-CC-PVTZ
    Blend: AUG-CC-PVTZ
  Basis Set: (AUG-CC-PVTZ AUX)
    Blend: AUG-CC-PVTZ-JKFIT
  @DF-RHF Final Energy:  -139.09739988085320
    Total Energy =                       -139.0973998808532031
  Basis Set: (AUG-CC-PVTZ AUX)
    Blend: AUG-CC-PVTZ-RI
	 Reference Energy          =    -139.0973998808532031 [Eh]
	 Singles Energy            =      -0.0000000000000000 [Eh]
	 Same-Spin Energy          =      -0.1097782914843055 [Eh]
	 Opposite-Spin Energy      =      -0.3667401189766051 [Eh]
	 Correlation Energy        =      -0.4765184104609106 [Eh]
	 Total Energy              =    -139.5739182913141008 [Eh]
	 SCS Total Energy          =    -139.5740807874532265 [Eh]
    Molecular point group: c1
  Basis Set: AUG-CC-PVQZ
    Blend: AUG-CC-PVQZ
  Basis Set: (AUG-CC-PVQZ AUX)
    Blend: AUG-CC-PVQZ-JKFIT
  @DF-RHF Final Energy:  -139.10687886602307
    Total Energy =                       -139.1068788660230666
  Basis Set: (AUG-CC-PVQZ AUX)
  @DF-RHF Final Energy:  -139.09744831438690
    Total Energy =                       -139.0974483143868952
  @DF-RHF Final Energy:  -139.10692232792260
    Total Energy =                       -139.1069223279226037
  @DF-RHF Final Energy:  -139.09760720609844
    Total Energy =                       -139.0976072060984450
  @DF-RHF Final Energy:  -139.10697206181763
    Total Energy =                       -139.1069720618176291
  @DF-RHF Final Energy:  -139.09744646681605
    Total Energy =                       -139.0974464668160522
  @DF-RHF Final Energy:  -139.10692383280610
    Total Energy =                       -139.1069238328061033
  Multiplicity = 1
  @DF-RHF Final Energy:  -278.19001245521855
    Total Energy =                       -278.1900124552184934
	 Singles Energy            =      -0.0000000000000000 [Eh]
	 Same-Spin Energy          =      -0.2214548992110580 [Eh]
	 Opposite-Spin Energy      =      -0.7362021861371995 [Eh]
	 Correlation Energy        =      -0.9576570853482576 [Eh]
	 Total Energy              =    -279.1476695405668238 [Eh]
	 SCS Total Energy          =    -279.1472733783202216 [Eh]
    Molecular point group: c1

    Geometry (in Angstrom), charge = 0, multiplicity = 1:

       Center              X                  Y                   Z               Mass
    ------------   -----------------  -----------------  -----------------  -----------------
         F           -1.275100750600    -0.000005796782    -0.000000249586    18.998403162730
         C           -2.658122750600     0.000005203218    -0.000000249586    12.000000000000
         H           -3.012516750600     1.027044203218    -0.000001249586     1.007825032230
         H           -3.012528750600    -0.513509796782     0.889439750414     1.007825032230
         H           -3.012529750600    -0.513510796782    -0.889439249586     1.007825032230
         F            2.559985249400     0.000001203218     0.000000750414    18.998403162730
         C            1.176619249400     0.000000203218    -0.000000249586    12.000000000000
         H            0.818786249400     1.025401203218    -0.000000249586     1.007825032230
         H            0.818787249400    -0.512701796782     0.888022750414     1.007825032230
         H            0.818788249400    -0.512700796782    -0.888025249586     1.007825032230

  Charge       = 0
  Multiplicity = 1
  Basis Set: AUG-CC-PVQZ
    Blend: AUG-CC-PVQZ
  Basis Set: (AUG-CC-PVQZ AUX)
    Blend: AUG-CC-PVQZ-JKFIT

    Orbital Energies [Eh]
    ---------------------

    Doubly Occupied:

       1A    -26.291269     2A    -26.254050     3A    -11.316345
       4A    -11.279028     5A     -1.605966     6A     -1.566123
       7A     -0.974852     8A     -0.930320     9A     -0.713884
      10A     -0.713884    11A     -0.702726    12A     -0.674291
      13A     -0.674291    14A     -0.642671    15A     -0.547888
      16A     -0.547888    17A     -0.507084    18A     -0.507083

  @DF-RHF Final Energy:  -278.20884837718484

   => Energetics <=

    Nuclear Repulsion Energy =            122.7199997725813887
    One-Electron Energy =                -628.9584094336969429
    Two-Electron Energy =                 228.0295612839306898
    Total Energy =                       -278.2088483771848360

  Dipole Moment: [D]
     X:    -4.5489      Y:     0.0000      Z:    -0.0000     Total:     4.5489

  Basis Set: (AUG-CC-PVQZ AUX)
    Blend: AUG-CC-PVQZ-RI
	 Reference Energy          =    -278.2088483771848360 [Eh]
	 Singles Energy            =      -0.0000000000000000 [Eh]
	 Same-Spin Energy          =      -0.2371052378097709 [Eh]
	 Opposite-Spin Energy      =      -0.8368989170440942 [Eh]
	 Correlation Energy        =      -1.0740041548538652 [Eh]
	 Total Energy              =    -279.2828525320387030 [Eh]

	 ================> DF-SCS-MP2 Energies <==================
	-----------------------------------------------------------
	 SCS Same-Spin Scale       =       0.3333333333333333 [-]
	 SCS Opposite-Spin Scale   =       1.2000000000000000 [-]
	 SCS Same-Spin Energy      =      -0.0790350792699236 [Eh]
	 SCS Opposite-Spin Energy  =      -1.0042787004529130 [Eh]
	 SCS Correlation Energy    =      -1.0833137797228367 [Eh]
	 SCS Total Energy          =    -279.2921621569076933 [Eh]
	-----------------------------------------------------------

*** Psi4 exiting successfully. Buy a developer a beer!
