                               Psi4 1.4a2.dev224

  ==> Input File <==

--------------------------------------------------------------------------
#Generated by lconvert.py for cbs job

memory 40 GB

molecule  {
0 1
  F       -0.9143240     0.0000120     0.0000000
  C       -2.2973460     0.0000230     0.0000000
  H       -2.6517400     1.0270620    -0.0000010
  H       -2.6517520    -0.5134920     0.8894400
  H       -2.6517530    -0.5134930    -0.8894390
--
0 1
  F        3.7099320     0.0000190     0.0000010
  C        2.3265660     0.0000180     0.0000000
  H        1.9687330     1.0254190     0.0000000
  H        1.9687340    -0.5126840     0.8880230
  H        1.9687350    -0.5126830    -0.8880250
units angstrom
no_reorient
symmetry c1
}

set {
scf_type DF
mp2_type DF
e_convergence 7
reference rhf
}

energy('mp2/aug-cc-pv[tq]z', bsse_type='cp')
--------------------------------------------------------------------------

    Molecular point group: c1
  Charge       = 0
  Multiplicity = 1
  Basis Set: AUG-CC-PVTZ
    Blend: AUG-CC-PVTZ
  Basis Set: (AUG-CC-PVTZ AUX)
    Blend: AUG-CC-PVTZ-JKFIT
  @DF-RHF Final Energy:  -139.09739988081827
    Total Energy =                       -139.0973998808182728
  Basis Set: (AUG-CC-PVTZ AUX)
    Blend: AUG-CC-PVTZ-RI
	 Reference Energy          =    -139.0973998808182728 [Eh]
	 Singles Energy            =      -0.0000000000000000 [Eh]
	 Same-Spin Energy          =      -0.1097782914844139 [Eh]
	 Opposite-Spin Energy      =      -0.3667401189774318 [Eh]
	 Correlation Energy        =      -0.4765184104618457 [Eh]
	 Total Energy              =    -139.5739182912801084 [Eh]
	 SCS Total Energy          =    -139.5740807874193194 [Eh]
    Molecular point group: c1
  Basis Set: AUG-CC-PVQZ
    Blend: AUG-CC-PVQZ
  Basis Set: (AUG-CC-PVQZ AUX)
    Blend: AUG-CC-PVQZ-JKFIT
  @DF-RHF Final Energy:  -139.10687886601417
    Total Energy =                       -139.1068788660141990
  Basis Set: (AUG-CC-PVQZ AUX)
  @DF-RHF Final Energy:  -139.09742562032096
    Total Energy =                       -139.0974256203209620
  @DF-RHF Final Energy:  -139.10689365032221
    Total Energy =                       -139.1068936503222062
  @DF-RHF Final Energy:  -139.09749513323490
    Total Energy =                       -139.0974951332349008
  @DF-RHF Final Energy:  -139.10694492953579
    Total Energy =                       -139.1069449295357572
  @DF-RHF Final Energy:  -139.09744646685357
    Total Energy =                       -139.0974464668535688
  @DF-RHF Final Energy:  -139.10692383275091
    Total Energy =                       -139.1069238327509083
  Multiplicity = 1
  @DF-RHF Final Energy:  -278.19650723888782
    Total Energy =                       -278.1965072388878184
	 Singles Energy            =      -0.0000000000000000 [Eh]
	 Same-Spin Energy          =      -0.2199614525299564 [Eh]
	 Opposite-Spin Energy      =      -0.7342186225989609 [Eh]
	 Correlation Energy        =      -0.9541800751289172 [Eh]
	 Total Energy              =    -279.1506873140167500 [Eh]
	 SCS Total Energy          =    -279.1508900701832090 [Eh]
    Molecular point group: c1

    Geometry (in Angstrom), charge = 0, multiplicity = 1:

       Center              X                  Y                   Z               Mass
    ------------   -----------------  -----------------  -----------------  -----------------
         F           -1.669685750600    -0.000005796782    -0.000000249586    18.998403162730
         C           -3.052707750600     0.000005203218    -0.000000249586    12.000000000000
         H           -3.407101750600     1.027044203218    -0.000001249586     1.007825032230
         H           -3.407113750600    -0.513509796782     0.889439750414     1.007825032230
         H           -3.407114750600    -0.513510796782    -0.889439249586     1.007825032230
         F            2.954570249400     0.000001203218     0.000000750414    18.998403162730
         C            1.571204249400     0.000000203218    -0.000000249586    12.000000000000
         H            1.213371249400     1.025401203218    -0.000000249586     1.007825032230
         H            1.213372249400    -0.512701796782     0.888022750414     1.007825032230
         H            1.213373249400    -0.512700796782    -0.888025249586     1.007825032230

  Charge       = 0
  Multiplicity = 1
  Basis Set: AUG-CC-PVQZ
    Blend: AUG-CC-PVQZ
  Basis Set: (AUG-CC-PVQZ AUX)
    Blend: AUG-CC-PVQZ-JKFIT

    Orbital Energies [Eh]
    ---------------------

    Doubly Occupied:

       1A    -26.286787     2A    -26.263018     3A    -11.312733
       4A    -11.288856     5A     -1.598072     6A     -1.574100
       7A     -0.965471     8A     -0.941061     9A     -0.706690
      10A     -0.706690    11A     -0.687682    12A     -0.682803
      13A     -0.682803    14A     -0.661254    15A     -0.541438
      16A     -0.541438    17A     -0.517375    18A     -0.517374

  @DF-RHF Final Energy:  -278.21541407365874

   => Energetics <=

    Nuclear Repulsion Energy =            113.6715614322178851
    One-Electron Energy =                -610.8226596816421079
    Two-Electron Energy =                 218.9356841757654308
    Total Energy =                       -278.2154140736587351

  Dipole Moment: [D]
     X:    -4.3259      Y:     0.0000      Z:    -0.0000     Total:     4.3259

  Basis Set: (AUG-CC-PVQZ AUX)
    Blend: AUG-CC-PVQZ-RI
	 Reference Energy          =    -278.2154140736587351 [Eh]
	 Singles Energy            =      -0.0000000000000000 [Eh]
	 Same-Spin Energy          =      -0.2355709921078276 [Eh]
	 Opposite-Spin Energy      =      -0.8350681571297609 [Eh]
	 Correlation Energy        =      -1.0706391492375886 [Eh]
	 Total Energy              =    -279.2860532228963280 [Eh]

	 ================> DF-SCS-MP2 Energies <==================
	-----------------------------------------------------------
	 SCS Same-Spin Scale       =       0.3333333333333333 [-]
	 SCS Opposite-Spin Scale   =       1.2000000000000000 [-]
	 SCS Same-Spin Energy      =      -0.0785236640359425 [Eh]
	 SCS Opposite-Spin Energy  =      -1.0020817885557129 [Eh]
	 SCS Correlation Energy    =      -1.0806054525916555 [Eh]
	 SCS Total Energy          =    -279.2960195262504044 [Eh]
	-----------------------------------------------------------

*** Psi4 exiting successfully. Buy a developer a beer!
