                               Psi4 1.4a2.dev224

  ==> Input File <==

--------------------------------------------------------------------------
#Generated by lconvert.py for cbs job

memory 40 GB

molecule  {
0 1
  F       -0.9143240     0.0000120     0.0000000
  C       -2.2973460     0.0000230     0.0000000
  H       -2.6517400     1.0270620    -0.0000010
  H       -2.6517520    -0.5134920     0.8894400
  H       -2.6517530    -0.5134930    -0.8894390
--
0 1
  F        3.3986160     0.0000190     0.0000010
  C        2.0152500     0.0000180    -0.0000000
  H        1.6574170     1.0254190    -0.0000000
  H        1.6574180    -0.5126840     0.8880230
  H        1.6574190    -0.5126830    -0.8880250
units angstrom
no_reorient
symmetry c1
}

set {
scf_type DF
mp2_type DF
e_convergence 7
reference rhf
}

energy('mp2/aug-cc-pv[tq]z', bsse_type='cp')
--------------------------------------------------------------------------

    Molecular point group: c1
  Charge       = 0
  Multiplicity = 1
  Basis Set: AUG-CC-PVTZ
    Blend: AUG-CC-PVTZ
  Basis Set: (AUG-CC-PVTZ AUX)
    Blend: AUG-CC-PVTZ-JKFIT
  @DF-RHF Final Energy:  -139.09739988085329
    Total Energy =                       -139.0973998808532883
  Basis Set: (AUG-CC-PVTZ AUX)
    Blend: AUG-CC-PVTZ-RI
	 Reference Energy          =    -139.0973998808532883 [Eh]
	 Singles Energy            =      -0.0000000000000000 [Eh]
	 Same-Spin Energy          =      -0.1097782914844387 [Eh]
	 Opposite-Spin Energy      =      -0.3667401189775951 [Eh]
	 Correlation Energy        =      -0.4765184104620338 [Eh]
	 Total Energy              =    -139.5739182913153229 [Eh]
	 SCS Total Energy          =    -139.5740807874545624 [Eh]
    Molecular point group: c1
  Basis Set: AUG-CC-PVQZ
    Blend: AUG-CC-PVQZ
  Basis Set: (AUG-CC-PVQZ AUX)
    Blend: AUG-CC-PVQZ-JKFIT
  @DF-RHF Final Energy:  -139.10687886600368
    Total Energy =                       -139.1068788660036830
  Basis Set: (AUG-CC-PVQZ AUX)
  @DF-RHF Final Energy:  -139.09743261195086
    Total Energy =                       -139.0974326119508646
  @DF-RHF Final Energy:  -139.10690134127958
    Total Energy =                       -139.1069013412795812
  @DF-RHF Final Energy:  -139.09753284445716
    Total Energy =                       -139.0975328444571630
  @DF-RHF Final Energy:  -139.10695230554134
    Total Energy =                       -139.1069523055413413
  @DF-RHF Final Energy:  -139.09744646682159
    Total Energy =                       -139.0974464668215944
  @DF-RHF Final Energy:  -139.10692383275875
    Total Energy =                       -139.1069238327587527
  Multiplicity = 1
  @DF-RHF Final Energy:  -278.19609369673185
    Total Energy =                       -278.1960936967318503
	 Singles Energy            =      -0.0000000000000000 [Eh]
	 Same-Spin Energy          =      -0.2202966762142659 [Eh]
	 Opposite-Spin Energy      =      -0.7346853261752679 [Eh]
	 Correlation Energy        =      -0.9549820023895339 [Eh]
	 Total Energy              =    -279.1510756991214066 [Eh]
	 SCS Total Energy          =    -279.1511483135469120 [Eh]
    Molecular point group: c1

    Geometry (in Angstrom), charge = 0, multiplicity = 1:

       Center              X                  Y                   Z               Mass
    ------------   -----------------  -----------------  -----------------  -----------------
         F           -1.514027750600    -0.000005796782    -0.000000249586    18.998403162730
         C           -2.897049750600     0.000005203218    -0.000000249586    12.000000000000
         H           -3.251443750600     1.027044203218    -0.000001249586     1.007825032230
         H           -3.251455750600    -0.513509796782     0.889439750414     1.007825032230
         H           -3.251456750600    -0.513510796782    -0.889439249586     1.007825032230
         F            2.798912249400     0.000001203218     0.000000750414    18.998403162730
         C            1.415546249400     0.000000203218    -0.000000249586    12.000000000000
         H            1.057713249400     1.025401203218    -0.000000249586     1.007825032230
         H            1.057714249400    -0.512701796782     0.888022750414     1.007825032230
         H            1.057715249400    -0.512700796782    -0.888025249586     1.007825032230

  Charge       = 0
  Multiplicity = 1
  Basis Set: AUG-CC-PVQZ
    Blend: AUG-CC-PVQZ
  Basis Set: (AUG-CC-PVQZ AUX)
    Blend: AUG-CC-PVQZ-JKFIT

    Orbital Energies [Eh]
    ---------------------

    Doubly Occupied:

       1A    -26.288538     2A    -26.260544     3A    -11.313974
       4A    -11.285932     5A     -1.600305     6A     -1.571840
       7A     -0.967548     8A     -0.937997     9A     -0.708670
      10A     -0.708670    11A     -0.691430    12A     -0.680364
      13A     -0.680364    14A     -0.657008    15A     -0.543211
      16A     -0.543211    17A     -0.514495    18A     -0.514494

  @DF-RHF Final Energy:  -278.21497245243529

   => Energetics <=

    Nuclear Repulsion Energy =            116.7818388809541688
    One-Electron Energy =                -617.0564379569233324
    Two-Electron Energy =                 222.0596266235338589
    Total Energy =                       -278.2149724524352905

  Dipole Moment: [D]
     X:    -4.3874      Y:     0.0000      Z:    -0.0000     Total:     4.3874

  Basis Set: (AUG-CC-PVQZ AUX)
    Blend: AUG-CC-PVQZ-RI
	 Reference Energy          =    -278.2149724524352905 [Eh]
	 Singles Energy            =      -0.0000000000000000 [Eh]
	 Same-Spin Energy          =      -0.2359136887091705 [Eh]
	 Opposite-Spin Energy      =      -0.8354666779429150 [Eh]
	 Correlation Energy        =      -1.0713803666520856 [Eh]
	 Total Energy              =    -279.2863528190873694 [Eh]

	 ================> DF-SCS-MP2 Energies <==================
	-----------------------------------------------------------
	 SCS Same-Spin Scale       =       0.3333333333333333 [-]
	 SCS Opposite-Spin Scale   =       1.2000000000000000 [-]
	 SCS Same-Spin Energy      =      -0.0786378962363902 [Eh]
	 SCS Opposite-Spin Energy  =      -1.0025600135314978 [Eh]
	 SCS Correlation Energy    =      -1.0811979097678881 [Eh]
	 SCS Total Energy          =    -279.2961703622031564 [Eh]
	-----------------------------------------------------------

*** Psi4 exiting successfully. Buy a developer a beer!
