                               Psi4 1.4a2.dev224

  ==> Input File <==

--------------------------------------------------------------------------
#Generated by lconvert.py for cbs job

memory 20 GB

molecule  {
0 1
  F      -0.914320    0.000010    0.000000
  C      -2.297350    0.000020    0.000000
  H      -2.651740    1.027060   -0.000000
  H      -2.651750   -0.513490    0.889440
  H      -2.651750   -0.513490   -0.889440
--
0 1
  F       4.524710    0.000020    0.000000
  C       3.141340    0.000020    0.000000
  H       2.783510    1.025420    0.000000
  H       2.783510   -0.512680    0.888020
  H       2.783510   -0.512680   -0.888020
units angstrom
no_reorient
symmetry c1
}

set {
scf_type DF
mp2_type DF
e_convergence 7
reference rhf
}

energy('mp2/aug-cc-pv[tq]z', bsse_type='cp')
--------------------------------------------------------------------------

    Molecular point group: c1
  Charge       = 0
  Multiplicity = 1
  Basis Set: AUG-CC-PVTZ
    Blend: AUG-CC-PVTZ
  Basis Set: (AUG-CC-PVTZ AUX)
    Blend: AUG-CC-PVTZ-JKFIT
  @DF-RHF Final Energy:  -139.09739983852262
    Total Energy =                       -139.0973998385226196
  Basis Set: (AUG-CC-PVTZ AUX)
    Blend: AUG-CC-PVTZ-RI
	 Reference Energy          =    -139.0973998385226196 [Eh]
	 Singles Energy            =      -0.0000000000000000 [Eh]
	 Same-Spin Energy          =      -0.1097783076887110 [Eh]
	 Opposite-Spin Energy      =      -0.3667401620612520 [Eh]
	 Correlation Energy        =      -0.4765184697499630 [Eh]
	 Total Energy              =    -139.5739183082725958 [Eh]
	 SCS Total Energy          =    -139.5740808022256942 [Eh]
    Molecular point group: c1
  Basis Set: AUG-CC-PVQZ
    Blend: AUG-CC-PVQZ
  Basis Set: (AUG-CC-PVQZ AUX)
    Blend: AUG-CC-PVQZ-JKFIT
  @DF-RHF Final Energy:  -139.10687882372383
    Total Energy =                       -139.1068788237238323
  Basis Set: (AUG-CC-PVQZ AUX)
  @DF-RHF Final Energy:  -139.09740764759559
    Total Energy =                       -139.0974076475955883
  @DF-RHF Final Energy:  -139.10688515748780
    Total Energy =                       -139.1068851574877954
  @DF-RHF Final Energy:  -139.09745725976558
    Total Energy =                       -139.0974572597655765
  @DF-RHF Final Energy:  -139.10693426577532
    Total Energy =                       -139.1069342657753225
  @DF-RHF Final Energy:  -139.09744632723391
    Total Energy =                       -139.0974463272339108
  @DF-RHF Final Energy:  -139.10692368357260
    Total Energy =                       -139.1069236835726031
  Multiplicity = 1
  @DF-RHF Final Energy:  -278.19603725258366
    Total Energy =                       -278.1960372525836647
	 Singles Energy            =      -0.0000000000000000 [Eh]
	 Same-Spin Energy          =      -0.2196360444144052 [Eh]
	 Opposite-Spin Energy      =      -0.7337641030703280 [Eh]
	 Correlation Energy        =      -0.9534001474847332 [Eh]
	 Total Energy              =    -279.1494374000683933 [Eh]
	 SCS Total Energy          =    -279.1497661910728425 [Eh]
    Molecular point group: c1

    Geometry (in Angstrom), charge = 0, multiplicity = 1:

       Center              X                  Y                   Z               Mass
    ------------   -----------------  -----------------  -----------------  -----------------
         F           -2.077070441766    -0.000007504142     0.000000000000    18.998403162730
         C           -3.460100441766     0.000002495858     0.000000000000    12.000000000000
         H           -3.814490441766     1.027042495858     0.000000000000     1.007825032230
         H           -3.814500441766    -0.513507504142     0.889440000000     1.007825032230
         H           -3.814500441766    -0.513507504142    -0.889440000000     1.007825032230
         F            3.361959558234     0.000002495858     0.000000000000    18.998403162730
         C            1.978589558234     0.000002495858     0.000000000000    12.000000000000
         H            1.620759558234     1.025402495858     0.000000000000     1.007825032230
         H            1.620759558234    -0.512697504142     0.888020000000     1.007825032230
         H            1.620759558234    -0.512697504142    -0.888020000000     1.007825032230

  Charge       = 0
  Multiplicity = 1
  Basis Set: AUG-CC-PVQZ
    Blend: AUG-CC-PVQZ
  Basis Set: (AUG-CC-PVQZ AUX)
    Blend: AUG-CC-PVQZ-JKFIT

    Orbital Energies [Eh]
    ---------------------

    Doubly Occupied:

       1A    -26.283333     2A    -26.266952     3A    -11.310402
       4A    -11.293725     5A     -1.594336     6A     -1.577786
       7A     -0.962588     8A     -0.946015     9A     -0.703404
      10A     -0.703403    11A     -0.686808    12A     -0.686808
      13A     -0.683086    14A     -0.666391    15A     -0.538568
      16A     -0.538566    17A     -0.522007    18A     -0.522007

  @DF-RHF Final Energy:  -278.21498582270669

   => Energetics <=

    Nuclear Repulsion Energy =            107.4081320591095050
    One-Electron Energy =                -598.2738662955259770
    Two-Electron Energy =                 212.6507484137097777
    Total Energy =                       -278.2149858227066943

  Dipole Moment: [D]
     X:    -4.2320      Y:     0.0000      Z:     0.0000     Total:     4.2320

  Basis Set: (AUG-CC-PVQZ AUX)
    Blend: AUG-CC-PVQZ-RI
	 Reference Energy          =    -278.2149858227066943 [Eh]
	 Singles Energy            =      -0.0000000000000000 [Eh]
	 Same-Spin Energy          =      -0.2352430630895623 [Eh]
	 Opposite-Spin Energy      =      -0.8347028990331274 [Eh]
	 Correlation Energy        =      -1.0699459621226897 [Eh]
	 Total Energy              =    -279.2849317848293822 [Eh]

	 ================> DF-SCS-MP2 Energies <==================
	-----------------------------------------------------------
	 SCS Same-Spin Scale       =       0.3333333333333333 [-]
	 SCS Opposite-Spin Scale   =       1.2000000000000000 [-]
	 SCS Same-Spin Energy      =      -0.0784143543631874 [Eh]
	 SCS Opposite-Spin Energy  =      -1.0016434788397528 [Eh]
	 SCS Correlation Energy    =      -1.0800578332029402 [Eh]
	 SCS Total Energy          =    -279.2950436559096374 [Eh]
	-----------------------------------------------------------

*** Psi4 exiting successfully. Buy a developer a beer!
