                               Psi4 1.4a2.dev224

  ==> Input File <==

--------------------------------------------------------------------------
#Generated by lconvert.py for cbs job

memory 20 GB

molecule  {
0 1
  F      -0.914320    0.000010    0.000000
  C      -2.297350    0.000020    0.000000
  H      -2.651740    1.027060   -0.000000
  H      -2.651750   -0.513490    0.889440
  H      -2.651750   -0.513490   -0.889440
--
0 1
  F       5.515570    0.000020    0.000000
  C       4.132210    0.000020    0.000000
  H       3.774370    1.025420    0.000000
  H       3.774380   -0.512680    0.888020
  H       3.774380   -0.512680   -0.888020
units angstrom
no_reorient
symmetry c1
}

set {
scf_type DF
mp2_type DF
e_convergence 7
reference rhf
}

energy('mp2/aug-cc-pv[tq]z', bsse_type='cp')
--------------------------------------------------------------------------

    Molecular point group: c1
  Charge       = 0
  Multiplicity = 1
  Basis Set: AUG-CC-PVTZ
    Blend: AUG-CC-PVTZ
  Basis Set: (AUG-CC-PVTZ AUX)
    Blend: AUG-CC-PVTZ-JKFIT
  @DF-RHF Final Energy:  -139.09740011996803
    Total Energy =                       -139.0974001199680288
  Basis Set: (AUG-CC-PVTZ AUX)
    Blend: AUG-CC-PVTZ-RI
	 Reference Energy          =    -139.0974001199680288 [Eh]
	 Singles Energy            =      -0.0000000000000000 [Eh]
	 Same-Spin Energy          =      -0.1097782684181306 [Eh]
	 Opposite-Spin Energy      =      -0.3667399057645059 [Eh]
	 Correlation Energy        =      -0.4765181741826366 [Eh]
	 Total Energy              =    -139.5739182941506726 [Eh]
	 SCS Total Energy          =    -139.5740807630248241 [Eh]
    Molecular point group: c1
  Basis Set: AUG-CC-PVQZ
    Blend: AUG-CC-PVQZ
  Basis Set: (AUG-CC-PVQZ AUX)
    Blend: AUG-CC-PVQZ-JKFIT
  @DF-RHF Final Energy:  -139.10687912131218
    Total Energy =                       -139.1068791213121756
  Basis Set: (AUG-CC-PVQZ AUX)
  @DF-RHF Final Energy:  -139.09740272348418
    Total Energy =                       -139.0974027234841799
  @DF-RHF Final Energy:  -139.10688121444346
    Total Energy =                       -139.1068812144434617
  @DF-RHF Final Energy:  -139.09745009246262
    Total Energy =                       -139.0974500924626227
  @DF-RHF Final Energy:  -139.10692799849630
    Total Energy =                       -139.1069279984963032
  @DF-RHF Final Energy:  -139.09744632720540
    Total Energy =                       -139.0974463272054038
  @DF-RHF Final Energy:  -139.10692368358369
    Total Energy =                       -139.1069236835836591
  Multiplicity = 1
  @DF-RHF Final Energy:  -278.19556675248850
    Total Energy =                       -278.1955667524885030
	 Singles Energy            =      -0.0000000000000000 [Eh]
	 Same-Spin Energy          =      -0.2195566681188229 [Eh]
	 Opposite-Spin Energy      =      -0.7336079284465753 [Eh]
	 Correlation Energy        =      -0.9531645965653982 [Eh]
	 Total Energy              =    -279.1487313490538895 [Eh]
	 SCS Total Energy          =    -279.1490818226640158 [Eh]
    Molecular point group: c1

    Geometry (in Angstrom), charge = 0, multiplicity = 1:

       Center              X                  Y                   Z               Mass
    ------------   -----------------  -----------------  -----------------  -----------------
         F           -2.572502501565    -0.000007504142     0.000000000000    18.998403162730
         C           -3.955532501565     0.000002495858     0.000000000000    12.000000000000
         H           -4.309922501565     1.027042495858     0.000000000000     1.007825032230
         H           -4.309932501565    -0.513507504142     0.889440000000     1.007825032230
         H           -4.309932501565    -0.513507504142    -0.889440000000     1.007825032230
         F            3.857387498435     0.000002495858     0.000000000000    18.998403162730
         C            2.474027498435     0.000002495858     0.000000000000    12.000000000000
         H            2.116187498435     1.025402495858     0.000000000000     1.007825032230
         H            2.116197498435    -0.512697504142     0.888020000000     1.007825032230
         H            2.116197498435    -0.512697504142    -0.888020000000     1.007825032230

  Charge       = 0
  Multiplicity = 1
  Basis Set: AUG-CC-PVQZ
    Blend: AUG-CC-PVQZ
  Basis Set: (AUG-CC-PVQZ AUX)
    Blend: AUG-CC-PVQZ-JKFIT

    Orbital Energies [Eh]
    ---------------------

    Doubly Occupied:

       1A    -26.280875     2A    -26.269592     3A    -11.308711
       4A    -11.297044     5A     -1.591819     6A     -1.580309
       7A     -0.960714     8A     -0.949318     9A     -0.701163
      10A     -0.701163    11A     -0.689545    12A     -0.689545
      13A     -0.680577    14A     -0.669294    15A     -0.536611
      16A     -0.536609    17A     -0.525110    18A     -0.525109

  @DF-RHF Final Energy:  -278.21451956430690

   => Energetics <=

    Nuclear Repulsion Energy =            102.1122730296957570
    One-Electron Energy =                -587.6673647628192612
    Two-Electron Energy =                 207.3405721688166068
    Total Energy =                       -278.2145195643068973

  Dipole Moment: [D]
     X:    -4.1763      Y:     0.0000      Z:     0.0000     Total:     4.1763

  Basis Set: (AUG-CC-PVQZ AUX)
    Blend: AUG-CC-PVQZ-RI
	 Reference Energy          =    -278.2145195643068973 [Eh]
	 Singles Energy            =      -0.0000000000000000 [Eh]
	 Same-Spin Energy          =      -0.2351612636484797 [Eh]
	 Opposite-Spin Energy      =      -0.8346025549810043 [Eh]
	 Correlation Energy        =      -1.0697638186294840 [Eh]
	 Total Energy              =    -279.2842833829363940 [Eh]

	 ================> DF-SCS-MP2 Energies <==================
	-----------------------------------------------------------
	 SCS Same-Spin Scale       =       0.3333333333333333 [-]
	 SCS Opposite-Spin Scale   =       1.2000000000000000 [-]
	 SCS Same-Spin Energy      =      -0.0783870878828266 [Eh]
	 SCS Opposite-Spin Energy  =      -1.0015230659772052 [Eh]
	 SCS Correlation Energy    =      -1.0799101538600318 [Eh]
	 SCS Total Energy          =    -279.2944297181669526 [Eh]
	-----------------------------------------------------------

*** Psi4 exiting successfully. Buy a developer a beer!
