                               Psi4 1.4a2.dev224

  ==> Input File <==

--------------------------------------------------------------------------
#Generated by lconvert.py for cbs job

memory 40 GB

molecule  {
0 1
 Cl       -0.9515890    -0.6340730     0.0005530
  C       -0.8020540     1.1450090    -0.0055460
  H        0.2466310     1.3954930    -0.1092890
  H       -1.3767320     1.5276110    -0.8401610
  H       -1.1968670     1.5190650     0.9311300
--
0 1
  O        1.6871900     0.0473240     0.0187190
  H        2.4790730    -0.4649970    -0.1534900
  H        0.9831170    -0.6079490     0.0209790
units angstrom
no_reorient
symmetry c1
}

set {
scf_type DF
mp2_type DF
e_convergence 7
reference rhf
}

energy('mp2/aug-cc-pv[tq]z', bsse_type='cp')
--------------------------------------------------------------------------

    Molecular point group: c1
  Charge       = 0
  Multiplicity = 1
  Basis Set: AUG-CC-PVTZ
    Blend: AUG-CC-PVTZ
  Basis Set: (AUG-CC-PVTZ AUX)
    Blend: AUG-CC-PVTZ-JKFIT
  @DF-RHF Final Energy:   -76.06034091751695
    Total Energy =                        -76.0603409175169531
  Basis Set: (AUG-CC-PVTZ AUX)
    Blend: AUG-CC-PVTZ-RI
	 Reference Energy          =     -76.0603409175169531 [Eh]
	 Singles Energy            =      -0.0000000000000000 [Eh]
	 Same-Spin Energy          =      -0.0683990555654465 [Eh]
	 Opposite-Spin Energy      =      -0.2153414332216984 [Eh]
	 Correlation Energy        =      -0.2837404887871450 [Eh]
	 Total Energy              =     -76.3440814063040989 [Eh]
	 SCS Total Energy          =     -76.3415503225714787 [Eh]
    Molecular point group: c1
  Basis Set: AUG-CC-PVQZ
    Blend: AUG-CC-PVQZ
  Basis Set: (AUG-CC-PVQZ AUX)
    Blend: AUG-CC-PVQZ-JKFIT
  @DF-RHF Final Energy:   -76.06571931124316
    Total Energy =                        -76.0657193112431571
  Basis Set: (AUG-CC-PVQZ AUX)
  @DF-RHF Final Energy:   -76.06042616953637
    Total Energy =                        -76.0604261695363704
  @DF-RHF Final Energy:   -76.06575756581429
    Total Energy =                        -76.0657575658142946
  @DF-RHF Final Energy:  -499.14895908822035
    Total Energy =                       -499.1489590882203515
  @DF-RHF Final Energy:  -499.15497510181905
    Total Energy =                       -499.1549751018190477
  @DF-RHF Final Energy:  -499.14887814065605
    Total Energy =                       -499.1488781406560520
  @DF-RHF Final Energy:  -499.15495233973263
    Total Energy =                       -499.1549523397326311
  Multiplicity = 1
  @DF-RHF Final Energy:  -575.19346502769440
    Total Energy =                       -575.1934650276944012
	 Singles Energy            =      -0.0000000000000000 [Eh]
	 Same-Spin Energy          =      -0.1735472339920587 [Eh]
	 Opposite-Spin Energy      =      -0.5577048142491483 [Eh]
	 Correlation Energy        =      -0.7312520482412070 [Eh]
	 Total Energy              =    -575.9247170759356322 [Eh]
	 SCS Total Energy          =    -575.9205598827907124 [Eh]
    Molecular point group: c1

    Geometry (in Angstrom), charge = 0, multiplicity = 1:

       Center              X                  Y                   Z               Mass
    ------------   -----------------  -----------------  -----------------  -----------------
         CL          -0.734391497450    -0.571132049202    -0.000920221524    34.968852682000
         C           -0.584856497450     1.207949950798    -0.007019221524    12.000000000000
         H            0.463828502550     1.458433950798    -0.110762221524     1.007825032230
         H           -1.159534497450     1.590551950798    -0.841634221524     1.007825032230
         H           -0.979669497450     1.582005950798     0.929656778476     1.007825032230
         O            1.904387502550     0.110264950798     0.017245778476    15.994914619570
         H            2.696270502550    -0.402056049202    -0.154963221524     1.007825032230
         H            1.200314502550    -0.545008049202     0.019505778476     1.007825032230

  Charge       = 0
  Multiplicity = 1
  Basis Set: AUG-CC-PVQZ
    Blend: AUG-CC-PVQZ
  Basis Set: (AUG-CC-PVQZ AUX)
    Blend: AUG-CC-PVQZ-JKFIT

    Orbital Energies [Eh]
    ---------------------

    Doubly Occupied:

       1A   -104.831143     2A    -20.545537     3A    -11.278599
       4A    -10.558065     5A     -8.025029     6A     -8.023670
       7A     -8.023454     8A     -1.344748     9A     -1.136825
      10A     -0.915721    11A     -0.725456    12A     -0.615946
      13A     -0.614821    14A     -0.569010    15A     -0.549838
      16A     -0.499516    17A     -0.443935    18A     -0.441281

  @DF-RHF Final Energy:  -575.20486591838494

   => Energetics <=

    Nuclear Repulsion Energy =            111.2765143913461543
    One-Electron Energy =               -1014.6775720100322360
    Two-Electron Energy =                 328.1961917003011422
    Total Energy =                       -575.2048659183849395

  Dipole Moment: [D]
     X:     0.1482      Y:     0.3623      Z:    -0.3033     Total:     0.4952

  Basis Set: (AUG-CC-PVQZ AUX)
    Blend: AUG-CC-PVQZ-RI
	 Reference Energy          =    -575.2048659183849395 [Eh]
	 Singles Energy            =      -0.0000000000000000 [Eh]
	 Same-Spin Energy          =      -0.1902232904182718 [Eh]
	 Opposite-Spin Energy      =      -0.6385316976971620 [Eh]
	 Correlation Energy        =      -0.8287549881154338 [Eh]
	 Total Energy              =    -576.0336209065003459 [Eh]

	 ================> DF-SCS-MP2 Energies <==================
	-----------------------------------------------------------
	 SCS Same-Spin Scale       =       0.3333333333333333 [-]
	 SCS Opposite-Spin Scale   =       1.2000000000000000 [-]
	 SCS Same-Spin Energy      =      -0.0634077634727573 [Eh]
	 SCS Opposite-Spin Energy  =      -0.7662380372365943 [Eh]
	 SCS Correlation Energy    =      -0.8296458007093516 [Eh]
	 SCS Total Energy          =    -576.0345117190943256 [Eh]
	-----------------------------------------------------------

*** Psi4 exiting successfully. Buy a developer a beer!
