                               Psi4 1.4a2.dev224

  ==> Input File <==

--------------------------------------------------------------------------
#Generated by lconvert.py for cbs job

memory 40 GB

molecule  {
0 1
 Cl       -0.9515890    -0.6340730     0.0005530
  C       -0.8020540     1.1450090    -0.0055460
  H        0.2466310     1.3954930    -0.1092890
  H       -1.3767320     1.5276110    -0.8401610
  H       -1.1968670     1.5190650     0.9311300
--
0 1
  O        2.3230880     0.0635240     0.0212910
  H        3.1149710    -0.4487970    -0.1509180
  H        1.6190150    -0.5917490     0.0235510
units angstrom
no_reorient
symmetry c1
}

set {
scf_type DF
mp2_type DF
e_convergence 7
reference rhf
}

energy('mp2/aug-cc-pv[tq]z', bsse_type='cp')
--------------------------------------------------------------------------

    Molecular point group: c1
  Charge       = 0
  Multiplicity = 1
  Basis Set: AUG-CC-PVTZ
    Blend: AUG-CC-PVTZ
  Basis Set: (AUG-CC-PVTZ AUX)
    Blend: AUG-CC-PVTZ-JKFIT
  @DF-RHF Final Energy:   -76.06034091752569
    Total Energy =                        -76.0603409175256786
  Basis Set: (AUG-CC-PVTZ AUX)
    Blend: AUG-CC-PVTZ-RI
	 Reference Energy          =     -76.0603409175256928 [Eh]
	 Singles Energy            =      -0.0000000000000000 [Eh]
	 Same-Spin Energy          =      -0.0683990555654699 [Eh]
	 Opposite-Spin Energy      =      -0.2153414332217363 [Eh]
	 Correlation Energy        =      -0.2837404887872062 [Eh]
	 Total Energy              =     -76.3440814063128954 [Eh]
	 SCS Total Energy          =     -76.3415503225802610 [Eh]
    Molecular point group: c1
  Basis Set: AUG-CC-PVQZ
    Blend: AUG-CC-PVQZ
  Basis Set: (AUG-CC-PVQZ AUX)
    Blend: AUG-CC-PVQZ-JKFIT
  @DF-RHF Final Energy:   -76.06571931122288
    Total Energy =                        -76.0657193112228924
  Basis Set: (AUG-CC-PVQZ AUX)
  @DF-RHF Final Energy:   -76.06039111174971
    Total Energy =                        -76.0603911117497091
  @DF-RHF Final Energy:   -76.06574093368053
    Total Energy =                        -76.0657409336805301
  @DF-RHF Final Energy:  -499.14892485081907
    Total Energy =                       -499.1489248508190713
  @DF-RHF Final Energy:  -499.15496618702446
    Total Energy =                       -499.1549661870244563
  @DF-RHF Final Energy:  -499.14887814073069
    Total Energy =                       -499.1488781407306874
  @DF-RHF Final Energy:  -499.15495233962076
    Total Energy =                       -499.1549523396207633
  Multiplicity = 1
  @DF-RHF Final Energy:  -575.21201399293079
    Total Energy =                       -575.2120139929307925
	 Singles Energy            =      -0.0000000000000000 [Eh]
	 Same-Spin Energy          =      -0.1696768517656924 [Eh]
	 Opposite-Spin Energy      =      -0.5533283029894938 [Eh]
	 Correlation Energy        =      -0.7230051547551861 [Eh]
	 Total Energy              =    -575.9350191476860346 [Eh]
	 SCS Total Energy          =    -575.9325669071067750 [Eh]
    Molecular point group: c1

    Geometry (in Angstrom), charge = 0, multiplicity = 1:

       Center              X                  Y                   Z               Mass
    ------------   -----------------  -----------------  -----------------  -----------------
         CL          -0.902809069801    -0.575422618872    -0.001601415671    34.968852682000
         C           -0.753274069801     1.203659381128    -0.007700415671    12.000000000000
         H            0.295410930199     1.454143381128    -0.111443415671     1.007825032230
         H           -1.327952069801     1.586261381128    -0.842315415671     1.007825032230
         H           -1.148087069801     1.577715381128     0.928975584329     1.007825032230
         O            2.371867930199     0.122174381128     0.019136584329    15.994914619570
         H            3.163750930199    -0.390146618872    -0.153072415671     1.007825032230
         H            1.667794930199    -0.533098618872     0.021396584329     1.007825032230

  Charge       = 0
  Multiplicity = 1
  Basis Set: AUG-CC-PVQZ
    Blend: AUG-CC-PVQZ
  Basis Set: (AUG-CC-PVQZ AUX)
    Blend: AUG-CC-PVQZ-JKFIT

    Orbital Energies [Eh]
    ---------------------

    Doubly Occupied:

       1A   -104.829311     2A    -20.560266     3A    -11.285130
       4A    -10.555017     5A     -8.022124     6A     -8.020512
       7A     -8.020477     8A     -1.348553     9A     -1.131479
      10A     -0.915198    11A     -0.715087    12A     -0.617484
      13A     -0.615867    14A     -0.583381    15A     -0.547336
      16A     -0.507189    17A     -0.442194    18A     -0.440549

  @DF-RHF Final Energy:  -575.22341410278364

   => Energetics <=

    Nuclear Repulsion Energy =            101.9342047045026760
    One-Electron Energy =                -996.0009184814376795
    Two-Electron Energy =                 318.8432996741512966
    Total Energy =                       -575.2234141027836358

  Dipole Moment: [D]
     X:     0.2380      Y:     0.3274      Z:    -0.2945     Total:     0.5006

  Basis Set: (AUG-CC-PVQZ AUX)
    Blend: AUG-CC-PVQZ-RI
	 Reference Energy          =    -575.2234141027836358 [Eh]
	 Singles Energy            =      -0.0000000000000000 [Eh]
	 Same-Spin Energy          =      -0.1863485375884220 [Eh]
	 Opposite-Spin Energy      =      -0.6343242679722327 [Eh]
	 Correlation Energy        =      -0.8206728055606547 [Eh]
	 Total Energy              =    -576.0440869083442976 [Eh]

	 ================> DF-SCS-MP2 Energies <==================
	-----------------------------------------------------------
	 SCS Same-Spin Scale       =       0.3333333333333333 [-]
	 SCS Opposite-Spin Scale   =       1.2000000000000000 [-]
	 SCS Same-Spin Energy      =      -0.0621161791961407 [Eh]
	 SCS Opposite-Spin Energy  =      -0.7611891215666793 [Eh]
	 SCS Correlation Energy    =      -0.8233053007628199 [Eh]
	 SCS Total Energy          =    -576.0467194035464900 [Eh]
	-----------------------------------------------------------

*** Psi4 exiting successfully. Buy a developer a beer!
