                               Psi4 1.4a2.dev224

  ==> Input File <==

--------------------------------------------------------------------------
#Generated by lconvert.py for cbs job

memory 40 GB

molecule  {
0 1
 Cl       -0.9515890    -0.6340730     0.0005530
  C       -0.8020540     1.1450090    -0.0055460
  H        0.2466310     1.3954930    -0.1092890
  H       -1.3767320     1.5276110    -0.8401610
  H       -1.1968670     1.5190650     0.9311300
--
0 1
  O        2.7261220     0.0737920     0.0229210
  H        3.5180050    -0.4385290    -0.1492880
  H        2.0220490    -0.5814810     0.0251810
units angstrom
no_reorient
symmetry c1
}

set {
scf_type DF
mp2_type DF
e_convergence 7
reference rhf
}

energy('mp2/aug-cc-pv[tq]z', bsse_type='cp')
--------------------------------------------------------------------------

    Molecular point group: c1
  Charge       = 0
  Multiplicity = 1
  Basis Set: AUG-CC-PVTZ
    Blend: AUG-CC-PVTZ
  Basis Set: (AUG-CC-PVTZ AUX)
    Blend: AUG-CC-PVTZ-JKFIT
  @DF-RHF Final Energy:   -76.06034091753668
    Total Energy =                        -76.0603409175366778
  Basis Set: (AUG-CC-PVTZ AUX)
    Blend: AUG-CC-PVTZ-RI
	 Reference Energy          =     -76.0603409175366778 [Eh]
	 Singles Energy            =      -0.0000000000000000 [Eh]
	 Same-Spin Energy          =      -0.0683990555654493 [Eh]
	 Opposite-Spin Energy      =      -0.2153414332216844 [Eh]
	 Correlation Energy        =      -0.2837404887871337 [Eh]
	 Total Energy              =     -76.3440814063238093 [Eh]
	 SCS Total Energy          =     -76.3415503225911891 [Eh]
    Molecular point group: c1
  Basis Set: AUG-CC-PVQZ
    Blend: AUG-CC-PVQZ
  Basis Set: (AUG-CC-PVQZ AUX)
    Blend: AUG-CC-PVQZ-JKFIT
  @DF-RHF Final Energy:   -76.06571931122048
    Total Energy =                        -76.0657193112204908
  Basis Set: (AUG-CC-PVQZ AUX)
  @DF-RHF Final Energy:   -76.06037491033372
    Total Energy =                        -76.0603749103337066
  @DF-RHF Final Energy:   -76.06573288179314
    Total Energy =                        -76.0657328817931386
  @DF-RHF Final Energy:  -499.14891165612414
    Total Energy =                       -499.1489116561241417
  @DF-RHF Final Energy:  -499.15496259530573
    Total Energy =                       -499.1549625953057330
  @DF-RHF Final Energy:  -499.14887814066350
    Total Energy =                       -499.1488781406634985
  @DF-RHF Final Energy:  -499.15495233968204
    Total Energy =                       -499.1549523396820405
  Multiplicity = 1
  @DF-RHF Final Energy:  -575.21235209650263
    Total Energy =                       -575.2123520965026273
	 Singles Energy            =      -0.0000000000000000 [Eh]
	 Same-Spin Energy          =      -0.1687115973346429 [Eh]
	 Opposite-Spin Energy      =      -0.5521695906755446 [Eh]
	 Correlation Energy        =      -0.7208811880101875 [Eh]
	 Total Energy              =    -575.9332332845127667 [Eh]
	 SCS Total Energy          =    -575.9311928044248816 [Eh]
    Molecular point group: c1

    Geometry (in Angstrom), charge = 0, multiplicity = 1:

       Center              X                  Y                   Z               Mass
    ------------   -----------------  -----------------  -----------------  -----------------
         CL          -1.009552616495    -0.578142098463    -0.002033121138    34.968852682000
         C           -0.860017616495     1.200939901537    -0.008132121138    12.000000000000
         H            0.188667383505     1.451423901537    -0.111875121138     1.007825032230
         H           -1.434695616495     1.583541901537    -0.842747121138     1.007825032230
         H           -1.254830616495     1.574995901537     0.928543878862     1.007825032230
         O            2.668158383505     0.129722901537     0.020334878862    15.994914619570
         H            3.460041383505    -0.382598098463    -0.151874121138     1.007825032230
         H            1.964085383505    -0.525550098463     0.022594878862     1.007825032230

  Charge       = 0
  Multiplicity = 1
  Basis Set: AUG-CC-PVQZ
    Blend: AUG-CC-PVQZ
  Basis Set: (AUG-CC-PVQZ AUX)
    Blend: AUG-CC-PVQZ-JKFIT

    Orbital Energies [Eh]
    ---------------------

    Doubly Occupied:

       1A   -104.827952     2A    -20.563158     3A    -11.286905
       4A    -10.553512     5A     -8.020632     6A     -8.018980
       7A     -8.018964     8A     -1.350107     9A     -1.130138
      10A     -0.915493    11A     -0.714322    12A     -0.618267
      13A     -0.617763    14A     -0.585003    15A     -0.546624
      16A     -0.509009    17A     -0.440402    18A     -0.439191

  @DF-RHF Final Energy:  -575.22376028365568

   => Energetics <=

    Nuclear Repulsion Energy =             97.5660541772980423
    One-Electron Energy =                -987.2667782157791407
    Two-Electron Energy =                 314.4769637548254195
    Total Energy =                       -575.2237602836556789

  Dipole Moment: [D]
     X:     0.2668      Y:     0.2965      Z:    -0.2920     Total:     0.4944

  Basis Set: (AUG-CC-PVQZ AUX)
    Blend: AUG-CC-PVQZ-RI
	 Reference Energy          =    -575.2237602836556789 [Eh]
	 Singles Energy            =      -0.0000000000000000 [Eh]
	 Same-Spin Energy          =      -0.1853865645334124 [Eh]
	 Opposite-Spin Energy      =      -0.6332856182905042 [Eh]
	 Correlation Energy        =      -0.8186721828239166 [Eh]
	 Total Energy              =    -576.0424324664795677 [Eh]

	 ================> DF-SCS-MP2 Energies <==================
	-----------------------------------------------------------
	 SCS Same-Spin Scale       =       0.3333333333333333 [-]
	 SCS Opposite-Spin Scale   =       1.2000000000000000 [-]
	 SCS Same-Spin Energy      =      -0.0617955215111375 [Eh]
	 SCS Opposite-Spin Energy  =      -0.7599427419486050 [Eh]
	 SCS Correlation Energy    =      -0.8217382634597424 [Eh]
	 SCS Total Energy          =    -576.0454985471154714 [Eh]
	-----------------------------------------------------------

*** Psi4 exiting successfully. Buy a developer a beer!
