                               Psi4 1.4a2.dev224

  ==> Input File <==

--------------------------------------------------------------------------
#Generated by lconvert.py for cbs job

memory 40 GB

molecule  {
0 1
 Cl       -0.9515890    -0.6340730     0.0005530
  C       -0.8020540     1.1450090    -0.0055460
  H        0.2466310     1.3954930    -0.1092890
  H       -1.3767320     1.5276110    -0.8401610
  H       -1.1968670     1.5190650     0.9311300
--
0 1
  O        1.9562930     0.0541790     0.0198070
  H        2.7481760    -0.4581420    -0.1524020
  H        1.2522200    -0.6010940     0.0220670
units angstrom
no_reorient
symmetry c1
}

set {
scf_type DF
mp2_type DF
e_convergence 7
reference rhf
}

energy('mp2/aug-cc-pv[tq]z', bsse_type='cp')
--------------------------------------------------------------------------

    Molecular point group: c1
  Charge       = 0
  Multiplicity = 1
  Basis Set: AUG-CC-PVTZ
    Blend: AUG-CC-PVTZ
  Basis Set: (AUG-CC-PVTZ AUX)
    Blend: AUG-CC-PVTZ-JKFIT
  @DF-RHF Final Energy:   -76.06034091751934
    Total Energy =                        -76.0603409175193406
  Basis Set: (AUG-CC-PVTZ AUX)
    Blend: AUG-CC-PVTZ-RI
	 Reference Energy          =     -76.0603409175193406 [Eh]
	 Singles Energy            =      -0.0000000000000000 [Eh]
	 Same-Spin Energy          =      -0.0683990555654694 [Eh]
	 Opposite-Spin Energy      =      -0.2153414332217586 [Eh]
	 Correlation Energy        =      -0.2837404887872280 [Eh]
	 Total Energy              =     -76.3440814063065716 [Eh]
	 SCS Total Energy          =     -76.3415503225739371 [Eh]
    Molecular point group: c1
  Basis Set: AUG-CC-PVQZ
    Blend: AUG-CC-PVQZ
  Basis Set: (AUG-CC-PVQZ AUX)
    Blend: AUG-CC-PVQZ-JKFIT
  @DF-RHF Final Energy:   -76.06571931122434
    Total Energy =                        -76.0657193112243419
  Basis Set: (AUG-CC-PVQZ AUX)
  @DF-RHF Final Energy:   -76.06040880718776
    Total Energy =                        -76.0604088071877698
  @DF-RHF Final Energy:   -76.06575007031809
    Total Energy =                        -76.0657500703180887
  @DF-RHF Final Energy:  -499.14894058305367
    Total Energy =                       -499.1489405830536725
  @DF-RHF Final Energy:  -499.15497026878114
    Total Energy =                       -499.1549702687811987
  @DF-RHF Final Energy:  -499.14887814066890
    Total Energy =                       -499.1488781406688986
  @DF-RHF Final Energy:  -499.15495233953766
    Total Energy =                       -499.1549523395376582
  Multiplicity = 1
  @DF-RHF Final Energy:  -575.20690300761271
    Total Energy =                       -575.2069030076127092
	 Singles Energy            =      -0.0000000000000000 [Eh]
	 Same-Spin Energy          =      -0.1713836974109545 [Eh]
	 Opposite-Spin Energy      =      -0.5552568496498022 [Eh]
	 Correlation Energy        =      -0.7266405470607566 [Eh]
	 Total Energy              =    -575.9335435546735198 [Eh]
	 SCS Total Energy          =    -575.9303391263294998 [Eh]
    Molecular point group: c1

    Geometry (in Angstrom), charge = 0, multiplicity = 1:

       Center              X                  Y                   Z               Mass
    ------------   -----------------  -----------------  -----------------  -----------------
         CL          -0.805663421520    -0.572947595812    -0.001208378302    34.968852682000
         C           -0.656128421520     1.206134404188    -0.007307378302    12.000000000000
         H            0.392556578480     1.456618404188    -0.111050378302     1.007825032230
         H           -1.230806421520     1.588736404188    -0.841922378302     1.007825032230
         H           -1.050941421520     1.580190404188     0.929368621698     1.007825032230
         O            2.102218578480     0.115304404188     0.018045621698    15.994914619570
         H            2.894101578480    -0.397016595812    -0.154163378302     1.007825032230
         H            1.398145578480    -0.539968595812     0.020305621698     1.007825032230

  Charge       = 0
  Multiplicity = 1
  Basis Set: AUG-CC-PVQZ
    Blend: AUG-CC-PVQZ
  Basis Set: (AUG-CC-PVQZ AUX)
    Blend: AUG-CC-PVQZ-JKFIT

    Orbital Energies [Eh]
    ---------------------

    Doubly Occupied:

       1A   -104.830526     2A    -20.554233     3A    -11.282119
       4A    -10.556662     5A     -8.023724     6A     -8.022201
       7A     -8.022110     8A     -1.346317     9A     -1.133738
      10A     -0.915057    11A     -0.718759    12A     -0.616419
      13A     -0.613838    14A     -0.578546    15A     -0.548382
      16A     -0.503769    17A     -0.443251    18A     -0.442278

  @DF-RHF Final Energy:  -575.21829055385001

   => Energetics <=

    Nuclear Repulsion Energy =            106.8714767298554733
    One-Electron Energy =               -1005.8756764056714701
    Two-Electron Energy =                 323.7859091219660286
    Total Energy =                       -575.2182905538500108

  Dipole Moment: [D]
     X:     0.1964      Y:     0.3523      Z:    -0.2988     Total:     0.5020

  Basis Set: (AUG-CC-PVQZ AUX)
    Blend: AUG-CC-PVQZ-RI
	 Reference Energy          =    -575.2182905538500108 [Eh]
	 Singles Energy            =      -0.0000000000000000 [Eh]
	 Same-Spin Energy          =      -0.1880618047340183 [Eh]
	 Opposite-Spin Energy      =      -0.6361799910360384 [Eh]
	 Correlation Energy        =      -0.8242417957700567 [Eh]
	 Total Energy              =    -576.0425323496200463 [Eh]

	 ================> DF-SCS-MP2 Energies <==================
	-----------------------------------------------------------
	 SCS Same-Spin Scale       =       0.3333333333333333 [-]
	 SCS Opposite-Spin Scale   =       1.2000000000000000 [-]
	 SCS Same-Spin Energy      =      -0.0626872682446728 [Eh]
	 SCS Opposite-Spin Energy  =      -0.7634159892432461 [Eh]
	 SCS Correlation Energy    =      -0.8261032574879188 [Eh]
	 SCS Total Energy          =    -576.0443938113379545 [Eh]
	-----------------------------------------------------------

*** Psi4 exiting successfully. Buy a developer a beer!
