                               Psi4 1.4a2.dev224

  ==> Input File <==

--------------------------------------------------------------------------
#Generated by lconvert.py for cbs job

memory 20 GB

molecule  {
0 1
 Cl      -0.951590   -0.634070    0.000550
  C      -0.802050    1.145010   -0.005550
  H       0.246630    1.395490   -0.109290
  H      -1.376730    1.527610   -0.840160
  H      -1.196870    1.519070    0.931130
--
0 1
  O       3.935190    0.104600    0.027810
  H       4.727070   -0.407720   -0.144400
  H       3.231110   -0.550680    0.030070
units angstrom
no_reorient
symmetry c1
}

set {
scf_type DF
mp2_type DF
e_convergence 7
reference rhf
}

energy('mp2/aug-cc-pv[tq]z', bsse_type='cp')
--------------------------------------------------------------------------

    Molecular point group: c1
  Charge       = 0
  Multiplicity = 1
  Basis Set: AUG-CC-PVTZ
    Blend: AUG-CC-PVTZ
  Basis Set: (AUG-CC-PVTZ AUX)
    Blend: AUG-CC-PVTZ-JKFIT
  @DF-RHF Final Energy:   -76.06034060555407
    Total Energy =                        -76.0603406055540745
  Basis Set: (AUG-CC-PVTZ AUX)
    Blend: AUG-CC-PVTZ-RI
	 Reference Energy          =     -76.0603406055540745 [Eh]
	 Singles Energy            =      -0.0000000000000000 [Eh]
	 Same-Spin Energy          =      -0.0683991183286355 [Eh]
	 Opposite-Spin Energy      =      -0.2153416253315737 [Eh]
	 Correlation Energy        =      -0.2837407436602093 [Eh]
	 Total Energy              =     -76.3440813492142780 [Eh]
	 SCS Total Energy          =     -76.3415502620615030 [Eh]
    Molecular point group: c1
  Basis Set: AUG-CC-PVQZ
    Blend: AUG-CC-PVQZ
  Basis Set: (AUG-CC-PVQZ AUX)
    Blend: AUG-CC-PVQZ-JKFIT
  @DF-RHF Final Energy:   -76.06571898163202
    Total Energy =                        -76.0657189816320169
  Basis Set: (AUG-CC-PVQZ AUX)
  @DF-RHF Final Energy:   -76.06034882135413
    Total Energy =                        -76.0603488213541254
  @DF-RHF Final Energy:   -76.06572266558379
    Total Energy =                        -76.0657226655837917
  @DF-RHF Final Energy:  -499.14888489375545
    Total Energy =                       -499.1488848937554508
  @DF-RHF Final Energy:  -499.15495584469721
    Total Energy =                       -499.1549558446972128
  @DF-RHF Final Energy:  -499.14887814987958
    Total Energy =                       -499.1488781498795788
  @DF-RHF Final Energy:  -499.15495235415102
    Total Energy =                       -499.1549523541510212
  Multiplicity = 1
  @DF-RHF Final Energy:  -575.21051524925656
    Total Energy =                       -575.2105152492564457
	 Singles Energy            =      -0.0000000000000000 [Eh]
	 Same-Spin Energy          =      -0.1678585730197134 [Eh]
	 Opposite-Spin Energy      =      -0.5510838751189600 [Eh]
	 Correlation Energy        =      -0.7189424481386733 [Eh]
	 Total Energy              =    -575.9294576973952644 [Eh]
	 SCS Total Energy          =    -575.9277687570724993 [Eh]
    Molecular point group: c1

    Geometry (in Angstrom), charge = 0, multiplicity = 1:

       Center              X                  Y                   Z               Mass
    ------------   -----------------  -----------------  -----------------  -----------------
         CL          -1.329775265457    -0.586300241675    -0.003328709338    34.968852682000
         C           -1.180235265457     1.192779758325    -0.009428709338    12.000000000000
         H           -0.131555265457     1.443259758325    -0.113168709338     1.007825032230
         H           -1.754915265457     1.575379758325    -0.844038709338     1.007825032230
         H           -1.575055265457     1.566839758325     0.927251290662     1.007825032230
         O            3.557004734543     0.152369758325     0.023931290662    15.994914619570
         H            4.348884734543    -0.359950241675    -0.148278709338     1.007825032230
         H            2.852924734543    -0.502910241675     0.026191290662     1.007825032230

  Charge       = 0
  Multiplicity = 1
  Basis Set: AUG-CC-PVQZ
    Blend: AUG-CC-PVQZ
  Basis Set: (AUG-CC-PVQZ AUX)
    Blend: AUG-CC-PVQZ-JKFIT

    Orbital Energies [Eh]
    ---------------------

    Doubly Occupied:

       1A   -104.825492     2A    -20.565301     3A    -11.288566
       4A    -10.550983     5A     -8.018108     6A     -8.016416
       7A     -8.016413     8A     -1.351601     9A     -1.128354
      10A     -0.915763    11A     -0.714942    12A     -0.619582
      13A     -0.618927    14A     -0.585821    15A     -0.545420
      16A     -0.510425    17A     -0.437500    18A     -0.437081

  @DF-RHF Final Energy:  -575.22195059337059

   => Energetics <=

    Nuclear Repulsion Energy =             88.5958559564916044
    One-Electron Energy =                -969.3422145341614851
    Two-Electron Energy =                 305.5244079842992733
    Total Energy =                       -575.2219505933705932

  Dipole Moment: [D]
     X:     0.3065      Y:     0.2296      Z:    -0.2906     Total:     0.4808

  Basis Set: (AUG-CC-PVQZ AUX)
    Blend: AUG-CC-PVQZ-RI
	 Reference Energy          =    -575.2219505933705932 [Eh]
	 Singles Energy            =      -0.0000000000000000 [Eh]
	 Same-Spin Energy          =      -0.1845806520293901 [Eh]
	 Opposite-Spin Energy      =      -0.6324565026927146 [Eh]
	 Correlation Energy        =      -0.8170371547221047 [Eh]
	 Total Energy              =    -576.0389877480927225 [Eh]

	 ================> DF-SCS-MP2 Energies <==================
	-----------------------------------------------------------
	 SCS Same-Spin Scale       =       0.3333333333333333 [-]
	 SCS Opposite-Spin Scale   =       1.2000000000000000 [-]
	 SCS Same-Spin Energy      =      -0.0615268840097967 [Eh]
	 SCS Opposite-Spin Energy  =      -0.7589478032312574 [Eh]
	 SCS Correlation Energy    =      -0.8204746872410541 [Eh]
	 SCS Total Energy          =    -576.0424252806116101 [Eh]
	-----------------------------------------------------------

*** Psi4 exiting successfully. Buy a developer a beer!
