                               Psi4 1.4a2.dev224

  ==> Input File <==

--------------------------------------------------------------------------
#Generated by lconvert.py for cbs job

memory 40 GB

molecule  {
0 1
 Cl       -0.9515890    -0.6340730     0.0005530
  C       -0.8020540     1.1450090    -0.0055460
  H        0.2466310     1.3954930    -0.1092890
  H       -1.3767320     1.5276110    -0.8401610
  H       -1.1968670     1.5190650     0.9311300
--
0 1
  O        1.4453770     0.0411630     0.0177410
  H        2.2372600    -0.4711580    -0.1544680
  H        0.7413040    -0.6141100     0.0200010
units angstrom
no_reorient
symmetry c1
}

set {
scf_type DF
mp2_type DF
e_convergence 7
reference rhf
}

energy('mp2/aug-cc-pv[tq]z', bsse_type='cp')
--------------------------------------------------------------------------

    Molecular point group: c1
  Charge       = 0
  Multiplicity = 1
  Basis Set: AUG-CC-PVTZ
    Blend: AUG-CC-PVTZ
  Basis Set: (AUG-CC-PVTZ AUX)
    Blend: AUG-CC-PVTZ-JKFIT
  @DF-RHF Final Energy:   -76.06034091753708
    Total Energy =                        -76.0603409175370757
  Basis Set: (AUG-CC-PVTZ AUX)
    Blend: AUG-CC-PVTZ-RI
	 Reference Energy          =     -76.0603409175370757 [Eh]
	 Singles Energy            =      -0.0000000000000000 [Eh]
	 Same-Spin Energy          =      -0.0683990555654580 [Eh]
	 Opposite-Spin Energy      =      -0.2153414332216994 [Eh]
	 Correlation Energy        =      -0.2837404887871574 [Eh]
	 Total Energy              =     -76.3440814063242357 [Eh]
	 SCS Total Energy          =     -76.3415503225916012 [Eh]
    Molecular point group: c1
  Basis Set: AUG-CC-PVQZ
    Blend: AUG-CC-PVQZ
  Basis Set: (AUG-CC-PVQZ AUX)
    Blend: AUG-CC-PVQZ-JKFIT
  @DF-RHF Final Energy:   -76.06571931122801
    Total Energy =                        -76.0657193112280083
  Basis Set: (AUG-CC-PVQZ AUX)
  @DF-RHF Final Energy:   -76.06044598626210
    Total Energy =                        -76.0604459862620956
  @DF-RHF Final Energy:   -76.06576539399801
    Total Energy =                        -76.0657653939979923
  @DF-RHF Final Energy:  -499.14897608599767
    Total Energy =                       -499.1489760859976741
  @DF-RHF Final Energy:  -499.15498167608365
    Total Energy =                       -499.1549816760836507
  @DF-RHF Final Energy:  -499.14887814069345
    Total Energy =                       -499.1488781406934550
  @DF-RHF Final Energy:  -499.15495233959854
    Total Energy =                       -499.1549523395985375
  Multiplicity = 1
  @DF-RHF Final Energy:  -575.16354722706592
    Total Energy =                       -575.1635472270659193
	 Singles Energy            =      -0.0000000000000000 [Eh]
	 Same-Spin Energy          =      -0.1765117846109275 [Eh]
	 Opposite-Spin Energy      =      -0.5612089276123592 [Eh]
	 Correlation Energy        =      -0.7377207122232867 [Eh]
	 Total Energy              =    -575.9012679392892551 [Eh]
	 SCS Total Energy          =    -575.8958352017377820 [Eh]
    Molecular point group: c1

    Geometry (in Angstrom), charge = 0, multiplicity = 1:

       Center              X                  Y                   Z               Mass
    ------------   -----------------  -----------------  -----------------  -----------------
         CL          -0.670347329324    -0.569500308478    -0.000661198244    34.968852682000
         C           -0.520812329324     1.209581691522    -0.006760198244    12.000000000000
         H            0.527872670676     1.460065691522    -0.110503198244     1.007825032230
         H           -1.095490329324     1.592183691522    -0.841375198244     1.007825032230
         H           -0.915625329324     1.583637691522     0.929915801756     1.007825032230
         O            1.726618670676     0.105735691522     0.016526801756    15.994914619570
         H            2.518501670676    -0.406585308478    -0.155682198244     1.007825032230
         H            1.022545670676    -0.549537308478     0.018786801756     1.007825032230

  Charge       = 0
  Multiplicity = 1
  Basis Set: AUG-CC-PVQZ
    Blend: AUG-CC-PVQZ
  Basis Set: (AUG-CC-PVQZ AUX)
    Blend: AUG-CC-PVQZ-JKFIT

    Orbital Energies [Eh]
    ---------------------

    Doubly Occupied:

       1A   -104.831375     2A    -20.532442     3A    -11.274266
       4A    -10.559743     5A     -8.026501     6A     -8.025469
       7A     -8.024974     8A     -1.345649     9A     -1.141385
      10A     -0.918259    11A     -0.735750    12A     -0.622888
      13A     -0.615089    14A     -0.554848    15A     -0.549963
      16A     -0.494409    17A     -0.445149    18A     -0.433841

  @DF-RHF Final Energy:  -575.17504170607049

   => Energetics <=

    Nuclear Repulsion Energy =            115.9779353682512806
    One-Electron Energy =               -1024.0419472462770045
    Two-Electron Energy =                 332.8889701719552363
    Total Energy =                       -575.1750417060704876

  Dipole Moment: [D]
     X:     0.0844      Y:     0.3598      Z:    -0.3081     Total:     0.4811

  Basis Set: (AUG-CC-PVQZ AUX)
    Blend: AUG-CC-PVQZ-RI
	 Reference Energy          =    -575.1750417060704876 [Eh]
	 Singles Energy            =      -0.0000000000000000 [Eh]
	 Same-Spin Energy          =      -0.1931943950840250 [Eh]
	 Opposite-Spin Energy      =      -0.6418841378958177 [Eh]
	 Correlation Energy        =      -0.8350785329798427 [Eh]
	 Total Energy              =    -576.0101202390503659 [Eh]

	 ================> DF-SCS-MP2 Energies <==================
	-----------------------------------------------------------
	 SCS Same-Spin Scale       =       0.3333333333333333 [-]
	 SCS Opposite-Spin Scale   =       1.2000000000000000 [-]
	 SCS Same-Spin Energy      =      -0.0643981316946750 [Eh]
	 SCS Opposite-Spin Energy  =      -0.7702609654749811 [Eh]
	 SCS Correlation Energy    =      -0.8346590971696561 [Eh]
	 SCS Total Energy          =    -576.0097008032400936 [Eh]
	-----------------------------------------------------------

*** Psi4 exiting successfully. Buy a developer a beer!
