                               Psi4 1.4a2.dev224

  ==> Input File <==

--------------------------------------------------------------------------
#Generated by lconvert.py for cbs job

memory 40 GB

molecule  {
0 1
 Cl       -0.9515890    -0.6340730     0.0005530
  C       -0.8020540     1.1450090    -0.0055460
  H        0.2466310     1.3954930    -0.1092890
  H       -1.3767320     1.5276110    -0.8401610
  H       -1.1968670     1.5190650     0.9311300
--
0 1
  O        2.5330810     0.0688740     0.0221400
  H        3.3249640    -0.4434470    -0.1500690
  H        1.8290080    -0.5863990     0.0244000
units angstrom
no_reorient
symmetry c1
}

set {
scf_type DF
mp2_type DF
e_convergence 7
reference rhf
}

energy('mp2/aug-cc-pv[tq]z', bsse_type='cp')
--------------------------------------------------------------------------

    Molecular point group: c1
  Charge       = 0
  Multiplicity = 1
  Basis Set: AUG-CC-PVTZ
    Blend: AUG-CC-PVTZ
  Basis Set: (AUG-CC-PVTZ AUX)
    Blend: AUG-CC-PVTZ-JKFIT
  @DF-RHF Final Energy:   -76.06034091753172
    Total Energy =                        -76.0603409175317182
  Basis Set: (AUG-CC-PVTZ AUX)
    Blend: AUG-CC-PVTZ-RI
	 Reference Energy          =     -76.0603409175317182 [Eh]
	 Singles Energy            =      -0.0000000000000000 [Eh]
	 Same-Spin Energy          =      -0.0683990555654606 [Eh]
	 Opposite-Spin Energy      =      -0.2153414332216748 [Eh]
	 Correlation Energy        =      -0.2837404887871354 [Eh]
	 Total Energy              =     -76.3440814063188498 [Eh]
	 SCS Total Energy          =     -76.3415503225862153 [Eh]
    Molecular point group: c1
  Basis Set: AUG-CC-PVQZ
    Blend: AUG-CC-PVQZ
  Basis Set: (AUG-CC-PVQZ AUX)
    Blend: AUG-CC-PVQZ-JKFIT
  @DF-RHF Final Energy:   -76.06571931123710
    Total Energy =                        -76.0657193112371033
  Basis Set: (AUG-CC-PVQZ AUX)
  @DF-RHF Final Energy:   -76.06038251086571
    Total Energy =                        -76.0603825108656935
  @DF-RHF Final Energy:   -76.06573615423882
    Total Energy =                        -76.0657361542388202
  @DF-RHF Final Energy:  -499.14891746545027
    Total Energy =                       -499.1489174654502676
  @DF-RHF Final Energy:  -499.15496420947181
    Total Energy =                       -499.1549642094718138
  @DF-RHF Final Energy:  -499.14887814074541
    Total Energy =                       -499.1488781407454098
  @DF-RHF Final Energy:  -499.15495233973968
    Total Energy =                       -499.1549523397396797
  Multiplicity = 1
  @DF-RHF Final Energy:  -575.21246814590791
    Total Energy =                       -575.2124681459079056
	 Singles Energy            =      -0.0000000000000000 [Eh]
	 Same-Spin Energy          =      -0.1690921615436586 [Eh]
	 Opposite-Spin Energy      =      -0.5526369792194350 [Eh]
	 Correlation Energy        =      -0.7217291407630937 [Eh]
	 Total Energy              =    -575.9341972866709511 [Eh]
	 SCS Total Energy          =    -575.9319965748190953 [Eh]
    Molecular point group: c1

    Geometry (in Angstrom), charge = 0, multiplicity = 1:

       Center              X                  Y                   Z               Mass
    ------------   -----------------  -----------------  -----------------  -----------------
         CL          -0.958425711575    -0.576839566263    -0.001826273304    34.968852682000
         C           -0.808890711575     1.202242433737    -0.007925273304    12.000000000000
         H            0.239794288425     1.452726433737    -0.111668273304     1.007825032230
         H           -1.383568711575     1.584844433737    -0.842540273304     1.007825032230
         H           -1.203703711575     1.576298433737     0.928750726696     1.007825032230
         O            2.526244288425     0.126107433737     0.019760726696    15.994914619570
         H            3.318127288425    -0.386213566263    -0.152448273304     1.007825032230
         H            1.822171288425    -0.529165566263     0.022020726696     1.007825032230

  Charge       = 0
  Multiplicity = 1
  Basis Set: AUG-CC-PVQZ
    Blend: AUG-CC-PVQZ
  Basis Set: (AUG-CC-PVQZ AUX)
    Blend: AUG-CC-PVQZ-JKFIT

    Orbital Energies [Eh]
    ---------------------

    Doubly Occupied:

       1A   -104.828580     2A    -20.562076     3A    -11.286202
       4A    -10.554189     5A     -8.021305     6A     -8.019668
       7A     -8.019645     8A     -1.349476     9A     -1.130690
      10A     -0.915363    11A     -0.714469    12A     -0.617939
      13A     -0.616998    14A     -0.584453    15A     -0.546934
      16A     -0.508311    17A     -0.441228    18A     -0.439782

  @DF-RHF Final Energy:  -575.22387246673043

   => Energetics <=

    Nuclear Repulsion Energy =             99.5407840928458967
    One-Electron Energy =                -991.2146864150889769
    Two-Electron Energy =                 316.4500298555126392
    Total Energy =                       -575.2238724667304268

  Dipole Moment: [D]
     X:     0.2546      Y:     0.3112      Z:    -0.2930     Total:     0.4975

  Basis Set: (AUG-CC-PVQZ AUX)
    Blend: AUG-CC-PVQZ-RI
	 Reference Energy          =    -575.2238724667304268 [Eh]
	 Singles Energy            =      -0.0000000000000000 [Eh]
	 Same-Spin Energy          =      -0.1857628294006071 [Eh]
	 Opposite-Spin Energy      =      -0.6336884786646984 [Eh]
	 Correlation Energy        =      -0.8194513080653055 [Eh]
	 Total Energy              =    -576.0433237747956809 [Eh]

	 ================> DF-SCS-MP2 Energies <==================
	-----------------------------------------------------------
	 SCS Same-Spin Scale       =       0.3333333333333333 [-]
	 SCS Opposite-Spin Scale   =       1.2000000000000000 [-]
	 SCS Same-Spin Energy      =      -0.0619209431335357 [Eh]
	 SCS Opposite-Spin Energy  =      -0.7604261743976380 [Eh]
	 SCS Correlation Energy    =      -0.8223471175311737 [Eh]
	 SCS Total Energy          =    -576.0462195842616211 [Eh]
	-----------------------------------------------------------

*** Psi4 exiting successfully. Buy a developer a beer!
