                               Psi4 1.4a2.dev224

  ==> Input File <==

--------------------------------------------------------------------------
#Generated by lconvert.py for cbs job

memory 20 GB

molecule  {
0 1
 Cl      -0.951590   -0.634070    0.000550
  C      -0.802050    1.145010   -0.005550
  H       0.246630    1.395490   -0.109290
  H      -1.376730    1.527610   -0.840160
  H      -1.196870    1.519070    0.931130
--
0 1
  O       3.209750    0.086110    0.024880
  H       4.001630   -0.426210   -0.147330
  H       2.505680   -0.569160    0.027140
units angstrom
no_reorient
symmetry c1
}

set {
scf_type DF
mp2_type DF
e_convergence 7
reference rhf
}

energy('mp2/aug-cc-pv[tq]z', bsse_type='cp')
--------------------------------------------------------------------------

    Molecular point group: c1
  Charge       = 0
  Multiplicity = 1
  Basis Set: AUG-CC-PVTZ
    Blend: AUG-CC-PVTZ
  Basis Set: (AUG-CC-PVTZ AUX)
    Blend: AUG-CC-PVTZ-JKFIT
  @DF-RHF Final Energy:   -76.06034118542148
    Total Energy =                        -76.0603411854214784
  Basis Set: (AUG-CC-PVTZ AUX)
    Blend: AUG-CC-PVTZ-RI
	 Reference Energy          =     -76.0603411854214784 [Eh]
	 Singles Energy            =      -0.0000000000000000 [Eh]
	 Same-Spin Energy          =      -0.0683989947920379 [Eh]
	 Opposite-Spin Energy      =      -0.2153412474756606 [Eh]
	 Correlation Energy        =      -0.2837402422676986 [Eh]
	 Total Energy              =     -76.3440814276891757 [Eh]
	 SCS Total Energy          =     -76.3415503473229506 [Eh]
    Molecular point group: c1
  Basis Set: AUG-CC-PVQZ
    Blend: AUG-CC-PVQZ
  Basis Set: (AUG-CC-PVQZ AUX)
    Blend: AUG-CC-PVQZ-JKFIT
  @DF-RHF Final Energy:   -76.06571959713138
    Total Energy =                        -76.0657195971313627
  Basis Set: (AUG-CC-PVQZ AUX)
  @DF-RHF Final Energy:   -76.06035720394043
    Total Energy =                        -76.0603572039404128
  @DF-RHF Final Energy:   -76.06572822264418
    Total Energy =                        -76.0657282226441964
  @DF-RHF Final Energy:  -499.14890012557800
    Total Energy =                       -499.1489001255779954
  @DF-RHF Final Energy:  -499.15495935366471
    Total Energy =                       -499.1549593536647080
  @DF-RHF Final Energy:  -499.14887814987799
    Total Energy =                       -499.1488781498779872
  @DF-RHF Final Energy:  -499.15495235412595
    Total Energy =                       -499.1549523541259532
  Multiplicity = 1
  @DF-RHF Final Energy:  -575.21150989132559
    Total Energy =                       -575.2115098913254769
	 Singles Energy            =      -0.0000000000000000 [Eh]
	 Same-Spin Energy          =      -0.1681624303447026 [Eh]
	 Opposite-Spin Energy      =      -0.5514693913676209 [Eh]
	 Correlation Energy        =      -0.7196318217123234 [Eh]
	 Total Energy              =    -575.9311417130379596 [Eh]
	 SCS Total Energy          =    -575.9293273044149828 [Eh]
    Molecular point group: c1

    Geometry (in Angstrom), charge = 0, multiplicity = 1:

       Center              X                  Y                   Z               Mass
    ------------   -----------------  -----------------  -----------------  -----------------
         CL          -1.137642644432    -0.581403313755    -0.002552698898    34.968852682000
         C           -0.988102644432     1.197676686245    -0.008652698898    12.000000000000
         H            0.060577355568     1.448156686245    -0.112392698898     1.007825032230
         H           -1.562782644432     1.580276686245    -0.843262698898     1.007825032230
         H           -1.382922644432     1.571736686245     0.928027301102     1.007825032230
         O            3.023697355568     0.138776686245     0.021777301102    15.994914619570
         H            3.815577355568    -0.373543313755    -0.150432698898     1.007825032230
         H            2.319627355568    -0.516493313755     0.024037301102     1.007825032230

  Charge       = 0
  Multiplicity = 1
  Basis Set: AUG-CC-PVQZ
    Blend: AUG-CC-PVQZ
  Basis Set: (AUG-CC-PVQZ AUX)
    Blend: AUG-CC-PVQZ-JKFIT

    Orbital Energies [Eh]
    ---------------------

    Doubly Occupied:

       1A   -104.826671     2A    -20.564569     3A    -11.287937
       4A    -10.552184     5A     -8.019307     6A     -8.017632
       7A     -8.017624     8A     -1.351052     9A     -1.129178
      10A     -0.915685    11A     -0.714548    12A     -0.618994
      13A     -0.618621    14A     -0.585605    15A     -0.546014
      16A     -0.509948    17A     -0.438828    18A     -0.438080

  @DF-RHF Final Energy:  -575.22293091105882

   => Energetics <=

    Nuclear Repulsion Energy =             93.3810047208092584
    One-Electron Energy =                -978.9029113351364231
    Two-Electron Energy =                 310.2989757032683542
    Total Energy =                       -575.2229309110587110

  Dipole Moment: [D]
     X:     0.2887      Y:     0.2641      Z:    -0.2908     Total:     0.4875

  Basis Set: (AUG-CC-PVQZ AUX)
    Blend: AUG-CC-PVQZ-RI
	 Reference Energy          =    -575.2229309110588247 [Eh]
	 Singles Energy            =      -0.0000000000000000 [Eh]
	 Same-Spin Energy          =      -0.1848628425677673 [Eh]
	 Opposite-Spin Energy      =      -0.6327397378819775 [Eh]
	 Correlation Energy        =      -0.8176025804497448 [Eh]
	 Total Energy              =    -576.0405334915085405 [Eh]

	 ================> DF-SCS-MP2 Energies <==================
	-----------------------------------------------------------
	 SCS Same-Spin Scale       =       0.3333333333333333 [-]
	 SCS Opposite-Spin Scale   =       1.2000000000000000 [-]
	 SCS Same-Spin Energy      =      -0.0616209475225891 [Eh]
	 SCS Opposite-Spin Energy  =      -0.7592876854583729 [Eh]
	 SCS Correlation Energy    =      -0.8209086329809619 [Eh]
	 SCS Total Energy          =    -576.0438395440397699 [Eh]
	-----------------------------------------------------------

*** Psi4 exiting successfully. Buy a developer a beer!
