                               Psi4 1.4a2.dev224

  ==> Input File <==

--------------------------------------------------------------------------
#Generated by lconvert.py for cbs job

memory 40 GB

molecule  {
0 1
 Cl       -0.9515890    -0.6340730     0.0005530
  C       -0.8020540     1.1450090    -0.0055460
  H        0.2466310     1.3954930    -0.1092890
  H       -1.3767320     1.5276110    -0.8401610
  H       -1.1968670     1.5190650     0.9311300
--
0 1
  O        2.1106640     0.0581120     0.0204320
  H        2.9025470    -0.4542090    -0.1517770
  H        1.4065910    -0.5971610     0.0226920
units angstrom
no_reorient
symmetry c1
}

set {
scf_type DF
mp2_type DF
e_convergence 7
reference rhf
}

energy('mp2/aug-cc-pv[tq]z', bsse_type='cp')
--------------------------------------------------------------------------

    Molecular point group: c1
  Charge       = 0
  Multiplicity = 1
  Basis Set: AUG-CC-PVTZ
    Blend: AUG-CC-PVTZ
  Basis Set: (AUG-CC-PVTZ AUX)
    Blend: AUG-CC-PVTZ-JKFIT
  @DF-RHF Final Energy:   -76.06034091752771
    Total Energy =                        -76.0603409175277250
  Basis Set: (AUG-CC-PVTZ AUX)
    Blend: AUG-CC-PVTZ-RI
	 Reference Energy          =     -76.0603409175277108 [Eh]
	 Singles Energy            =      -0.0000000000000000 [Eh]
	 Same-Spin Energy          =      -0.0683990555654365 [Eh]
	 Opposite-Spin Energy      =      -0.2153414332216677 [Eh]
	 Correlation Energy        =      -0.2837404887871042 [Eh]
	 Total Energy              =     -76.3440814063148139 [Eh]
	 SCS Total Energy          =     -76.3415503225821936 [Eh]
    Molecular point group: c1
  Basis Set: AUG-CC-PVQZ
    Blend: AUG-CC-PVQZ
  Basis Set: (AUG-CC-PVQZ AUX)
    Blend: AUG-CC-PVQZ-JKFIT
  @DF-RHF Final Energy:   -76.06571931124654
    Total Energy =                        -76.0657193112465393
  Basis Set: (AUG-CC-PVQZ AUX)
  @DF-RHF Final Energy:   -76.06040099922069
    Total Energy =                        -76.0604009992206898
  @DF-RHF Final Energy:   -76.06574617339390
    Total Energy =                        -76.0657461733939044
  @DF-RHF Final Energy:  -499.14893337640541
    Total Energy =                       -499.1489333764054095
  @DF-RHF Final Energy:  -499.15496835549880
    Total Energy =                       -499.1549683554987951
  @DF-RHF Final Energy:  -499.14887814074473
    Total Energy =                       -499.1488781407447277
  @DF-RHF Final Energy:  -499.15495233980681
    Total Energy =                       -499.1549523398068118
  Multiplicity = 1
  @DF-RHF Final Energy:  -575.21011801117584
    Total Energy =                       -575.2101180111759504
	 Singles Energy            =      -0.0000000000000000 [Eh]
	 Same-Spin Energy          =      -0.1705301891888349 [Eh]
	 Opposite-Spin Energy      =      -0.5543003411474439 [Eh]
	 Correlation Energy        =      -0.7248305303362788 [Eh]
	 Total Energy              =    -575.9349485415120853 [Eh]
	 SCS Total Energy          =    -575.9321218169490066 [Eh]
    Molecular point group: c1

    Geometry (in Angstrom), charge = 0, multiplicity = 1:

       Center              X                  Y                   Z               Mass
    ------------   -----------------  -----------------  -----------------  -----------------
         CL          -0.846548577727    -0.573989250782    -0.001373909539    34.968852682000
         C           -0.697013577727     1.205092749218    -0.007472909539    12.000000000000
         H            0.351671422273     1.455576749218    -0.111215909539     1.007825032230
         H           -1.271691577727     1.587694749218    -0.842087909539     1.007825032230
         H           -1.091826577727     1.579148749218     0.929203090461     1.007825032230
         O            2.215704422273     0.118195749218     0.018505090461    15.994914619570
         H            3.007587422273    -0.394125250782    -0.153703909539     1.007825032230
         H            1.511631422273    -0.537077250782     0.020765090461     1.007825032230

  Charge       = 0
  Multiplicity = 1
  Basis Set: AUG-CC-PVQZ
    Blend: AUG-CC-PVQZ
  Basis Set: (AUG-CC-PVQZ AUX)
    Blend: AUG-CC-PVQZ-JKFIT

    Orbital Energies [Eh]
    ---------------------

    Doubly Occupied:

       1A   -104.830044     2A    -20.557367     3A    -11.283600
       4A    -10.555941     5A     -8.023029     6A     -8.021457
       7A     -8.021399     8A     -1.347340     9A     -1.132598
      10A     -0.915058    11A     -0.716648    12A     -0.616902
      13A     -0.614549    14A     -0.581290    15A     -0.547862
      16A     -0.505490    17A     -0.443029    18A     -0.441486

  @DF-RHF Final Energy:  -575.22151093555851

   => Energetics <=

    Nuclear Repulsion Energy =            104.6619183625651459
    One-Electron Energy =               -1001.4566743265686455
    Two-Electron Energy =                 321.5732450284449442
    Total Energy =                       -575.2215109355585128

  Dipole Moment: [D]
     X:     0.2164      Y:     0.3428      Z:    -0.2967     Total:     0.5024

  Basis Set: (AUG-CC-PVQZ AUX)
    Blend: AUG-CC-PVQZ-RI
	 Reference Energy          =    -575.2215109355585128 [Eh]
	 Singles Energy            =      -0.0000000000000000 [Eh]
	 Same-Spin Energy          =      -0.1872058222623741 [Eh]
	 Opposite-Spin Energy      =      -0.6352549842685877 [Eh]
	 Correlation Energy        =      -0.8224608065309618 [Eh]
	 Total Energy              =    -576.0439717420895249 [Eh]

	 ================> DF-SCS-MP2 Energies <==================
	-----------------------------------------------------------
	 SCS Same-Spin Scale       =       0.3333333333333333 [-]
	 SCS Opposite-Spin Scale   =       1.2000000000000000 [-]
	 SCS Same-Spin Energy      =      -0.0624019407541247 [Eh]
	 SCS Opposite-Spin Energy  =      -0.7623059811223053 [Eh]
	 SCS Correlation Energy    =      -0.8247079218764299 [Eh]
	 SCS Total Energy          =    -576.0462188574349511 [Eh]
	-----------------------------------------------------------

*** Psi4 exiting successfully. Buy a developer a beer!
