                               Psi4 1.4a2.dev224

  ==> Input File <==

--------------------------------------------------------------------------
#Generated by lconvert.py for cbs job

memory 40 GB

molecule  {
0 1
 Cl       -0.9515890    -0.6340730     0.0005530
  C       -0.8020540     1.1450090    -0.0055460
  H        0.2466310     1.3954930    -0.1092890
  H       -1.3767320     1.5276110    -0.8401610
  H       -1.1968670     1.5190650     0.9311300
--
0 1
  O        1.4453770     0.0411630     0.0177410
  H        2.2372600    -0.4711580    -0.1544680
  H        0.7413040    -0.6141100     0.0200010
units angstrom
no_reorient
symmetry c1
}

set {
scf_type DF
mp2_type DF
e_convergence 7
reference rhf
}

energy('mp2/aug-cc-pv[tq]z', bsse_type='cp')
--------------------------------------------------------------------------

    Molecular point group: c1
  Charge       = 0
  Multiplicity = 1
  Basis Set: AUG-CC-PVTZ
    Blend: AUG-CC-PVTZ
  Basis Set: (AUG-CC-PVTZ AUX)
    Blend: AUG-CC-PVTZ-JKFIT
  @DF-RHF Final Energy:   -76.06034091753708
    Total Energy =                        -76.0603409175370757
  Basis Set: (AUG-CC-PVTZ AUX)
    Blend: AUG-CC-PVTZ-RI
	 Reference Energy          =     -76.0603409175370757 [Eh]
	 Singles Energy            =      -0.0000000000000000 [Eh]
	 Same-Spin Energy          =      -0.0683990555654580 [Eh]
	 Opposite-Spin Energy      =      -0.2153414332216994 [Eh]
	 Correlation Energy        =      -0.2837404887871574 [Eh]
	 Total Energy              =     -76.3440814063242357 [Eh]
	 SCS Total Energy          =     -76.3415503225916012 [Eh]
    Molecular point group: c1
  Basis Set: AUG-CC-PVQZ
    Blend: AUG-CC-PVQZ
  Basis Set: (AUG-CC-PVQZ AUX)
    Blend: AUG-CC-PVQZ-JKFIT
  @DF-RHF Final Energy:   -76.06571931122801
    Total Energy =                        -76.0657193112280083
  Basis Set: (AUG-CC-PVQZ AUX)
  @DF-RHF Final Energy:   -76.06044598626210
    Total Energy =                        -76.0604459862620956
  @DF-RHF Final Energy:   -76.06576539399801
    Total Energy =                        -76.0657653939979923
  @DF-RHF Final Energy:  -499.14897608599767
    Total Energy =                       -499.1489760859976741
  @DF-RHF Final Energy:  -499.15498167608365
    Total Energy =                       -499.1549816760836507
  @DF-RHF Final Energy:  -499.14887814069345
    Total Energy =                       -499.1488781406934550
  @DF-RHF Final Energy:  -499.15495233959854
    Total Energy =                       -499.1549523395985375
  @DF-RHF Final Energy:  -575.16354722706592
    Total Energy =                       -575.1635472270659193
  @DF-RHF Final Energy:  -575.17504170607049
    Total Energy =                       -575.1750417060704876
*** Psi4 exiting successfully. Buy a developer a beer!
                               Psi4 1.4a2.dev224
  @DF-RHF Final Energy:   -76.06034091751695
    Total Energy =                        -76.0603409175169531
  @DF-RHF Final Energy:   -76.06571931124316
    Total Energy =                        -76.0657193112431571
  @DF-RHF Final Energy:   -76.06042616953637
    Total Energy =                        -76.0604261695363704
  @DF-RHF Final Energy:   -76.06575756581429
    Total Energy =                        -76.0657575658142946
  @DF-RHF Final Energy:  -499.14895908822035
    Total Energy =                       -499.1489590882203515
  @DF-RHF Final Energy:  -499.15497510181905
    Total Energy =                       -499.1549751018190477
  @DF-RHF Final Energy:  -499.14887814065605
    Total Energy =                       -499.1488781406560520
  @DF-RHF Final Energy:  -499.15495233973263
    Total Energy =                       -499.1549523397326311
  @DF-RHF Final Energy:  -575.19346502769440
    Total Energy =                       -575.1934650276944012
  @DF-RHF Final Energy:  -575.20486591838494
    Total Energy =                       -575.2048659183849395
*** Psi4 exiting successfully. Buy a developer a beer!
                               Psi4 1.4a2.dev224
                               Psi4 1.4a2.dev224
                               Psi4 1.4a2.dev224
                               Psi4 1.4a2.dev224
                               Psi4 1.4a2.dev224
                               Psi4 1.4a2.dev224
                               Psi4 1.4a2.dev224
  @DF-RHF Final Energy:   -76.06034060555407
    Total Energy =                        -76.0603406055540745
  @DF-RHF Final Energy:   -76.06571898163202
    Total Energy =                        -76.0657189816320169
  @DF-RHF Final Energy:   -76.06034882135413
    Total Energy =                        -76.0603488213541254
  @DF-RHF Final Energy:   -76.06572266558379
    Total Energy =                        -76.0657226655837917
  @DF-RHF Final Energy:  -499.14888489375545
    Total Energy =                       -499.1488848937554508
  @DF-RHF Final Energy:  -499.15495584469721
    Total Energy =                       -499.1549558446972128
  @DF-RHF Final Energy:  -499.14887814987958
    Total Energy =                       -499.1488781498795788
  @DF-RHF Final Energy:  -499.15495235415102
    Total Energy =                       -499.1549523541510212
  @DF-RHF Final Energy:  -575.21051524925656
    Total Energy =                       -575.2105152492564457
  @DF-RHF Final Energy:  -575.22195059337059
    Total Energy =                       -575.2219505933705932
*** Psi4 exiting successfully. Buy a developer a beer!
                               Psi4 1.4a2.dev224
  @DF-RHF Final Energy:   -76.06034091322901
    Total Energy =                        -76.0603409132290267
  @DF-RHF Final Energy:   -76.06571930616512
    Total Energy =                        -76.0657193061651071
  @DF-RHF Final Energy:   -76.06034465425765
    Total Energy =                        -76.0603446542576478
  @DF-RHF Final Energy:   -76.06572138302884
    Total Energy =                        -76.0657213830288299
  @DF-RHF Final Energy:  -499.14888138148638
    Total Energy =                       -499.1488813814863761
  @DF-RHF Final Energy:  -499.15495386325927
    Total Energy =                       -499.1549538632592657
  @DF-RHF Final Energy:  -499.14887814989368
    Total Energy =                       -499.1488781498936760
  @DF-RHF Final Energy:  -499.15495235433286
    Total Energy =                       -499.1549523543328633
  Multiplicity = 1
  @DF-RHF Final Energy:  -575.20999784938181
    Total Energy =                       -575.2099978493818071
	 Singles Energy            =      -0.0000000000000000 [Eh]
	 Same-Spin Energy          =      -0.1677628489602734 [Eh]
	 Opposite-Spin Energy      =      -0.5509560604386419 [Eh]
	 Correlation Energy        =      -0.7187189093989153 [Eh]
	 Total Energy              =    -575.9287167587807517 [Eh]
	 SCS Total Energy          =    -575.9270660715616259 [Eh]
    Molecular point group: c1

    Geometry (in Angstrom), charge = 0, multiplicity = 1:

       Center              X                  Y                   Z               Mass
    ------------   -----------------  -----------------  -----------------  -----------------
         CL          -1.521908034685    -0.591194817502    -0.004107220075    34.968852682000
         C           -1.372368034685     1.187885182498    -0.010207220075    12.000000000000
         H           -0.323688034685     1.438365182498    -0.113947220075     1.007825032230
         H           -1.947048034685     1.570485182498    -0.844817220075     1.007825032230
         H           -1.767188034685     1.561945182498     0.926472779925     1.007825032230
         O            4.090311965315     0.165955182498     0.026092779925    15.994914619570
         H            4.882191965315    -0.346364817502    -0.146117220075     1.007825032230
         H            3.386231965315    -0.489314817502     0.028342779925     1.007825032230

  Charge       = 0
  Multiplicity = 1
  Basis Set: AUG-CC-PVQZ
    Blend: AUG-CC-PVQZ
  Basis Set: (AUG-CC-PVQZ AUX)
    Blend: AUG-CC-PVQZ-JKFIT

    Orbital Energies [Eh]
    ---------------------

    Doubly Occupied:

       1A   -104.824857     2A    -20.565534     3A    -11.288805
       4A    -10.550338     5A     -8.017463     6A     -8.015764
       7A     -8.015762     8A     -1.351782     9A     -1.127903
      10A     -0.915761    11A     -0.715114    12A     -0.619791
      13A     -0.619029    14A     -0.585840    15A     -0.545072
      16A     -0.510558    17A     -0.436817    18A     -0.436528

  @DF-RHF Final Energy:  -575.22144168762202

   => Energetics <=

    Nuclear Repulsion Energy =             85.0133688107739260
    One-Electron Energy =                -962.1841781617897595
    Two-Electron Energy =                 301.9493676633937866
    Total Energy =                       -575.2214416876220184

  Dipole Moment: [D]
     X:     0.3151      Y:     0.2084      Z:    -0.2909     Total:     0.4768

  Basis Set: (AUG-CC-PVQZ AUX)
    Blend: AUG-CC-PVQZ-RI
	 Reference Energy          =    -575.2214416876220184 [Eh]
	 Singles Energy            =      -0.0000000000000000 [Eh]
	 Same-Spin Energy          =      -0.1844929286352626 [Eh]
	 Opposite-Spin Energy      =      -0.6323800708642738 [Eh]
	 Correlation Energy        =      -0.8168729994995365 [Eh]
	 Total Energy              =    -576.0383146871215558 [Eh]

	 ================> DF-SCS-MP2 Energies <==================
	-----------------------------------------------------------
	 SCS Same-Spin Scale       =       0.3333333333333333 [-]
	 SCS Opposite-Spin Scale   =       1.2000000000000000 [-]
	 SCS Same-Spin Energy      =      -0.0614976428784209 [Eh]
	 SCS Opposite-Spin Energy  =      -0.7588560850371285 [Eh]
	 SCS Correlation Energy    =      -0.8203537279155494 [Eh]
	 SCS Total Energy          =    -576.0417954155375355 [Eh]
	-----------------------------------------------------------

*** Psi4 exiting successfully. Buy a developer a beer!
