                               Psi4 1.4a2.dev224

  ==> Input File <==

--------------------------------------------------------------------------
#Generated by lconvert.py for cbs job

memory 20 GB

molecule  {
0 1
 Cl       2.111710   -0.538820    0.000180
  C       1.762530    1.209210    0.000110
  H       0.687620    1.343580    0.000120
  H       2.201980    1.643830   -0.889660
  H       2.202010    1.643910    0.889830
--
0 1
 Cl      -4.045630    0.537230    0.000200
  C      -3.696720   -1.210850    0.000120
  H      -4.136370   -1.645420   -0.889580
  H      -4.136150   -1.645460    0.889910
  H      -2.621840   -1.345410   -0.000010
units angstrom
no_reorient
symmetry c1
}

set {
scf_type DF
mp2_type DF
e_convergence 7
reference rhf
}

energy('mp2/aug-cc-pv[tq]z', bsse_type='cp')
--------------------------------------------------------------------------

    Molecular point group: c1
  Charge       = 0
  Multiplicity = 1
  Basis Set: AUG-CC-PVTZ
    Blend: AUG-CC-PVTZ
  Basis Set: (AUG-CC-PVTZ AUX)
    Blend: AUG-CC-PVTZ-JKFIT
  @DF-RHF Final Energy:  -499.14887309497004
    Total Energy =                       -499.1488730949700425
  Basis Set: (AUG-CC-PVTZ AUX)
    Blend: AUG-CC-PVTZ-RI
	 Reference Energy          =    -499.1488730949700425 [Eh]
	 Singles Energy            =      -0.0000000000000000 [Eh]
	 Same-Spin Energy          =      -0.0993316709239994 [Eh]
	 Opposite-Spin Energy      =      -0.3355660416273892 [Eh]
	 Correlation Energy        =      -0.4348977125513886 [Eh]
	 Total Energy              =    -499.5837708075214323 [Eh]
	 SCS Total Energy          =    -499.5846629018975591 [Eh]
    Molecular point group: c1
  Basis Set: AUG-CC-PVQZ
    Blend: AUG-CC-PVQZ
  Basis Set: (AUG-CC-PVQZ AUX)
    Blend: AUG-CC-PVQZ-JKFIT
  @DF-RHF Final Energy:  -499.15495597230159
    Total Energy =                       -499.1549559723015932
  Basis Set: (AUG-CC-PVQZ AUX)
  @DF-RHF Final Energy:  -499.14887851339239
    Total Energy =                       -499.1488785133923898
  @DF-RHF Final Energy:  -499.15495847475978
    Total Energy =                       -499.1549584747597805
  @DF-RHF Final Energy:  -499.14887851764843
    Total Energy =                       -499.1488785176484271
  @DF-RHF Final Energy:  -499.15495846712508
    Total Energy =                       -499.1549584671250841
  @DF-RHF Final Energy:  -499.14887310069923
    Total Energy =                       -499.1488731006992339
  @DF-RHF Final Energy:  -499.15495596481065
    Total Energy =                       -499.1549559648106538
  Multiplicity = 1
  @DF-RHF Final Energy:  -998.29846040796110
    Total Energy =                       -998.2984604079611017
	 Singles Energy            =      -0.0000000000000000 [Eh]
	 Same-Spin Energy          =      -0.1988154556985535 [Eh]
	 Opposite-Spin Energy      =      -0.6713601136651495 [Eh]
	 Correlation Energy        =      -0.8701755693637030 [Eh]
	 Total Energy              =    -999.1686359773248114 [Eh]
	 SCS Total Energy          =    -999.1703643629255112 [Eh]
    Molecular point group: c1

    Geometry (in Angstrom), charge = 0, multiplicity = 1:

       Center              X                  Y                   Z               Mass
    ------------   -----------------  -----------------  -----------------  -----------------
         CL           3.078712383971    -0.538016983120     0.000013345055    34.968852682000
         C            2.729532383971     1.210013016880    -0.000056654945    12.000000000000
         H            1.654622383971     1.344383016880    -0.000046654945     1.007825032230
         H            3.168982383971     1.644633016880    -0.889826654945     1.007825032230
         H            3.169012383971     1.644713016880     0.889663345055     1.007825032230
         CL          -3.078627616029     0.538033016880     0.000033345055    34.968852682000
         C           -2.729717616029    -1.210046983120    -0.000046654945    12.000000000000
         H           -3.169367616029    -1.644616983120    -0.889746654945     1.007825032230
         H           -3.169147616029    -1.644656983120     0.889743345055     1.007825032230
         H           -1.654837616029    -1.344606983120    -0.000176654945     1.007825032230

  Charge       = 0
  Multiplicity = 1
  Basis Set: AUG-CC-PVQZ
    Blend: AUG-CC-PVQZ
  Basis Set: (AUG-CC-PVQZ AUX)
    Blend: AUG-CC-PVQZ-JKFIT

    Orbital Energies [Eh]
    ---------------------

    Doubly Occupied:

       1A   -104.825059     2A   -104.825057     3A    -11.288476
       4A    -11.288475     5A    -10.550560     6A    -10.550559
       7A     -8.017691     8A     -8.017690     9A     -8.015984
      10A     -8.015983    11A     -8.015983    12A     -8.015981
      13A     -1.128544    14A     -1.128517    15A     -0.915686
      16A     -0.915657    17A     -0.619549    18A     -0.618808
      19A     -0.618802    20A     -0.618790    21A     -0.546188
      22A     -0.546097    23A     -0.437102    24A     -0.436558
      25A     -0.436557    26A     -0.436398

  @DF-RHF Final Energy:  -998.31061197315967

   => Energetics <=

    Nuclear Repulsion Energy =            162.2444922253659740
    One-Electron Energy =               -1699.4487021413367529
    Two-Electron Energy =                 538.8935979428110841
    Total Energy =                       -998.3106119731596664

  Dipole Moment: [D]
     X:    -0.0003      Y:    -0.0001      Z:    -0.0002     Total:     0.0004

  Basis Set: (AUG-CC-PVQZ AUX)
    Blend: AUG-CC-PVQZ-RI
	 Reference Energy          =    -998.3106119731596664 [Eh]
	 Singles Energy            =      -0.0000000000000000 [Eh]
	 Same-Spin Energy          =      -0.2236150502248533 [Eh]
	 Opposite-Spin Energy      =      -0.7762967681820125 [Eh]
	 Correlation Energy        =      -0.9999118184068658 [Eh]
	 Total Energy              =    -999.3105237915665384 [Eh]

	 ================> DF-SCS-MP2 Energies <==================
	-----------------------------------------------------------
	 SCS Same-Spin Scale       =       0.3333333333333333 [-]
	 SCS Opposite-Spin Scale   =       1.2000000000000000 [-]
	 SCS Same-Spin Energy      =      -0.0745383500749511 [Eh]
	 SCS Opposite-Spin Energy  =      -0.9315561218184150 [Eh]
	 SCS Correlation Energy    =      -1.0060944718933660 [Eh]
	 SCS Total Energy          =    -999.3167064450530006 [Eh]
	-----------------------------------------------------------

*** Psi4 exiting successfully. Buy a developer a beer!
