                               Psi4 1.4a2.dev224

  ==> Input File <==

--------------------------------------------------------------------------
#Generated by lconvert.py for cbs job

memory 20 GB

molecule  {
0 1
 Cl       2.111710   -0.538820    0.000180
  C       1.762530    1.209210    0.000110
  H       0.687620    1.343580    0.000120
  H       2.201980    1.643830   -0.889660
  H       2.202010    1.643910    0.889830
--
0 1
 Cl      -3.105960    0.538040    0.000200
  C      -2.757050   -1.210040    0.000120
  H      -3.196690   -1.644610   -0.889580
  H      -3.196470   -1.644650    0.889910
  H      -1.682160   -1.344600   -0.000010
units angstrom
no_reorient
symmetry c1
}

set {
scf_type DF
mp2_type DF
e_convergence 7
reference rhf
}

energy('mp2/aug-cc-pv[tq]z', bsse_type='cp')
--------------------------------------------------------------------------

    Molecular point group: c1
  Charge       = 0
  Multiplicity = 1
  Basis Set: AUG-CC-PVTZ
    Blend: AUG-CC-PVTZ
  Basis Set: (AUG-CC-PVTZ AUX)
    Blend: AUG-CC-PVTZ-JKFIT
  @DF-RHF Final Energy:  -499.14887308543888
    Total Energy =                       -499.1488730854389360
  Basis Set: (AUG-CC-PVTZ AUX)
    Blend: AUG-CC-PVTZ-RI
	 Reference Energy          =    -499.1488730854388791 [Eh]
	 Singles Energy            =      -0.0000000000000000 [Eh]
	 Same-Spin Energy          =      -0.0993316702029165 [Eh]
	 Opposite-Spin Energy      =      -0.3355660535579832 [Eh]
	 Correlation Energy        =      -0.4348977237608996 [Eh]
	 Total Energy              =    -499.5837708091997911 [Eh]
	 SCS Total Energy          =    -499.5846629064427589 [Eh]
    Molecular point group: c1
  Basis Set: AUG-CC-PVQZ
    Blend: AUG-CC-PVQZ
  Basis Set: (AUG-CC-PVQZ AUX)
    Blend: AUG-CC-PVQZ-JKFIT
  @DF-RHF Final Energy:  -499.15495596242721
    Total Energy =                       -499.1549559624272092
  Basis Set: (AUG-CC-PVQZ AUX)
  @DF-RHF Final Energy:  -499.14889190071216
    Total Energy =                       -499.1488919007121581
  @DF-RHF Final Energy:  -499.15496240503523
    Total Energy =                       -499.1549624050352350
  @DF-RHF Final Energy:  -499.14889190744617
    Total Energy =                       -499.1488919074461137
  @DF-RHF Final Energy:  -499.15496240697439
    Total Energy =                       -499.1549624069743913
  @DF-RHF Final Energy:  -499.14887310072214
    Total Energy =                       -499.1488731007221418
  @DF-RHF Final Energy:  -499.15495596493088
    Total Energy =                       -499.1549559649308776
  Multiplicity = 1
  @DF-RHF Final Energy:  -998.29906846378833
    Total Energy =                       -998.2990684637883305
	 Singles Energy            =      -0.0000000000000000 [Eh]
	 Same-Spin Energy          =      -0.1991627875587026 [Eh]
	 Opposite-Spin Energy      =      -0.6718750637975291 [Eh]
	 Correlation Energy        =      -0.8710378513562318 [Eh]
	 Total Energy              =    -999.1701063151446078 [Eh]
	 SCS Total Energy          =    -999.1717061361982815 [Eh]
    Molecular point group: c1

    Geometry (in Angstrom), charge = 0, multiplicity = 1:

       Center              X                  Y                   Z               Mass
    ------------   -----------------  -----------------  -----------------  -----------------
         CL           2.608877081577    -0.538421983120     0.000013345055    34.968852682000
         C            2.259697081577     1.209608016880    -0.000056654945    12.000000000000
         H            1.184787081577     1.343978016880    -0.000046654945     1.007825032230
         H            2.699147081577     1.644228016880    -0.889826654945     1.007825032230
         H            2.699177081577     1.644308016880     0.889663345055     1.007825032230
         CL          -2.608792918423     0.538438016880     0.000033345055    34.968852682000
         C           -2.259882918423    -1.209641983120    -0.000046654945    12.000000000000
         H           -2.699522918423    -1.644211983120    -0.889746654945     1.007825032230
         H           -2.699302918423    -1.644251983120     0.889743345055     1.007825032230
         H           -1.184992918423    -1.344201983120    -0.000176654945     1.007825032230

  Charge       = 0
  Multiplicity = 1
  Basis Set: AUG-CC-PVQZ
    Blend: AUG-CC-PVQZ
  Basis Set: (AUG-CC-PVQZ AUX)
    Blend: AUG-CC-PVQZ-JKFIT

    Orbital Energies [Eh]
    ---------------------

    Doubly Occupied:

       1A   -104.825483     2A   -104.825480     3A    -11.287765
       4A    -11.287763     5A    -10.551002     6A    -10.550999
       7A     -8.018133     8A     -8.018130     9A     -8.016435
      10A     -8.016434    11A     -8.016433    12A     -8.016431
      13A     -1.128866    14A     -1.128611    15A     -0.915470
      16A     -0.915151    17A     -0.620365    18A     -0.618413
      19A     -0.618281    20A     -0.616642    21A     -0.546483
      22A     -0.545980    23A     -0.438955    24A     -0.436938
      25A     -0.436928    26A     -0.435497

  @DF-RHF Final Energy:  -998.31119682790484

   => Energetics <=

    Nuclear Repulsion Energy =            172.9557064904369668
    One-Electron Energy =               -1720.8676706450823986
    Two-Electron Energy =                 549.6007673267405380
    Total Energy =                       -998.3111968279048369

  Dipole Moment: [D]
     X:    -0.0004      Y:    -0.0001      Z:    -0.0002     Total:     0.0004

  Basis Set: (AUG-CC-PVQZ AUX)
    Blend: AUG-CC-PVQZ-RI
	 Reference Energy          =    -998.3111968279048369 [Eh]
	 Singles Energy            =      -0.0000000000000000 [Eh]
	 Same-Spin Energy          =      -0.2239150704695105 [Eh]
	 Opposite-Spin Energy      =      -0.7766261075744814 [Eh]
	 Correlation Energy        =      -1.0005411780439919 [Eh]
	 Total Energy              =    -999.3117380059488823 [Eh]

	 ================> DF-SCS-MP2 Energies <==================
	-----------------------------------------------------------
	 SCS Same-Spin Scale       =       0.3333333333333333 [-]
	 SCS Opposite-Spin Scale   =       1.2000000000000000 [-]
	 SCS Same-Spin Energy      =      -0.0746383568231702 [Eh]
	 SCS Opposite-Spin Energy  =      -0.9319513290893776 [Eh]
	 SCS Correlation Energy    =      -1.0065896859125478 [Eh]
	 SCS Total Energy          =    -999.3177865138173956 [Eh]
	-----------------------------------------------------------

*** Psi4 exiting successfully. Buy a developer a beer!
