                               Psi4 1.4a2.dev224

  ==> Input File <==

--------------------------------------------------------------------------
#Generated by lconvert.py for cbs job

memory 40 GB

molecule  {
0 1
 Cl        2.1117070    -0.5388240     0.0001810
  C        1.7625300     1.2092080     0.0001100
  H        0.6876190     1.3435830     0.0001220
  H        2.2019800     1.6438300    -0.8896620
  H        2.2020080     1.6439080     0.8898310
--
0 1
 Cl       -1.1858530     0.5396980     0.0001960
  C       -0.8369430    -1.2083850     0.0001140
  H       -1.2765840    -1.6429580    -0.8895880
  H       -1.2763670    -1.6429980     0.8899040
  H        0.2379460    -1.3429440    -0.0000180
units angstrom
no_reorient
symmetry c1
}

set {
scf_type DF
mp2_type DF
e_convergence 7
reference rhf
}

energy('mp2/aug-cc-pv[tq]z', bsse_type='cp')
--------------------------------------------------------------------------

    Molecular point group: c1
  Charge       = 0
  Multiplicity = 1
  Basis Set: AUG-CC-PVTZ
    Blend: AUG-CC-PVTZ
  Basis Set: (AUG-CC-PVTZ AUX)
    Blend: AUG-CC-PVTZ-JKFIT
  @DF-RHF Final Energy:  -499.14887304369108
    Total Energy =                       -499.1488730436910828
  Basis Set: (AUG-CC-PVTZ AUX)
    Blend: AUG-CC-PVTZ-RI
	 Reference Energy          =    -499.1488730436910828 [Eh]
	 Singles Energy            =      -0.0000000000000000 [Eh]
	 Same-Spin Energy          =      -0.0993316450669978 [Eh]
	 Opposite-Spin Energy      =      -0.3355660825203800 [Eh]
	 Correlation Energy        =      -0.4348977275873778 [Eh]
	 Total Energy              =    -499.5837707712784663 [Eh]
	 SCS Total Energy          =    -499.5846628910712184 [Eh]
    Molecular point group: c1
  Basis Set: AUG-CC-PVQZ
    Blend: AUG-CC-PVQZ
  Basis Set: (AUG-CC-PVQZ AUX)
    Blend: AUG-CC-PVQZ-JKFIT
  @DF-RHF Final Energy:  -499.15495590990702
    Total Energy =                       -499.1549559099070166
  Basis Set: (AUG-CC-PVQZ AUX)
  @DF-RHF Final Energy:  -499.14896231191130
    Total Energy =                       -499.1489623119113048
  @DF-RHF Final Energy:  -499.15498082588709
    Total Energy =                       -499.1549808258870371
  @DF-RHF Final Energy:  -499.14896232111425
    Total Energy =                       -499.1489623211142543
  @DF-RHF Final Energy:  -499.15498083791897
    Total Energy =                       -499.1549808379189699
  @DF-RHF Final Energy:  -499.14887306645142
    Total Energy =                       -499.1488730664514151
  @DF-RHF Final Energy:  -499.15495592533165
    Total Energy =                       -499.1549559253316488
  Multiplicity = 1
  @DF-RHF Final Energy:  -998.26409830800446
    Total Energy =                       -998.2640983080044634
	 Singles Energy            =      -0.0000000000000000 [Eh]
	 Same-Spin Energy          =      -0.2074074090242911 [Eh]
	 Opposite-Spin Energy      =      -0.6823273689018741 [Eh]
	 Correlation Energy        =      -0.8897347779261651 [Eh]
	 Total Energy              =    -999.1538330859306143 [Eh]
	 SCS Total Energy          =    -999.1520269536947580 [Eh]
    Molecular point group: c1

    Geometry (in Angstrom), charge = 0, multiplicity = 1:

       Center              X                  Y                   Z               Mass
    ------------   -----------------  -----------------  -----------------  -----------------
         CL           1.648821721522    -0.539252853022     0.000016326068    34.968852682000
         C            1.299644721522     1.208779146978    -0.000054673932    12.000000000000
         H            0.224733721522     1.343154146978    -0.000042673932     1.007825032230
         H            1.739094721522     1.643401146978    -0.889826673932     1.007825032230
         H            1.739122721522     1.643479146978     0.889666326068     1.007825032230
         CL          -1.648738278478     0.539269146978     0.000031326068    34.968852682000
         C           -1.299828278478    -1.208813853022    -0.000050673932    12.000000000000
         H           -1.739469278478    -1.643386853022    -0.889752673932     1.007825032230
         H           -1.739252278478    -1.643426853022     0.889739326068     1.007825032230
         H           -0.224939278478    -1.343372853022    -0.000182673932     1.007825032230

  Charge       = 0
  Multiplicity = 1
  Basis Set: AUG-CC-PVQZ
    Blend: AUG-CC-PVQZ
  Basis Set: (AUG-CC-PVQZ AUX)
    Blend: AUG-CC-PVQZ-JKFIT

    Orbital Energies [Eh]
    ---------------------

    Doubly Occupied:

       1A   -104.822948     2A   -104.822941     3A    -11.272070
       4A    -11.272052     5A    -10.550096     6A    -10.550088
       7A     -8.017052     8A     -8.017044     9A     -8.015639
      10A     -8.015631    11A     -8.015461    12A     -8.015453
      13A     -1.141874    14A     -1.121231    15A     -0.926257
      16A     -0.898488    17A     -0.655976    18A     -0.614464
      19A     -0.608089    20A     -0.590757    21A     -0.553836
      22A     -0.532055    23A     -0.464285    24A     -0.439915
      25A     -0.438641    26A     -0.398285

  @DF-RHF Final Energy:  -998.27614987139395

   => Energetics <=

    Nuclear Repulsion Energy =            212.8901743133465629
    One-Electron Energy =               -1800.7913869829812938
    Two-Electron Energy =                 589.6250627982408332
    Total Energy =                       -998.2761498713939545

  Dipole Moment: [D]
     X:    -0.0006      Y:    -0.0001      Z:    -0.0002     Total:     0.0007

  Basis Set: (AUG-CC-PVQZ AUX)
    Blend: AUG-CC-PVQZ-RI
	 Reference Energy          =    -998.2761498713939545 [Eh]
	 Singles Energy            =      -0.0000000000000000 [Eh]
	 Same-Spin Energy          =      -0.2320466020460952 [Eh]
	 Opposite-Spin Energy      =      -0.7861694703199983 [Eh]
	 Correlation Energy        =      -1.0182160723660936 [Eh]
	 Total Energy              =    -999.2943659437599990 [Eh]

	 ================> DF-SCS-MP2 Energies <==================
	-----------------------------------------------------------
	 SCS Same-Spin Scale       =       0.3333333333333333 [-]
	 SCS Opposite-Spin Scale   =       1.2000000000000000 [-]
	 SCS Same-Spin Energy      =      -0.0773488673486984 [Eh]
	 SCS Opposite-Spin Energy  =      -0.9434033643839979 [Eh]
	 SCS Correlation Energy    =      -1.0207522317326962 [Eh]
	 SCS Total Energy          =    -999.2969021031266266 [Eh]
	-----------------------------------------------------------

*** Psi4 exiting successfully. Buy a developer a beer!
