                               Psi4 1.4a2.dev224

  ==> Input File <==

--------------------------------------------------------------------------
#Generated by lconvert.py for cbs job

memory 40 GB

molecule  {
0 1
 Cl        2.1117070    -0.5388240     0.0001810
  C        1.7625300     1.2092080     0.0001100
  H        0.6876190     1.3435830     0.0001220
  H        2.2019800     1.6438300    -0.8896620
  H        2.2020080     1.6439080     0.8898310
--
0 1
 Cl       -1.8070210     0.5391630     0.0001980
  C       -1.4581110    -1.2089200     0.0001160
  H       -1.8977520    -1.6434930    -0.8895860
  H       -1.8975350    -1.6435330     0.8899060
  H       -0.3832220    -1.3434790    -0.0000160
units angstrom
no_reorient
symmetry c1
}

set {
scf_type DF
mp2_type DF
e_convergence 7
reference rhf
}

energy('mp2/aug-cc-pv[tq]z', bsse_type='cp')
--------------------------------------------------------------------------

    Molecular point group: c1
  Charge       = 0
  Multiplicity = 1
  Basis Set: AUG-CC-PVTZ
    Blend: AUG-CC-PVTZ
  Basis Set: (AUG-CC-PVTZ AUX)
    Blend: AUG-CC-PVTZ-JKFIT
  @DF-RHF Final Energy:  -499.14887304361946
    Total Energy =                       -499.1488730436194601
  Basis Set: (AUG-CC-PVTZ AUX)
    Blend: AUG-CC-PVTZ-RI
	 Reference Energy          =    -499.1488730436194601 [Eh]
	 Singles Energy            =      -0.0000000000000000 [Eh]
	 Same-Spin Energy          =      -0.0993316450669329 [Eh]
	 Opposite-Spin Energy      =      -0.3355660825199119 [Eh]
	 Correlation Energy        =      -0.4348977275868448 [Eh]
	 Total Energy              =    -499.5837707712063320 [Eh]
	 SCS Total Energy          =    -499.5846628909989704 [Eh]
    Molecular point group: c1
  Basis Set: AUG-CC-PVQZ
    Blend: AUG-CC-PVQZ
  Basis Set: (AUG-CC-PVQZ AUX)
    Blend: AUG-CC-PVQZ-JKFIT
  @DF-RHF Final Energy:  -499.15495591002741
    Total Energy =                       -499.1549559100274109
  Basis Set: (AUG-CC-PVQZ AUX)
  @DF-RHF Final Energy:  -499.14893454320747
    Total Energy =                       -499.1489345432074742
  @DF-RHF Final Energy:  -499.15497301950205
    Total Energy =                       -499.1549730195020516
  @DF-RHF Final Energy:  -499.14893455681823
    Total Energy =                       -499.1489345568182330
  @DF-RHF Final Energy:  -499.15497303394716
    Total Energy =                       -499.1549730339471580
  @DF-RHF Final Energy:  -499.14887306645272
    Total Energy =                       -499.1488730664527225
  @DF-RHF Final Energy:  -499.15495592519056
    Total Energy =                       -499.1549559251905634
  Multiplicity = 1
  @DF-RHF Final Energy:  -998.29614837347526
    Total Energy =                       -998.2961483734752619
	 Singles Energy            =      -0.0000000000000000 [Eh]
	 Same-Spin Energy          =      -0.2019645697550462 [Eh]
	 Opposite-Spin Energy      =      -0.6756959999484701 [Eh]
	 Correlation Energy        =      -0.8776605697035162 [Eh]
	 Total Energy              =    -999.1738089431787557 [Eh]
	 SCS Total Energy          =    -999.1743050966650799 [Eh]
    Molecular point group: c1

    Geometry (in Angstrom), charge = 0, multiplicity = 1:

       Center              X                  Y                   Z               Mass
    ------------   -----------------  -----------------  -----------------  -----------------
         CL           1.959405721522    -0.538985353022     0.000015326068    34.968852682000
         C            1.610228721522     1.209046646978    -0.000055673932    12.000000000000
         H            0.535317721522     1.343421646978    -0.000043673932     1.007825032230
         H            2.049678721522     1.643668646978    -0.889827673932     1.007825032230
         H            2.049706721522     1.643746646978     0.889665326068     1.007825032230
         CL          -1.959322278478     0.539001646978     0.000032326068    34.968852682000
         C           -1.610412278478    -1.209081353022    -0.000049673932    12.000000000000
         H           -2.050053278478    -1.643654353022    -0.889751673932     1.007825032230
         H           -2.049836278478    -1.643694353022     0.889740326068     1.007825032230
         H           -0.535523278478    -1.343640353022    -0.000181673932     1.007825032230

  Charge       = 0
  Multiplicity = 1
  Basis Set: AUG-CC-PVQZ
    Blend: AUG-CC-PVQZ
  Basis Set: (AUG-CC-PVQZ AUX)
    Blend: AUG-CC-PVQZ-JKFIT

    Orbital Energies [Eh]
    ---------------------

    Doubly Occupied:

       1A   -104.825598     2A   -104.825593     3A    -11.282691
       4A    -11.282684     5A    -10.551427     6A    -10.551422
       7A     -8.018539     8A     -8.018534     9A     -8.016902
      10A     -8.016897    11A     -8.016882    12A     -8.016877
      13A     -1.131729    14A     -1.126573    15A     -0.916823
      16A     -0.909870    17A     -0.631169    18A     -0.616481
      19A     -0.614670    20A     -0.602142    21A     -0.548615
      22A     -0.542495    23A     -0.452079    24A     -0.437956
      25A     -0.437695    26A     -0.423819

  @DF-RHF Final Energy:  -998.30822594784104

   => Energetics <=

    Nuclear Repulsion Energy =            195.9009567347972904
    One-Electron Energy =               -1766.7860345396898083
    Two-Electron Energy =                 572.5768518570514516
    Total Energy =                       -998.3082259478410379

  Dipole Moment: [D]
     X:    -0.0005      Y:    -0.0001      Z:    -0.0002     Total:     0.0005

  Basis Set: (AUG-CC-PVQZ AUX)
    Blend: AUG-CC-PVQZ-RI
	 Reference Energy          =    -998.3082259478410379 [Eh]
	 Singles Energy            =      -0.0000000000000000 [Eh]
	 Same-Spin Energy          =      -0.2265880369531479 [Eh]
	 Opposite-Spin Energy      =      -0.7797227872357078 [Eh]
	 Correlation Energy        =      -1.0063108241888556 [Eh]
	 Total Energy              =    -999.3145367720298964 [Eh]

	 ================> DF-SCS-MP2 Energies <==================
	-----------------------------------------------------------
	 SCS Same-Spin Scale       =       0.3333333333333333 [-]
	 SCS Opposite-Spin Scale   =       1.2000000000000000 [-]
	 SCS Same-Spin Energy      =      -0.0755293456510493 [Eh]
	 SCS Opposite-Spin Energy  =      -0.9356673446828493 [Eh]
	 SCS Correlation Energy    =      -1.0111966903338985 [Eh]
	 SCS Total Energy          =    -999.3194226381749559 [Eh]
	-----------------------------------------------------------

*** Psi4 exiting successfully. Buy a developer a beer!
