                               Psi4 1.4a2.dev224

  ==> Input File <==

--------------------------------------------------------------------------
#Generated by lconvert.py for cbs job

memory 40 GB

molecule  {
0 1
 Cl        2.1117070    -0.5388240     0.0001810
  C        1.7625300     1.2092080     0.0001100
  H        0.6876190     1.3435830     0.0001220
  H        2.2019800     1.6438300    -0.8896620
  H        2.2020080     1.6439080     0.8898310
--
0 1
 Cl       -2.1113410     0.5389010     0.0001990
  C       -1.7624310    -1.2091820     0.0001170
  H       -2.2020720    -1.6437550    -0.8895850
  H       -2.2018550    -1.6437950     0.8899070
  H       -0.6875420    -1.3437410    -0.0000150
units angstrom
no_reorient
symmetry c1
}

set {
scf_type DF
mp2_type DF
e_convergence 7
reference rhf
}

energy('mp2/aug-cc-pv[tq]z', bsse_type='cp')
--------------------------------------------------------------------------

    Molecular point group: c1
  Charge       = 0
  Multiplicity = 1
  Basis Set: AUG-CC-PVTZ
    Blend: AUG-CC-PVTZ
  Basis Set: (AUG-CC-PVTZ AUX)
    Blend: AUG-CC-PVTZ-JKFIT
  @DF-RHF Final Energy:  -499.14887304365584
    Total Energy =                       -499.1488730436558399
  Basis Set: (AUG-CC-PVTZ AUX)
    Blend: AUG-CC-PVTZ-RI
	 Reference Energy          =    -499.1488730436558399 [Eh]
	 Singles Energy            =      -0.0000000000000000 [Eh]
	 Same-Spin Energy          =      -0.0993316450669491 [Eh]
	 Opposite-Spin Energy      =      -0.3355660825200396 [Eh]
	 Correlation Energy        =      -0.4348977275869886 [Eh]
	 Total Energy              =    -499.5837707712428255 [Eh]
	 SCS Total Energy          =    -499.5846628910355207 [Eh]
    Molecular point group: c1
  Basis Set: AUG-CC-PVQZ
    Blend: AUG-CC-PVQZ
  Basis Set: (AUG-CC-PVQZ AUX)
    Blend: AUG-CC-PVQZ-JKFIT
  @DF-RHF Final Energy:  -499.15495591004469
    Total Energy =                       -499.1549559100446913
  Basis Set: (AUG-CC-PVQZ AUX)
  @DF-RHF Final Energy:  -499.14892325304783
    Total Energy =                       -499.1489232530477693
  @DF-RHF Final Energy:  -499.15496941155146
    Total Energy =                       -499.1549694115514626
  @DF-RHF Final Energy:  -499.14892326694905
    Total Energy =                       -499.1489232669490548
  @DF-RHF Final Energy:  -499.15496942585833
    Total Energy =                       -499.1549694258583258
  @DF-RHF Final Energy:  -499.14887306642510
    Total Energy =                       -499.1488730664250397
  @DF-RHF Final Energy:  -499.15495592522541
    Total Energy =                       -499.1549559252254085
  Multiplicity = 1
  @DF-RHF Final Energy:  -998.29881802831892
    Total Energy =                       -998.2988180283189195
	 Singles Energy            =      -0.0000000000000000 [Eh]
	 Same-Spin Energy          =      -0.2007445217092998 [Eh]
	 Opposite-Spin Energy      =      -0.6740717243990552 [Eh]
	 Correlation Energy        =      -0.8748162461083550 [Eh]
	 Total Energy              =    -999.1736342744272861 [Eh]
	 SCS Total Energy          =    -999.1746189381675549 [Eh]
    Molecular point group: c1

    Geometry (in Angstrom), charge = 0, multiplicity = 1:

       Center              X                  Y                   Z               Mass
    ------------   -----------------  -----------------  -----------------  -----------------
         CL           2.111565721522    -0.538854353022     0.000014826068    34.968852682000
         C            1.762388721522     1.209177646978    -0.000056173932    12.000000000000
         H            0.687477721522     1.343552646978    -0.000044173932     1.007825032230
         H            2.201838721522     1.643799646978    -0.889828173932     1.007825032230
         H            2.201866721522     1.643877646978     0.889664826068     1.007825032230
         CL          -2.111482278478     0.538870646978     0.000032826068    34.968852682000
         C           -1.762572278478    -1.209212353022    -0.000049173932    12.000000000000
         H           -2.202213278478    -1.643785353022    -0.889751173932     1.007825032230
         H           -2.201996278478    -1.643825353022     0.889740826068     1.007825032230
         H           -0.687683278478    -1.343771353022    -0.000181173932     1.007825032230

  Charge       = 0
  Multiplicity = 1
  Basis Set: AUG-CC-PVQZ
    Blend: AUG-CC-PVQZ
  Basis Set: (AUG-CC-PVQZ AUX)
    Blend: AUG-CC-PVQZ-JKFIT

    Orbital Energies [Eh]
    ---------------------

    Doubly Occupied:

       1A   -104.825868     2A   -104.825864     3A    -11.284946
       4A    -11.284941     5A    -10.551519     6A    -10.551515
       7A     -8.018645     8A     -8.018640     9A     -8.016979
      10A     -8.016974    11A     -8.016971    12A     -8.016967
      13A     -1.130281    14A     -1.127701    15A     -0.915793
      16A     -0.912336    17A     -0.626083    18A     -0.617213
      19A     -0.616229    20A     -0.607705    21A     -0.547656
      22A     -0.544302    23A     -0.446832    24A     -0.437622
      25A     -0.437498    26A     -0.429231

  @DF-RHF Final Energy:  -998.31090940826323

   => Energetics <=

    Nuclear Repulsion Energy =            189.3123613185020986
    One-Electron Energy =               -1753.5939251527258875
    Two-Electron Energy =                 565.9706544259605607
    Total Energy =                       -998.3109094082632282

  Dipole Moment: [D]
     X:    -0.0004      Y:    -0.0001      Z:    -0.0002     Total:     0.0005

  Basis Set: (AUG-CC-PVQZ AUX)
    Blend: AUG-CC-PVQZ-RI
	 Reference Energy          =    -998.3109094082632282 [Eh]
	 Singles Energy            =      -0.0000000000000000 [Eh]
	 Same-Spin Energy          =      -0.2253780539736810 [Eh]
	 Opposite-Spin Energy      =      -0.7782933359584334 [Eh]
	 Correlation Energy        =      -1.0036713899321144 [Eh]
	 Total Energy              =    -999.3145807981953794 [Eh]

	 ================> DF-SCS-MP2 Energies <==================
	-----------------------------------------------------------
	 SCS Same-Spin Scale       =       0.3333333333333333 [-]
	 SCS Opposite-Spin Scale   =       1.2000000000000000 [-]
	 SCS Same-Spin Energy      =      -0.0751260179912270 [Eh]
	 SCS Opposite-Spin Energy  =      -0.9339520031501201 [Eh]
	 SCS Correlation Energy    =      -1.0090780211413470 [Eh]
	 SCS Total Energy          =    -999.3199874294045912 [Eh]
	-----------------------------------------------------------

*** Psi4 exiting successfully. Buy a developer a beer!
