                               Psi4 1.4a2.dev224

  ==> Input File <==

--------------------------------------------------------------------------
#Generated by lconvert.py for cbs job

memory 40 GB

molecule  {
0 1
 Cl        2.1117070    -0.5388240     0.0001810
  C        1.7625300     1.2092080     0.0001100
  H        0.6876190     1.3435830     0.0001220
  H        2.2019800     1.6438300    -0.8896620
  H        2.2020080     1.6439080     0.8898310
--
0 1
 Cl       -1.4990780     0.5394280     0.0001970
  C       -1.1501680    -1.2086550     0.0001150
  H       -1.5898090    -1.6432280    -0.8895870
  H       -1.5895920    -1.6432680     0.8899050
  H       -0.0752790    -1.3432140    -0.0000170
units angstrom
no_reorient
symmetry c1
}

set {
scf_type DF
mp2_type DF
e_convergence 7
reference rhf
}

energy('mp2/aug-cc-pv[tq]z', bsse_type='cp')
--------------------------------------------------------------------------

    Molecular point group: c1
  Charge       = 0
  Multiplicity = 1
  Basis Set: AUG-CC-PVTZ
    Blend: AUG-CC-PVTZ
  Basis Set: (AUG-CC-PVTZ AUX)
    Blend: AUG-CC-PVTZ-JKFIT
  @DF-RHF Final Energy:  -499.14887304363032
    Total Energy =                       -499.1488730436303740
  Basis Set: (AUG-CC-PVTZ AUX)
    Blend: AUG-CC-PVTZ-RI
	 Reference Energy          =    -499.1488730436303172 [Eh]
	 Singles Energy            =      -0.0000000000000000 [Eh]
	 Same-Spin Energy          =      -0.0993316450671037 [Eh]
	 Opposite-Spin Energy      =      -0.3355660825209870 [Eh]
	 Correlation Energy        =      -0.4348977275880908 [Eh]
	 Total Energy              =    -499.5837707712183828 [Eh]
	 SCS Total Energy          =    -499.5846628910111917 [Eh]
    Molecular point group: c1
  Basis Set: AUG-CC-PVQZ
    Blend: AUG-CC-PVQZ
  Basis Set: (AUG-CC-PVQZ AUX)
    Blend: AUG-CC-PVQZ-JKFIT
  @DF-RHF Final Energy:  -499.15495590999876
    Total Energy =                       -499.1549559099987619
  Basis Set: (AUG-CC-PVQZ AUX)
  @DF-RHF Final Energy:  -499.14894650748346
    Total Energy =                       -499.1489465074834584
  @DF-RHF Final Energy:  -499.15497614633648
    Total Energy =                       -499.1549761463364803
  @DF-RHF Final Energy:  -499.14894652257630
    Total Energy =                       -499.1489465225762387
  @DF-RHF Final Energy:  -499.15497616204357
    Total Energy =                       -499.1549761620435675
  @DF-RHF Final Energy:  -499.14887306646830
    Total Energy =                       -499.1488730664682976
  @DF-RHF Final Energy:  -499.15495592498081
    Total Energy =                       -499.1549559249808681
  Multiplicity = 1
  @DF-RHF Final Energy:  -998.28774295854009
    Total Energy =                       -998.2877429585400932
	 Singles Energy            =      -0.0000000000000000 [Eh]
	 Same-Spin Energy          =      -0.2039854326340269 [Eh]
	 Opposite-Spin Energy      =      -0.6782229357753916 [Eh]
	 Correlation Energy        =      -0.8822083684094185 [Eh]
	 Total Energy              =    -999.1699513269495583 [Eh]
	 SCS Total Energy          =    -999.1696056256819247 [Eh]
    Molecular point group: c1

    Geometry (in Angstrom), charge = 0, multiplicity = 1:

       Center              X                  Y                   Z               Mass
    ------------   -----------------  -----------------  -----------------  -----------------
         CL           1.805434221522    -0.539117853022     0.000015826068    34.968852682000
         C            1.456257221522     1.208914146978    -0.000055173932    12.000000000000
         H            0.381346221522     1.343289146978    -0.000043173932     1.007825032230
         H            1.895707221522     1.643536146978    -0.889827173932     1.007825032230
         H            1.895735221522     1.643614146978     0.889665826068     1.007825032230
         CL          -1.805350778478     0.539134146978     0.000031826068    34.968852682000
         C           -1.456440778478    -1.208948853022    -0.000050173932    12.000000000000
         H           -1.896081778478    -1.643521853022    -0.889752173932     1.007825032230
         H           -1.895864778478    -1.643561853022     0.889739826068     1.007825032230
         H           -0.381551778478    -1.343507853022    -0.000182173932     1.007825032230

  Charge       = 0
  Multiplicity = 1
  Basis Set: AUG-CC-PVQZ
    Blend: AUG-CC-PVQZ
  Basis Set: (AUG-CC-PVQZ AUX)
    Blend: AUG-CC-PVQZ-JKFIT

    Orbital Energies [Eh]
    ---------------------

    Doubly Occupied:

       1A   -104.824745     2A   -104.824739     3A    -11.278801
       4A    -11.278790     5A    -10.550982     6A    -10.550976
       7A     -8.018052     8A     -8.018046     9A     -8.016480
      10A     -8.016474    11A     -8.016422    12A     -8.016416
      13A     -1.134831    14A     -1.124527    15A     -0.919527
      16A     -0.905623    17A     -0.640168    18A     -0.615506
      19A     -0.612139    20A     -0.595453    21A     -0.550356
      22A     -0.538937    23A     -0.458843    24A     -0.438546
      25A     -0.437981    26A     -0.414476

  @DF-RHF Final Energy:  -998.29979879996040

   => Energetics <=

    Nuclear Repulsion Energy =            203.6359507029995939
    One-Electron Energy =               -1782.2758157176117493
    Two-Electron Energy =                 580.3400662146516424
    Total Energy =                       -998.2997987999603993

  Dipole Moment: [D]
     X:    -0.0005      Y:    -0.0001      Z:    -0.0002     Total:     0.0006

  Basis Set: (AUG-CC-PVQZ AUX)
    Blend: AUG-CC-PVQZ-RI
	 Reference Energy          =    -998.2997987999603993 [Eh]
	 Singles Energy            =      -0.0000000000000000 [Eh]
	 Same-Spin Energy          =      -0.2286103389139696 [Eh]
	 Opposite-Spin Energy      =      -0.7821239941447652 [Eh]
	 Correlation Energy        =      -1.0107343330587348 [Eh]
	 Total Energy              =    -999.3105331330191348 [Eh]

	 ================> DF-SCS-MP2 Energies <==================
	-----------------------------------------------------------
	 SCS Same-Spin Scale       =       0.3333333333333333 [-]
	 SCS Opposite-Spin Scale   =       1.2000000000000000 [-]
	 SCS Same-Spin Energy      =      -0.0762034463046565 [Eh]
	 SCS Opposite-Spin Energy  =      -0.9385487929737182 [Eh]
	 SCS Correlation Energy    =      -1.0147522392783748 [Eh]
	 SCS Total Energy          =    -999.3145510392387223 [Eh]
	-----------------------------------------------------------

*** Psi4 exiting successfully. Buy a developer a beer!
