                               Psi4 1.4a2.dev224

  ==> Input File <==

--------------------------------------------------------------------------
#Generated by lconvert.py for cbs job

memory 40 GB

molecule  {
0 1
 Cl        2.1117070    -0.5388240     0.0001810
  C        1.7625300     1.2092080     0.0001100
  H        0.6876190     1.3435830     0.0001220
  H        2.2019800     1.6438300    -0.8896620
  H        2.2020080     1.6439080     0.8898310
--
0 1
 Cl       -2.2625170     0.5387710     0.0002000
  C       -1.9136070    -1.2093120     0.0001180
  H       -2.3532480    -1.6438850    -0.8895840
  H       -2.3530310    -1.6439250     0.8899080
  H       -0.8387180    -1.3438710    -0.0000140
units angstrom
no_reorient
symmetry c1
}

set {
scf_type DF
mp2_type DF
e_convergence 7
reference rhf
}

energy('mp2/aug-cc-pv[tq]z', bsse_type='cp')
--------------------------------------------------------------------------

    Molecular point group: c1
  Charge       = 0
  Multiplicity = 1
  Basis Set: AUG-CC-PVTZ
    Blend: AUG-CC-PVTZ
  Basis Set: (AUG-CC-PVTZ AUX)
    Blend: AUG-CC-PVTZ-JKFIT
  @DF-RHF Final Energy:  -499.14887304366772
    Total Energy =                       -499.1488730436677201
  Basis Set: (AUG-CC-PVTZ AUX)
    Blend: AUG-CC-PVTZ-RI
	 Reference Energy          =    -499.1488730436677201 [Eh]
	 Singles Energy            =      -0.0000000000000000 [Eh]
	 Same-Spin Energy          =      -0.0993316450670615 [Eh]
	 Opposite-Spin Energy      =      -0.3355660825206470 [Eh]
	 Correlation Energy        =      -0.4348977275877084 [Eh]
	 Total Energy              =    -499.5837707712554447 [Eh]
	 SCS Total Energy          =    -499.5846628910481968 [Eh]
    Molecular point group: c1
  Basis Set: AUG-CC-PVQZ
    Blend: AUG-CC-PVQZ
  Basis Set: (AUG-CC-PVQZ AUX)
    Blend: AUG-CC-PVQZ-JKFIT
  @DF-RHF Final Energy:  -499.15495590995505
    Total Energy =                       -499.1549559099551061
  Basis Set: (AUG-CC-PVQZ AUX)
  @DF-RHF Final Energy:  -499.14891804653649
    Total Energy =                       -499.1489180465364939
  @DF-RHF Final Energy:  -499.15496797176286
    Total Energy =                       -499.1549679717628578
  @DF-RHF Final Energy:  -499.14891806071125
    Total Energy =                       -499.1489180607112530
  @DF-RHF Final Energy:  -499.15496798656920
    Total Energy =                       -499.1549679865692042
  @DF-RHF Final Energy:  -499.14887306653617
    Total Energy =                       -499.1488730665361686
  @DF-RHF Final Energy:  -499.15495592515771
    Total Energy =                       -499.1549559251577080
  Multiplicity = 1
  @DF-RHF Final Energy:  -998.29926550372693
    Total Energy =                       -998.2992655037269287
	 Singles Energy            =      -0.0000000000000000 [Eh]
	 Same-Spin Energy          =      -0.2003230638507685 [Eh]
	 Opposite-Spin Energy      =      -0.6734879893506096 [Eh]
	 Correlation Energy        =      -0.8738110532013781 [Eh]
	 Total Energy              =    -999.1730765569283221 [Eh]
	 SCS Total Energy          =    -999.1742254455646162 [Eh]
    Molecular point group: c1

    Geometry (in Angstrom), charge = 0, multiplicity = 1:

       Center              X                  Y                   Z               Mass
    ------------   -----------------  -----------------  -----------------  -----------------
         CL           2.187153721522    -0.538789353022     0.000014326068    34.968852682000
         C            1.837976721522     1.209242646978    -0.000056673932    12.000000000000
         H            0.763065721522     1.343617646978    -0.000044673932     1.007825032230
         H            2.277426721522     1.643864646978    -0.889828673932     1.007825032230
         H            2.277454721522     1.643942646978     0.889664326068     1.007825032230
         CL          -2.187070278478     0.538805646978     0.000033326068    34.968852682000
         C           -1.838160278478    -1.209277353022    -0.000048673932    12.000000000000
         H           -2.277801278478    -1.643850353022    -0.889750673932     1.007825032230
         H           -2.277584278478    -1.643890353022     0.889741326068     1.007825032230
         H           -0.763271278478    -1.343836353022    -0.000180673932     1.007825032230

  Charge       = 0
  Multiplicity = 1
  Basis Set: AUG-CC-PVQZ
    Blend: AUG-CC-PVQZ
  Basis Set: (AUG-CC-PVQZ AUX)
    Blend: AUG-CC-PVQZ-JKFIT

    Orbital Energies [Eh]
    ---------------------

    Doubly Occupied:

       1A   -104.825879     2A   -104.825875     3A    -11.285699
       4A    -11.285695     5A    -10.551484     6A    -10.551480
       7A     -8.018612     8A     -8.018608     9A     -8.016938
      10A     -8.016934    11A     -8.016932    12A     -8.016929
      13A     -1.129859    14A     -1.128036    15A     -0.915573
      16A     -0.913142    17A     -0.624433    18A     -0.617494
      19A     -0.616767    20A     -0.609889    21A     -0.547340
      22A     -0.544841    23A     -0.444846    24A     -0.437491
      25A     -0.437406    26A     -0.431016

  @DF-RHF Final Energy:  -998.31136232683343

   => Energetics <=

    Nuclear Repulsion Energy =            186.3654093692177867
    One-Electron Energy =               -1747.6951437821023774
    Two-Electron Energy =                 563.0183720860511585
    Total Energy =                       -998.3113623268334322

  Dipole Moment: [D]
     X:    -0.0004      Y:    -0.0001      Z:    -0.0002     Total:     0.0004

  Basis Set: (AUG-CC-PVQZ AUX)
    Blend: AUG-CC-PVQZ-RI
	 Reference Energy          =    -998.3113623268334322 [Eh]
	 Singles Energy            =      -0.0000000000000000 [Eh]
	 Same-Spin Energy          =      -0.2249725854166301 [Eh]
	 Opposite-Spin Energy      =      -0.7778239240837952 [Eh]
	 Correlation Energy        =      -1.0027965095004254 [Eh]
	 Total Energy              =    -999.3141588363338315 [Eh]

	 ================> DF-SCS-MP2 Energies <==================
	-----------------------------------------------------------
	 SCS Same-Spin Scale       =       0.3333333333333333 [-]
	 SCS Opposite-Spin Scale   =       1.2000000000000000 [-]
	 SCS Same-Spin Energy      =      -0.0749908618055434 [Eh]
	 SCS Opposite-Spin Energy  =      -0.9333887089005541 [Eh]
	 SCS Correlation Energy    =      -1.0083795707060976 [Eh]
	 SCS Total Energy          =    -999.3197418975395294 [Eh]
	-----------------------------------------------------------

*** Psi4 exiting successfully. Buy a developer a beer!
