                               Psi4 1.4a2.dev224

  ==> Input File <==

--------------------------------------------------------------------------
#Generated by lconvert.py for cbs job

memory 40 GB

molecule  {
0 1
 Cl        2.1117070    -0.5388240     0.0001810
  C        1.7625300     1.2092080     0.0001100
  H        0.6876190     1.3435830     0.0001220
  H        2.2019800     1.6438300    -0.8896620
  H        2.2020080     1.6439080     0.8898310
--
0 1
 Cl       -2.4795100     0.5385840     0.0002000
  C       -2.1306000    -1.2094990     0.0001180
  H       -2.5702410    -1.6440720    -0.8895840
  H       -2.5700240    -1.6441120     0.8899080
  H       -1.0557110    -1.3440580    -0.0000140
units angstrom
no_reorient
symmetry c1
}

set {
scf_type DF
mp2_type DF
e_convergence 7
reference rhf
}

energy('mp2/aug-cc-pv[tq]z', bsse_type='cp')
--------------------------------------------------------------------------

    Molecular point group: c1
  Charge       = 0
  Multiplicity = 1
  Basis Set: AUG-CC-PVTZ
    Blend: AUG-CC-PVTZ
  Basis Set: (AUG-CC-PVTZ AUX)
    Blend: AUG-CC-PVTZ-JKFIT
  @DF-RHF Final Energy:  -499.14887304361253
    Total Energy =                       -499.1488730436125252
  Basis Set: (AUG-CC-PVTZ AUX)
    Blend: AUG-CC-PVTZ-RI
	 Reference Energy          =    -499.1488730436125252 [Eh]
	 Singles Energy            =      -0.0000000000000000 [Eh]
	 Same-Spin Energy          =      -0.0993316450668661 [Eh]
	 Opposite-Spin Energy      =      -0.3355660825198958 [Eh]
	 Correlation Energy        =      -0.4348977275867618 [Eh]
	 Total Energy              =    -499.5837707711992834 [Eh]
	 SCS Total Energy          =    -499.5846628909920355 [Eh]
    Molecular point group: c1
  Basis Set: AUG-CC-PVQZ
    Blend: AUG-CC-PVQZ
  Basis Set: (AUG-CC-PVQZ AUX)
    Blend: AUG-CC-PVQZ-JKFIT
  @DF-RHF Final Energy:  -499.15495590997210
    Total Energy =                       -499.1549559099720454
  Basis Set: (AUG-CC-PVQZ AUX)
  @DF-RHF Final Energy:  -499.14891122139875
    Total Energy =                       -499.1489112213987482
  @DF-RHF Final Energy:  -499.15496636308069
    Total Energy =                       -499.1549663630806890
  @DF-RHF Final Energy:  -499.14891123609021
    Total Energy =                       -499.1489112360902141
  @DF-RHF Final Energy:  -499.15496637764932
    Total Energy =                       -499.1549663776493162
  @DF-RHF Final Energy:  -499.14887306642458
    Total Energy =                       -499.1488730664245850
  @DF-RHF Final Energy:  -499.15495592518732
    Total Energy =                       -499.1549559251873234
  Multiplicity = 1
  @DF-RHF Final Energy:  -998.29945558447309
    Total Energy =                       -998.2994555844730939
	 Singles Energy            =      -0.0000000000000000 [Eh]
	 Same-Spin Energy          =      -0.1998668559084935 [Eh]
	 Opposite-Spin Energy      =      -0.6728467283852528 [Eh]
	 Correlation Energy        =      -0.8727135842937463 [Eh]
	 Total Energy              =    -999.1721691687667999 [Eh]
	 SCS Total Energy          =    -999.1734939438382526 [Eh]
    Molecular point group: c1

    Geometry (in Angstrom), charge = 0, multiplicity = 1:

       Center              X                  Y                   Z               Mass
    ------------   -----------------  -----------------  -----------------  -----------------
         CL           2.295650221522    -0.538695853022     0.000014326068    34.968852682000
         C            1.946473221522     1.209336146978    -0.000056673932    12.000000000000
         H            0.871562221522     1.343711146978    -0.000044673932     1.007825032230
         H            2.385923221522     1.643958146978    -0.889828673932     1.007825032230
         H            2.385951221522     1.644036146978     0.889664326068     1.007825032230
         CL          -2.295566778478     0.538712146978     0.000033326068    34.968852682000
         C           -1.946656778478    -1.209370853022    -0.000048673932    12.000000000000
         H           -2.386297778478    -1.643943853022    -0.889750673932     1.007825032230
         H           -2.386080778478    -1.643983853022     0.889741326068     1.007825032230
         H           -0.871767778478    -1.343929853022    -0.000180673932     1.007825032230

  Charge       = 0
  Multiplicity = 1
  Basis Set: AUG-CC-PVQZ
    Blend: AUG-CC-PVQZ
  Basis Set: (AUG-CC-PVQZ AUX)
    Blend: AUG-CC-PVQZ-JKFIT

    Orbital Energies [Eh]
    ---------------------

    Doubly Occupied:

       1A   -104.825819     2A   -104.825816     3A    -11.286501
       4A    -11.286498     5A    -10.551383     6A    -10.551380
       7A     -8.018514     8A     -8.018510     9A     -8.016830
      10A     -8.016827    11A     -8.016827    12A     -8.016823
      13A     -1.129446    14A     -1.128341    15A     -0.915429
      16A     -0.913973    17A     -0.622735    18A     -0.617820
      19A     -0.617350    20A     -0.612403    21A     -0.547005
      22A     -0.545361    23A     -0.442610    24A     -0.437324
      25A     -0.437275    26A     -0.432873

  @DF-RHF Final Energy:  -998.31155937961375

   => Energetics <=

    Nuclear Repulsion Energy =            182.4614225643652503
    One-Electron Energy =               -1739.8826121220051846
    Two-Electron Energy =                 559.1096301780262365
    Total Energy =                       -998.3115593796137546

  Dipole Moment: [D]
     X:    -0.0004      Y:    -0.0001      Z:    -0.0002     Total:     0.0004

  Basis Set: (AUG-CC-PVQZ AUX)
    Blend: AUG-CC-PVQZ-RI
	 Reference Energy          =    -998.3115593796137546 [Eh]
	 Singles Energy            =      -0.0000000000000000 [Eh]
	 Same-Spin Energy          =      -0.2245478337615426 [Eh]
	 Opposite-Spin Energy      =      -0.7773405871428650 [Eh]
	 Correlation Energy        =      -1.0018884209044077 [Eh]
	 Total Energy              =    -999.3134478005181336 [Eh]

	 ================> DF-SCS-MP2 Energies <==================
	-----------------------------------------------------------
	 SCS Same-Spin Scale       =       0.3333333333333333 [-]
	 SCS Opposite-Spin Scale   =       1.2000000000000000 [-]
	 SCS Same-Spin Energy      =      -0.0748492779205142 [Eh]
	 SCS Opposite-Spin Energy  =      -0.9328087045714379 [Eh]
	 SCS Correlation Energy    =      -1.0076579824919520 [Eh]
	 SCS Total Energy          =    -999.3192173621057464 [Eh]
	-----------------------------------------------------------

*** Psi4 exiting successfully. Buy a developer a beer!
