                               Psi4 1.4a2.dev224

  ==> Input File <==

--------------------------------------------------------------------------
#Generated by lconvert.py for cbs job

memory 20 GB

molecule  {
0 1
 Cl       2.111710   -0.538820    0.000180
  C       1.762530    1.209210    0.000110
  H       0.687620    1.343580    0.000120
  H       2.201980    1.643830   -0.889660
  H       2.202010    1.643910    0.889830
--
0 1
 Cl      -4.985310    0.536420    0.000210
  C      -4.636400   -1.211660    0.000130
  H      -5.076040   -1.646230   -0.889580
  H      -5.075820   -1.646270    0.889920
  H      -3.561510   -1.346220   -0.000010
units angstrom
no_reorient
symmetry c1
}

set {
scf_type DF
mp2_type DF
e_convergence 7
reference rhf
}

energy('mp2/aug-cc-pv[tq]z', bsse_type='cp')
--------------------------------------------------------------------------

    Molecular point group: c1
  Charge       = 0
  Multiplicity = 1
  Basis Set: AUG-CC-PVTZ
    Blend: AUG-CC-PVTZ
  Basis Set: (AUG-CC-PVTZ AUX)
    Blend: AUG-CC-PVTZ-JKFIT
  @DF-RHF Final Energy:  -499.14887300926949
    Total Energy =                       -499.1488730092694368
  Basis Set: (AUG-CC-PVTZ AUX)
    Blend: AUG-CC-PVTZ-RI
	 Reference Energy          =    -499.1488730092694937 [Eh]
	 Singles Energy            =      -0.0000000000000000 [Eh]
	 Same-Spin Energy          =      -0.0993316739329027 [Eh]
	 Opposite-Spin Energy      =      -0.3355661048089260 [Eh]
	 Correlation Energy        =      -0.4348977787418288 [Eh]
	 Total Energy              =    -499.5837707880113499 [Eh]
	 SCS Total Energy          =    -499.5846628930178213 [Eh]
    Molecular point group: c1
  Basis Set: AUG-CC-PVQZ
    Blend: AUG-CC-PVQZ
  Basis Set: (AUG-CC-PVQZ AUX)
    Blend: AUG-CC-PVQZ-JKFIT
  @DF-RHF Final Energy:  -499.15495588115931
    Total Energy =                       -499.1549558811593101
  Basis Set: (AUG-CC-PVQZ AUX)
  @DF-RHF Final Energy:  -499.14887505580623
    Total Energy =                       -499.1488750558062293
  @DF-RHF Final Energy:  -499.15495678899657
    Total Energy =                       -499.1549567889965147
  @DF-RHF Final Energy:  -499.14887514666657
    Total Energy =                       -499.1488751466665690
  @DF-RHF Final Energy:  -499.15495687298932
    Total Energy =                       -499.1549568729893167
  @DF-RHF Final Energy:  -499.14887310077626
    Total Energy =                       -499.1488731007763135
  @DF-RHF Final Energy:  -499.15495596484504
    Total Energy =                       -499.1549559648450440
  Multiplicity = 1
  @DF-RHF Final Energy:  -998.29816290400265
    Total Energy =                       -998.2981629040026519
	 Singles Energy            =      -0.0000000000000000 [Eh]
	 Same-Spin Energy          =      -0.1987163570566187 [Eh]
	 Opposite-Spin Energy      =      -0.6711965519740144 [Eh]
	 Correlation Energy        =      -0.8699129090306331 [Eh]
	 Total Energy              =    -999.1680758130332833 [Eh]
	 SCS Total Energy          =    -999.1698375520570607 [Eh]
    Molecular point group: c1

    Geometry (in Angstrom), charge = 0, multiplicity = 1:

       Center              X                  Y                   Z               Mass
    ------------   -----------------  -----------------  -----------------  -----------------
         CL           3.548552081577    -0.537611983120     0.000008546651    34.968852682000
         C            3.199372081577     1.210418016880    -0.000061453349    12.000000000000
         H            2.124462081577     1.344788016880    -0.000051453349     1.007825032230
         H            3.638822081577     1.645038016880    -0.889831453349     1.007825032230
         H            3.638852081577     1.645118016880     0.889658546651     1.007825032230
         CL          -3.548467918423     0.537628016880     0.000038546651    34.968852682000
         C           -3.199557918423    -1.210451983120    -0.000041453349    12.000000000000
         H           -3.639197918423    -1.645021983120    -0.889751453349     1.007825032230
         H           -3.638977918423    -1.645061983120     0.889748546651     1.007825032230
         H           -2.124667918423    -1.345011983120    -0.000181453349     1.007825032230

  Charge       = 0
  Multiplicity = 1
  Basis Set: AUG-CC-PVQZ
    Blend: AUG-CC-PVQZ
  Basis Set: (AUG-CC-PVQZ AUX)
    Blend: AUG-CC-PVQZ-JKFIT

    Orbital Energies [Eh]
    ---------------------

    Doubly Occupied:

       1A   -104.824805     2A   -104.824803     3A    -11.288734
       4A    -11.288732     5A    -10.550298     6A    -10.550297
       7A     -8.017429     8A     -8.017428     9A     -8.015718
      10A     -8.015717    11A     -8.015716    12A     -8.015716
      13A     -1.128382    14A     -1.128379    15A     -0.915791
      16A     -0.915789    17A     -0.619495    18A     -0.619356
      19A     -0.618967    20A     -0.618965    21A     -0.546053
      22A     -0.546036    23A     -0.436554    24A     -0.436416
      25A     -0.436328    26A     -0.436327

  @DF-RHF Final Energy:  -998.31032182454044

   => Energetics <=

    Nuclear Repulsion Energy =            154.3323985202201811
    One-Electron Energy =               -1683.6289749656075401
    Two-Electron Energy =                 530.9862546208470349
    Total Energy =                       -998.3103218245404378

  Dipole Moment: [D]
     X:    -0.0003      Y:    -0.0000      Z:    -0.0002     Total:     0.0004

  Basis Set: (AUG-CC-PVQZ AUX)
    Blend: AUG-CC-PVQZ-RI
	 Reference Energy          =    -998.3103218245404378 [Eh]
	 Singles Energy            =      -0.0000000000000000 [Eh]
	 Same-Spin Energy          =      -0.2235308028195824 [Eh]
	 Opposite-Spin Energy      =      -0.7762135809843330 [Eh]
	 Correlation Energy        =      -0.9997443838039155 [Eh]
	 Total Energy              =    -999.3100662083443240 [Eh]

	 ================> DF-SCS-MP2 Energies <==================
	-----------------------------------------------------------
	 SCS Same-Spin Scale       =       0.3333333333333333 [-]
	 SCS Opposite-Spin Scale   =       1.2000000000000000 [-]
	 SCS Same-Spin Energy      =      -0.0745102676065275 [Eh]
	 SCS Opposite-Spin Energy  =      -0.9314562971811996 [Eh]
	 SCS Correlation Energy    =      -1.0059665647877272 [Eh]
	 SCS Total Energy          =    -999.3162883893281787 [Eh]
	-----------------------------------------------------------

*** Psi4 exiting successfully. Buy a developer a beer!
