                               Psi4 1.4a2.dev224

  ==> Input File <==

--------------------------------------------------------------------------
#Generated by lconvert.py for cbs job

memory 40 GB

molecule  {
0 1
 Cl        2.1117070    -0.5388240     0.0001810
  C        1.7625300     1.2092080     0.0001100
  H        0.6876190     1.3435830     0.0001220
  H        2.2019800     1.6438300    -0.8896620
  H        2.2020080     1.6439080     0.8898310
--
0 1
 Cl       -1.9595460     0.5390320     0.0001980
  C       -1.6106360    -1.2090510     0.0001160
  H       -2.0502770    -1.6436240    -0.8895860
  H       -2.0500600    -1.6436640     0.8899060
  H       -0.5357470    -1.3436100    -0.0000160
units angstrom
no_reorient
symmetry c1
}

set {
scf_type DF
mp2_type DF
e_convergence 7
reference rhf
}

energy('mp2/aug-cc-pv[tq]z', bsse_type='cp')
--------------------------------------------------------------------------

    Molecular point group: c1
  Charge       = 0
  Multiplicity = 1
  Basis Set: AUG-CC-PVTZ
    Blend: AUG-CC-PVTZ
  Basis Set: (AUG-CC-PVTZ AUX)
    Blend: AUG-CC-PVTZ-JKFIT
  @DF-RHF Final Energy:  -499.14887304359371
    Total Energy =                       -499.1488730435937100
  Basis Set: (AUG-CC-PVTZ AUX)
    Blend: AUG-CC-PVTZ-RI
	 Reference Energy          =    -499.1488730435937100 [Eh]
	 Singles Energy            =      -0.0000000000000000 [Eh]
	 Same-Spin Energy          =      -0.0993316450670690 [Eh]
	 Opposite-Spin Energy      =      -0.3355660825210616 [Eh]
	 Correlation Energy        =      -0.4348977275881305 [Eh]
	 Total Energy              =    -499.5837707711818325 [Eh]
	 SCS Total Energy          =    -499.5846628909746983 [Eh]
    Molecular point group: c1
  Basis Set: AUG-CC-PVQZ
    Blend: AUG-CC-PVQZ
  Basis Set: (AUG-CC-PVQZ AUX)
    Blend: AUG-CC-PVQZ-JKFIT
  @DF-RHF Final Energy:  -499.15495590998188
    Total Energy =                       -499.1549559099819362
  Basis Set: (AUG-CC-PVQZ AUX)
  @DF-RHF Final Energy:  -499.14892878584163
    Total Energy =                       -499.1489287858415764
  @DF-RHF Final Energy:  -499.15497118400748
    Total Energy =                       -499.1549711840074792
  @DF-RHF Final Energy:  -499.14892879941351
    Total Energy =                       -499.1489287994135111
  @DF-RHF Final Energy:  -499.15497119802080
    Total Energy =                       -499.1549711980208031
  @DF-RHF Final Energy:  -499.14887306646949
    Total Energy =                       -499.1488730664694913
  @DF-RHF Final Energy:  -499.15495592508023
    Total Energy =                       -499.1549559250802304
  Multiplicity = 1
  @DF-RHF Final Energy:  -998.29788967915238
    Total Energy =                       -998.2978896791523766
	 Singles Energy            =      -0.0000000000000000 [Eh]
	 Same-Spin Energy          =      -0.2012801800579180 [Eh]
	 Opposite-Spin Energy      =      -0.6747968162346025 [Eh]
	 Correlation Energy        =      -0.8760769962925206 [Eh]
	 Total Energy              =    -999.1739666754449445 [Eh]
	 SCS Total Energy          =    -999.1747392519865798 [Eh]
    Molecular point group: c1

    Geometry (in Angstrom), charge = 0, multiplicity = 1:

       Center              X                  Y                   Z               Mass
    ------------   -----------------  -----------------  -----------------  -----------------
         CL           2.035668221522    -0.538919853022     0.000015326068    34.968852682000
         C            1.686491221522     1.209112146978    -0.000055673932    12.000000000000
         H            0.611580221522     1.343487146978    -0.000043673932     1.007825032230
         H            2.125941221522     1.643734146978    -0.889827673932     1.007825032230
         H            2.125969221522     1.643812146978     0.889665326068     1.007825032230
         CL          -2.035584778478     0.538936146978     0.000032326068    34.968852682000
         C           -1.686674778478    -1.209146853022    -0.000049673932    12.000000000000
         H           -2.126315778478    -1.643719853022    -0.889751673932     1.007825032230
         H           -2.126098778478    -1.643759853022     0.889740326068     1.007825032230
         H           -0.611785778478    -1.343705853022    -0.000181673932     1.007825032230

  Charge       = 0
  Multiplicity = 1
  Basis Set: AUG-CC-PVQZ
    Blend: AUG-CC-PVQZ
  Basis Set: (AUG-CC-PVQZ AUX)
    Blend: AUG-CC-PVQZ-JKFIT

    Orbital Energies [Eh]
    ---------------------

    Doubly Occupied:

       1A   -104.825785     2A   -104.825780     3A    -11.283968
       4A    -11.283963     5A    -10.551507     6A    -10.551502
       7A     -8.018627     8A     -8.018623     9A     -8.016973
      10A     -8.016969    11A     -8.016961    12A     -8.016957
      13A     -1.130876    14A     -1.127228    15A     -0.916180
      16A     -0.911272    17A     -0.628268    18A     -0.616877
      19A     -0.615544    20A     -0.605121    21A     -0.548069
      22A     -0.543548    23A     -0.449233    24A     -0.437772
      25A     -0.437593    26A     -0.426890

  @DF-RHF Final Energy:  -998.30997492602864

   => Energetics <=

    Nuclear Repulsion Energy =            192.4814927523049732
    One-Electron Energy =               -1759.9387626120742425
    Two-Electron Energy =                 569.1472949337405680
    Total Energy =                       -998.3099749260286444

  Dipole Moment: [D]
     X:    -0.0004      Y:    -0.0001      Z:    -0.0002     Total:     0.0005

  Basis Set: (AUG-CC-PVQZ AUX)
    Blend: AUG-CC-PVQZ-RI
	 Reference Energy          =    -998.3099749260286444 [Eh]
	 Singles Energy            =      -0.0000000000000000 [Eh]
	 Same-Spin Energy          =      -0.2259054262437511 [Eh]
	 Opposite-Spin Energy      =      -0.7789128995450155 [Eh]
	 Correlation Energy        =      -1.0048183257887666 [Eh]
	 Total Energy              =    -999.3147932518173775 [Eh]

	 ================> DF-SCS-MP2 Energies <==================
	-----------------------------------------------------------
	 SCS Same-Spin Scale       =       0.3333333333333333 [-]
	 SCS Opposite-Spin Scale   =       1.2000000000000000 [-]
	 SCS Same-Spin Energy      =      -0.0753018087479170 [Eh]
	 SCS Opposite-Spin Energy  =      -0.9346954794540185 [Eh]
	 SCS Correlation Energy    =      -1.0099972882019355 [Eh]
	 SCS Total Energy          =    -999.3199722142305745 [Eh]
	-----------------------------------------------------------

*** Psi4 exiting successfully. Buy a developer a beer!
