                               Psi4 1.4a2.dev224

  ==> Input File <==

--------------------------------------------------------------------------
#Generated by lconvert.py for cbs job

memory 40 GB

molecule  {
0 1
 Cl       -1.0101650     0.0000090     0.0000000
  C       -2.7902180     0.0000240     0.0000000
  H       -3.1336600     1.0274250     0.0000000
  H       -3.1336730    -0.5136730     0.8897530
  H       -3.1336730    -0.5136730    -0.8897530
--
0 1
 Cl        3.1999730     0.0000150     0.0000000
  C        1.4200400     0.0000170     0.0000000
  H        1.0738660     1.0266260     0.0000000
  H        1.0738650    -0.5132870     0.8890690
  H        1.0738650    -0.5132870    -0.8890690
units angstrom
no_reorient
symmetry c1
}

set {
scf_type DF
mp2_type DF
e_convergence 7
reference rhf
}

energy('mp2/aug-cc-pv[tq]z', bsse_type='cp')
--------------------------------------------------------------------------

    Molecular point group: c1
  Charge       = 0
  Multiplicity = 1
  Basis Set: AUG-CC-PVTZ
    Blend: AUG-CC-PVTZ
  Basis Set: (AUG-CC-PVTZ AUX)
    Blend: AUG-CC-PVTZ-JKFIT
  @DF-RHF Final Energy:  -499.14885293203372
    Total Energy =                       -499.1488529320337193
  Basis Set: (AUG-CC-PVTZ AUX)
    Blend: AUG-CC-PVTZ-RI
	 Reference Energy          =    -499.1488529320337193 [Eh]
	 Singles Energy            =      -0.0000000000000000 [Eh]
	 Same-Spin Energy          =      -0.0993529621698359 [Eh]
	 Opposite-Spin Energy      =      -0.3355738137173587 [Eh]
	 Correlation Energy        =      -0.4349267758871946 [Eh]
	 Total Energy              =    -499.5837797079209395 [Eh]
	 SCS Total Energy          =    -499.5846591625511337 [Eh]
    Molecular point group: c1
  Basis Set: AUG-CC-PVQZ
    Blend: AUG-CC-PVQZ
  Basis Set: (AUG-CC-PVQZ AUX)
    Blend: AUG-CC-PVQZ-JKFIT
  @DF-RHF Final Energy:  -499.15494479408329
    Total Energy =                       -499.1549447940833488
  Basis Set: (AUG-CC-PVQZ AUX)
  @DF-RHF Final Energy:  -499.14891085137594
    Total Energy =                       -499.1489108513759447
  @DF-RHF Final Energy:  -499.15496557933898
    Total Energy =                       -499.1549655793389775
  @DF-RHF Final Energy:  -499.14899885660014
    Total Energy =                       -499.1489988566001443
  @DF-RHF Final Energy:  -499.15498492868733
    Total Energy =                       -499.1549849286873268
  @DF-RHF Final Energy:  -499.14886493234519
    Total Energy =                       -499.1488649323451909
  @DF-RHF Final Energy:  -499.15495561300202
    Total Energy =                       -499.1549556130020164
  @DF-RHF Final Energy:  -998.26405317832427
    Total Energy =                       -998.2640531783242750
  @DF-RHF Final Energy:  -998.27617338400114
    Total Energy =                       -998.2761733840011402
*** Psi4 exiting successfully. Buy a developer a beer!
                               Psi4 1.4a2.dev224
  @DF-RHF Final Energy:  -499.14885293201206
    Total Energy =                       -499.1488529320120620
  @DF-RHF Final Energy:  -499.15494479394533
    Total Energy =                       -499.1549447939453330
  @DF-RHF Final Energy:  -499.14889678538486
    Total Energy =                       -499.1488967853848635
  @DF-RHF Final Energy:  -499.15496221067502
    Total Energy =                       -499.1549622106750235
  @DF-RHF Final Energy:  -499.14895747851807
    Total Energy =                       -499.1489574785180707
  @DF-RHF Final Energy:  -499.15497209636794
    Total Energy =                       -499.1549720963679420
  @DF-RHF Final Energy:  -499.14886493236384
    Total Energy =                       -499.1488649323638356
  @DF-RHF Final Energy:  -499.15495561296314
    Total Energy =                       -499.1549556129631355
  @DF-RHF Final Energy:  -998.28880686675677
    Total Energy =                       -998.2888068667567723
  @DF-RHF Final Energy:  -998.30090799618449
    Total Energy =                       -998.3009079961844918
*** Psi4 exiting successfully. Buy a developer a beer!
                               Psi4 1.4a2.dev224
                               Psi4 1.4a2.dev224
                               Psi4 1.4a2.dev224
                               Psi4 1.4a2.dev224
                               Psi4 1.4a2.dev224
                               Psi4 1.4a2.dev224
                               Psi4 1.4a2.dev224
  @DF-RHF Final Energy:  -499.14885302542865
    Total Energy =                       -499.1488530254287070
  @DF-RHF Final Energy:  -499.15494487069770
    Total Energy =                       -499.1549448706977046
  @DF-RHF Final Energy:  -499.14885469978623
    Total Energy =                       -499.1488546997862272
  @DF-RHF Final Energy:  -499.15494612027919
    Total Energy =                       -499.1549461202791917
  @DF-RHF Final Energy:  -499.14887106797784
    Total Energy =                       -499.1488710679777796
  @DF-RHF Final Energy:  -499.15495699344996
    Total Energy =                       -499.1549569934499573
  @DF-RHF Final Energy:  -499.14886503000940
    Total Energy =                       -499.1488650300094037
  @DF-RHF Final Energy:  -499.15495569467828
    Total Energy =                       -499.1549556946782786
  @DF-RHF Final Energy:  -998.29813978252844
    Total Energy =                       -998.2981397825284375
  @DF-RHF Final Energy:  -998.31031271741540
    Total Energy =                       -998.3103127174153997
*** Psi4 exiting successfully. Buy a developer a beer!
                               Psi4 1.4a2.dev224
  @DF-RHF Final Energy:  -499.14885299269304
    Total Energy =                       -499.1488529926930369
  @DF-RHF Final Energy:  -499.15494486454583
    Total Energy =                       -499.1549448645458256
  @DF-RHF Final Energy:  -499.14885343374556
    Total Energy =                       -499.1488534337455576
  @DF-RHF Final Energy:  -499.15494525968870
    Total Energy =                       -499.1549452596887022
  @DF-RHF Final Energy:  -499.14886778767828
    Total Energy =                       -499.1488677876782845
  @DF-RHF Final Energy:  -499.15495614361265
    Total Energy =                       -499.1549561436126510
  @DF-RHF Final Energy:  -499.14886503008051
    Total Energy =                       -499.1488650300805148
  @DF-RHF Final Energy:  -499.15495569470278
    Total Energy =                       -499.1549556947027781
  Multiplicity = 1
  @DF-RHF Final Energy:  -998.29800814869600
    Total Energy =                       -998.2980081486959989
	 Singles Energy            =      -0.0000000000000000 [Eh]
	 Same-Spin Energy          =      -0.1987252327555877 [Eh]
	 Opposite-Spin Energy      =      -0.6711717740771278 [Eh]
	 Correlation Energy        =      -0.8698970068327155 [Eh]
	 Total Energy              =    -999.1679051555287288 [Eh]
	 SCS Total Energy          =    -999.1696560218404102 [Eh]
    Molecular point group: c1

    Geometry (in Angstrom), charge = 0, multiplicity = 1:

       Center              X                  Y                   Z               Mass
    ------------   -----------------  -----------------  -----------------  -----------------
         CL          -3.717035120936    -0.000008105954     0.000000000000    34.968852682000
         C           -5.497095120936     0.000001894046     0.000000000000    12.000000000000
         H           -5.840535120936     1.027411894046     0.000000000000     1.007825032230
         H           -5.840545120936    -0.513688105954     0.889750000000     1.007825032230
         H           -5.840545120936    -0.513688105954    -0.889750000000     1.007825032230
         CL           4.828574879064     0.000001894046     0.000000000000    34.968852682000
         C            3.048644879064     0.000011894046     0.000000000000    12.000000000000
         H            2.702474879064     1.026611894046     0.000000000000     1.007825032230
         H            2.702474879064    -0.513298105954     0.889070000000     1.007825032230
         H            2.702474879064    -0.513298105954    -0.889070000000     1.007825032230

  Charge       = 0
  Multiplicity = 1
  Basis Set: AUG-CC-PVQZ
    Blend: AUG-CC-PVQZ
  Basis Set: (AUG-CC-PVQZ AUX)
    Blend: AUG-CC-PVQZ-JKFIT

    Orbital Energies [Eh]
    ---------------------

    Doubly Occupied:

       1A   -104.827835     2A   -104.821542     3A    -11.291438
       4A    -11.284926     5A    -10.553361     6A    -10.547047
       7A     -8.020500     8A     -8.018782     9A     -8.018782
      10A     -8.014183    11A     -8.012464    12A     -8.012464
      13A     -1.131927    14A     -1.125446    15A     -0.918738
      16A     -0.912355    17A     -0.622007    18A     -0.622003
      19A     -0.615208    20A     -0.615205    21A     -0.549921
      22A     -0.543730    23A     -0.439294    24A     -0.439294
      25A     -0.432904    26A     -0.432903

  @DF-RHF Final Energy:  -998.31018537655757

   => Energetics <=

    Nuclear Repulsion Energy =            145.6551199349989076
    One-Electron Energy =               -1666.2820884631992158
    Two-Electron Energy =                 522.3167831516426531
    Total Energy =                       -998.3101853765575697

  Dipole Moment: [D]
     X:    -4.3010      Y:     0.0000      Z:    -0.0000     Total:     4.3010

  Basis Set: (AUG-CC-PVQZ AUX)
    Blend: AUG-CC-PVQZ-RI
	 Reference Energy          =    -998.3101853765575697 [Eh]
	 Singles Energy            =      -0.0000000000000000 [Eh]
	 Same-Spin Energy          =      -0.2235460070171174 [Eh]
	 Opposite-Spin Energy      =      -0.7761958554239807 [Eh]
	 Correlation Energy        =      -0.9997418624410981 [Eh]
	 Total Energy              =    -999.3099272389986254 [Eh]

	 ================> DF-SCS-MP2 Energies <==================
	-----------------------------------------------------------
	 SCS Same-Spin Scale       =       0.3333333333333333 [-]
	 SCS Opposite-Spin Scale   =       1.2000000000000000 [-]
	 SCS Same-Spin Energy      =      -0.0745153356723725 [Eh]
	 SCS Opposite-Spin Energy  =      -0.9314350265087769 [Eh]
	 SCS Correlation Energy    =      -1.0059503621811494 [Eh]
	 SCS Total Energy          =    -999.3161357387386943 [Eh]
	-----------------------------------------------------------

*** Psi4 exiting successfully. Buy a developer a beer!
