                               Psi4 1.4a2.dev224

  ==> Input File <==

--------------------------------------------------------------------------
#Generated by lconvert.py for cbs job

memory 40 GB

molecule  {
0 1
 Cl       -1.0101650     0.0000090     0.0000000
  C       -2.7902180     0.0000240     0.0000000
  H       -3.1336600     1.0274250     0.0000000
  H       -3.1336730    -0.5136730     0.8897530
  H       -3.1336730    -0.5136730    -0.8897530
--
0 1
 Cl        3.5644950     0.0000160     0.0000000
  C        1.7845620     0.0000180     0.0000000
  H        1.4383880     1.0266270     0.0000000
  H        1.4383870    -0.5132860     0.8890690
  H        1.4383870    -0.5132860    -0.8890690
units angstrom
no_reorient
symmetry c1
}

set {
scf_type DF
mp2_type DF
e_convergence 7
reference rhf
}

energy('mp2/aug-cc-pv[tq]z', bsse_type='cp')
--------------------------------------------------------------------------

    Molecular point group: c1
  Charge       = 0
  Multiplicity = 1
  Basis Set: AUG-CC-PVTZ
    Blend: AUG-CC-PVTZ
  Basis Set: (AUG-CC-PVTZ AUX)
    Blend: AUG-CC-PVTZ-JKFIT
  @DF-RHF Final Energy:  -499.14885293201206
    Total Energy =                       -499.1488529320120620
  Basis Set: (AUG-CC-PVTZ AUX)
    Blend: AUG-CC-PVTZ-RI
	 Reference Energy          =    -499.1488529320120620 [Eh]
	 Singles Energy            =      -0.0000000000000000 [Eh]
	 Same-Spin Energy          =      -0.0993529621698012 [Eh]
	 Opposite-Spin Energy      =      -0.3355738137168190 [Eh]
	 Correlation Energy        =      -0.4349267758866203 [Eh]
	 Total Energy              =    -499.5837797078986569 [Eh]
	 SCS Total Energy          =    -499.5846591625288511 [Eh]
    Molecular point group: c1
  Basis Set: AUG-CC-PVQZ
    Blend: AUG-CC-PVQZ
  Basis Set: (AUG-CC-PVQZ AUX)
    Blend: AUG-CC-PVQZ-JKFIT
  @DF-RHF Final Energy:  -499.15494479394533
    Total Energy =                       -499.1549447939453330
  Basis Set: (AUG-CC-PVQZ AUX)
  @DF-RHF Final Energy:  -499.14889678538486
    Total Energy =                       -499.1488967853848635
  @DF-RHF Final Energy:  -499.15496221067502
    Total Energy =                       -499.1549622106750235
  @DF-RHF Final Energy:  -499.14895747851807
    Total Energy =                       -499.1489574785180707
  @DF-RHF Final Energy:  -499.15497209636794
    Total Energy =                       -499.1549720963679420
  @DF-RHF Final Energy:  -499.14886493236384
    Total Energy =                       -499.1488649323638356
  @DF-RHF Final Energy:  -499.15495561296314
    Total Energy =                       -499.1549556129631355
  Multiplicity = 1
  @DF-RHF Final Energy:  -998.28880686675677
    Total Energy =                       -998.2888068667567723
	 Singles Energy            =      -0.0000000000000000 [Eh]
	 Same-Spin Energy          =      -0.2024419838101668 [Eh]
	 Opposite-Spin Energy      =      -0.6761546137738542 [Eh]
	 Correlation Energy        =      -0.8785965975840210 [Eh]
	 Total Energy              =    -999.1674034643407367 [Eh]
	 SCS Total Energy          =    -999.1676730645554017 [Eh]
    Molecular point group: c1

    Geometry (in Angstrom), charge = 0, multiplicity = 1:

       Center              X                  Y                   Z               Mass
    ------------   -----------------  -----------------  -----------------  -----------------
         CL          -1.731560459892    -0.000006135021     0.000000000000    34.968852682000
         C           -3.511613459892     0.000008864979     0.000000000000    12.000000000000
         H           -3.855055459892     1.027409864979     0.000000000000     1.007825032230
         H           -3.855068459892    -0.513688135021     0.889753000000     1.007825032230
         H           -3.855068459892    -0.513688135021    -0.889753000000     1.007825032230
         CL           2.843099540108     0.000000864979     0.000000000000    34.968852682000
         C            1.063166540108     0.000002864979     0.000000000000    12.000000000000
         H            0.716992540108     1.026611864979     0.000000000000     1.007825032230
         H            0.716991540108    -0.513301135021     0.889069000000     1.007825032230
         H            0.716991540108    -0.513301135021    -0.889069000000     1.007825032230

  Charge       = 0
  Multiplicity = 1
  Basis Set: AUG-CC-PVQZ
    Blend: AUG-CC-PVQZ
  Basis Set: (AUG-CC-PVQZ AUX)
    Blend: AUG-CC-PVQZ-JKFIT

    Orbital Energies [Eh]
    ---------------------

    Doubly Occupied:

       1A   -104.834334     2A   -104.813501     3A    -11.296195
       4A    -11.275136     5A    -10.560668     6A    -10.539155
       7A     -8.027786     8A     -8.025954     9A     -8.025954
      10A     -8.006290    11A     -8.004607    12A     -8.004607
      13A     -1.141672    14A     -1.117732    15A     -0.932918
      16A     -0.900423    17A     -0.628110    18A     -0.628109
      19A     -0.608365    20A     -0.608365    21A     -0.573102
      22A     -0.520438    23A     -0.450128    24A     -0.450128
      25A     -0.423585    26A     -0.423585

  @DF-RHF Final Energy:  -998.30090799618449

   => Energetics <=

    Nuclear Repulsion Energy =            187.5170380172070281
    One-Electron Energy =               -1749.9941876620666790
    Two-Electron Energy =                 564.1762416486752727
    Total Energy =                       -998.3009079961844918

  Dipole Moment: [D]
     X:    -4.5402      Y:     0.0000      Z:     0.0000     Total:     4.5402

  Basis Set: (AUG-CC-PVQZ AUX)
    Blend: AUG-CC-PVQZ-RI
	 Reference Energy          =    -998.3009079961844918 [Eh]
	 Singles Energy            =      -0.0000000000000000 [Eh]
	 Same-Spin Energy          =      -0.2272606296731952 [Eh]
	 Opposite-Spin Energy      =      -0.7807848437113400 [Eh]
	 Correlation Energy        =      -1.0080454733845352 [Eh]
	 Total Energy              =    -999.3089534695690190 [Eh]

	 ================> DF-SCS-MP2 Energies <==================
	-----------------------------------------------------------
	 SCS Same-Spin Scale       =       0.3333333333333333 [-]
	 SCS Opposite-Spin Scale   =       1.2000000000000000 [-]
	 SCS Same-Spin Energy      =      -0.0757535432243984 [Eh]
	 SCS Opposite-Spin Energy  =      -0.9369418124536080 [Eh]
	 SCS Correlation Energy    =      -1.0126953556780063 [Eh]
	 SCS Total Energy          =    -999.3136033518625254 [Eh]
	-----------------------------------------------------------

*** Psi4 exiting successfully. Buy a developer a beer!
