                               Psi4 1.4a2.dev224

  ==> Input File <==

--------------------------------------------------------------------------
#Generated by lconvert.py for cbs job

memory 40 GB

molecule  {
0 1
 Cl       -1.0101650     0.0000090     0.0000000
  C       -2.7902180     0.0000240     0.0000000
  H       -3.1336600     1.0274250     0.0000000
  H       -3.1336730    -0.5136730     0.8897530
  H       -3.1336730    -0.5136730    -0.8897530
--
0 1
 Cl        4.0970090     0.0000160     0.0000000
  C        2.3170760     0.0000180     0.0000000
  H        1.9709020     1.0266270     0.0000000
  H        1.9709010    -0.5132860     0.8890690
  H        1.9709010    -0.5132860    -0.8890690
units angstrom
no_reorient
symmetry c1
}

set {
scf_type DF
mp2_type DF
e_convergence 7
reference rhf
}

energy('mp2/aug-cc-pv[tq]z', bsse_type='cp')
--------------------------------------------------------------------------

    Molecular point group: c1
  Charge       = 0
  Multiplicity = 1
  Basis Set: AUG-CC-PVTZ
    Blend: AUG-CC-PVTZ
  Basis Set: (AUG-CC-PVTZ AUX)
    Blend: AUG-CC-PVTZ-JKFIT
  @DF-RHF Final Energy:  -499.14885293196386
    Total Energy =                       -499.1488529319638587
  Basis Set: (AUG-CC-PVTZ AUX)
    Blend: AUG-CC-PVTZ-RI
	 Reference Energy          =    -499.1488529319638587 [Eh]
	 Singles Energy            =      -0.0000000000000000 [Eh]
	 Same-Spin Energy          =      -0.0993529621698654 [Eh]
	 Opposite-Spin Energy      =      -0.3355738137175344 [Eh]
	 Correlation Energy        =      -0.4349267758873998 [Eh]
	 Total Energy              =    -499.5837797078512494 [Eh]
	 SCS Total Energy          =    -499.5846591624815005 [Eh]
    Molecular point group: c1
  Basis Set: AUG-CC-PVQZ
    Blend: AUG-CC-PVQZ
  Basis Set: (AUG-CC-PVQZ AUX)
    Blend: AUG-CC-PVQZ-JKFIT
  @DF-RHF Final Energy:  -499.15494479419613
    Total Energy =                       -499.1549447941961262
  Basis Set: (AUG-CC-PVQZ AUX)
  @DF-RHF Final Energy:  -499.14887904252993
    Total Energy =                       -499.1488790425299271
  @DF-RHF Final Energy:  -499.15495696615812
    Total Energy =                       -499.1549569661581245
  @DF-RHF Final Energy:  -499.14891367219911
    Total Energy =                       -499.1489136721991144
  @DF-RHF Final Energy:  -499.15496517818161
    Total Energy =                       -499.1549651781815555
  @DF-RHF Final Energy:  -499.14886493230358
    Total Energy =                       -499.1488649323035816
  @DF-RHF Final Energy:  -499.15495561297558
    Total Energy =                       -499.1549556129755842
  Multiplicity = 1
  @DF-RHF Final Energy:  -998.29724707729815
    Total Energy =                       -998.2972470772981524
	 Singles Energy            =      -0.0000000000000000 [Eh]
	 Same-Spin Energy          =      -0.2002653226797841 [Eh]
	 Opposite-Spin Energy      =      -0.6733607332698927 [Eh]
	 Correlation Energy        =      -0.8736260559496767 [Eh]
	 Total Energy              =    -999.1708731332478237 [Eh]
	 SCS Total Energy          =    -999.1720350647819942 [Eh]
    Molecular point group: c1

    Geometry (in Angstrom), charge = 0, multiplicity = 1:

       Center              X                  Y                   Z               Mass
    ------------   -----------------  -----------------  -----------------  -----------------
         CL          -1.997817459892    -0.000006135021     0.000000000000    34.968852682000
         C           -3.777870459892     0.000008864979     0.000000000000    12.000000000000
         H           -4.121312459892     1.027409864979     0.000000000000     1.007825032230
         H           -4.121325459892    -0.513688135021     0.889753000000     1.007825032230
         H           -4.121325459892    -0.513688135021    -0.889753000000     1.007825032230
         CL           3.109356540108     0.000000864979     0.000000000000    34.968852682000
         C            1.329423540108     0.000002864979     0.000000000000    12.000000000000
         H            0.983249540108     1.026611864979     0.000000000000     1.007825032230
         H            0.983248540108    -0.513301135021     0.889069000000     1.007825032230
         H            0.983248540108    -0.513301135021    -0.889069000000     1.007825032230

  Charge       = 0
  Multiplicity = 1
  Basis Set: AUG-CC-PVQZ
    Blend: AUG-CC-PVQZ
  Basis Set: (AUG-CC-PVQZ AUX)
    Blend: AUG-CC-PVQZ-JKFIT

    Orbital Energies [Eh]
    ---------------------

    Doubly Occupied:

       1A   -104.834346     2A   -104.816360     3A    -11.296630
       4A    -11.278226     5A    -10.560087     6A    -10.541920
       7A     -8.027228     8A     -8.025516     9A     -8.025516
      10A     -8.009058    11A     -8.007357    12A     -8.007357
      13A     -1.138812    14A     -1.120180    15A     -0.925660
      16A     -0.905804    17A     -0.627261    18A     -0.627261
      19A     -0.609166    20A     -0.609166    21A     -0.561347
      22A     -0.534059    23A     -0.446770    24A     -0.446770
      25A     -0.427488    26A     -0.427488

  @DF-RHF Final Energy:  -998.30937194812202

   => Energetics <=

    Nuclear Repulsion Energy =            177.4492197426926907
    One-Electron Energy =               -1729.8435203420590369
    Two-Electron Energy =                 554.0849286512442404
    Total Energy =                       -998.3093719481220205

  Dipole Moment: [D]
     X:    -4.5132      Y:     0.0000      Z:     0.0000     Total:     4.5132

  Basis Set: (AUG-CC-PVQZ AUX)
    Blend: AUG-CC-PVQZ-RI
	 Reference Energy          =    -998.3093719481220205 [Eh]
	 Singles Energy            =      -0.0000000000000000 [Eh]
	 Same-Spin Energy          =      -0.2250399535335777 [Eh]
	 Opposite-Spin Energy      =      -0.7780059690807191 [Eh]
	 Correlation Energy        =      -1.0030459226142967 [Eh]
	 Total Energy              =    -999.3124178707363399 [Eh]

	 ================> DF-SCS-MP2 Energies <==================
	-----------------------------------------------------------
	 SCS Same-Spin Scale       =       0.3333333333333333 [-]
	 SCS Opposite-Spin Scale   =       1.2000000000000000 [-]
	 SCS Same-Spin Energy      =      -0.0750133178445259 [Eh]
	 SCS Opposite-Spin Energy  =      -0.9336071628968629 [Eh]
	 SCS Correlation Energy    =      -1.0086204807413888 [Eh]
	 SCS Total Energy          =    -999.3179924288633629 [Eh]
	-----------------------------------------------------------

*** Psi4 exiting successfully. Buy a developer a beer!
