                               Psi4 1.4a2.dev224

  ==> Input File <==

--------------------------------------------------------------------------
#Generated by lconvert.py for cbs job

memory 40 GB

molecule  {
0 1
 Cl       -1.0101650     0.0000090     0.0000000
  C       -2.7902180     0.0000240     0.0000000
  H       -3.1336600     1.0274250     0.0000000
  H       -3.1336730    -0.5136730     0.8897530
  H       -3.1336730    -0.5136730    -0.8897530
--
0 1
 Cl        3.9209000     0.0000160     0.0000000
  C        2.1409670     0.0000180     0.0000000
  H        1.7947930     1.0266270     0.0000000
  H        1.7947920    -0.5132860     0.8890690
  H        1.7947920    -0.5132860    -0.8890690
units angstrom
no_reorient
symmetry c1
}

set {
scf_type DF
mp2_type DF
e_convergence 7
reference rhf
}

energy('mp2/aug-cc-pv[tq]z', bsse_type='cp')
--------------------------------------------------------------------------

    Molecular point group: c1
  Charge       = 0
  Multiplicity = 1
  Basis Set: AUG-CC-PVTZ
    Blend: AUG-CC-PVTZ
  Basis Set: (AUG-CC-PVTZ AUX)
    Blend: AUG-CC-PVTZ-JKFIT
  @DF-RHF Final Energy:  -499.14885293198296
    Total Energy =                       -499.1488529319830150
  Basis Set: (AUG-CC-PVTZ AUX)
    Blend: AUG-CC-PVTZ-RI
	 Reference Energy          =    -499.1488529319829581 [Eh]
	 Singles Energy            =      -0.0000000000000000 [Eh]
	 Same-Spin Energy          =      -0.0993529621696601 [Eh]
	 Opposite-Spin Energy      =      -0.3355738137166732 [Eh]
	 Correlation Energy        =      -0.4349267758863333 [Eh]
	 Total Energy              =    -499.5837797078692688 [Eh]
	 SCS Total Energy          =    -499.5846591624995199 [Eh]
    Molecular point group: c1
  Basis Set: AUG-CC-PVQZ
    Blend: AUG-CC-PVQZ
  Basis Set: (AUG-CC-PVQZ AUX)
    Blend: AUG-CC-PVQZ-JKFIT
  @DF-RHF Final Energy:  -499.15494479410671
    Total Energy =                       -499.1549447941067115
  Basis Set: (AUG-CC-PVQZ AUX)
  @DF-RHF Final Energy:  -499.14888303669278
    Total Energy =                       -499.1488830366927800
  @DF-RHF Final Energy:  -499.15495879712972
    Total Energy =                       -499.1549587971297228
  @DF-RHF Final Energy:  -499.14892593709845
    Total Energy =                       -499.1489259370983973
  @DF-RHF Final Energy:  -499.15496681515555
    Total Energy =                       -499.1549668151555466
  @DF-RHF Final Energy:  -499.14886493226987
    Total Energy =                       -499.1488649322698734
  @DF-RHF Final Energy:  -499.15495561289760
    Total Energy =                       -499.1549556128975951
  Multiplicity = 1
  @DF-RHF Final Energy:  -998.29595481757178
    Total Energy =                       -998.2959548175717828
	 Singles Energy            =      -0.0000000000000000 [Eh]
	 Same-Spin Energy          =      -0.2007717391998602 [Eh]
	 Opposite-Spin Energy      =      -0.6740202112989877 [Eh]
	 Correlation Energy        =      -0.8747919504988479 [Eh]
	 Total Energy              =    -999.1707467680706714 [Eh]
	 SCS Total Energy          =    -999.1717029841971680 [Eh]
    Molecular point group: c1

    Geometry (in Angstrom), charge = 0, multiplicity = 1:

       Center              X                  Y                   Z               Mass
    ------------   -----------------  -----------------  -----------------  -----------------
         CL          -1.909762959892    -0.000006135021     0.000000000000    34.968852682000
         C           -3.689815959892     0.000008864979     0.000000000000    12.000000000000
         H           -4.033257959892     1.027409864979     0.000000000000     1.007825032230
         H           -4.033270959892    -0.513688135021     0.889753000000     1.007825032230
         H           -4.033270959892    -0.513688135021    -0.889753000000     1.007825032230
         CL           3.021302040108     0.000000864979     0.000000000000    34.968852682000
         C            1.241369040108     0.000002864979     0.000000000000    12.000000000000
         H            0.895195040108     1.026611864979     0.000000000000     1.007825032230
         H            0.895194040108    -0.513301135021     0.889069000000     1.007825032230
         H            0.895194040108    -0.513301135021    -0.889069000000     1.007825032230

  Charge       = 0
  Multiplicity = 1
  Basis Set: AUG-CC-PVQZ
    Blend: AUG-CC-PVQZ
  Basis Set: (AUG-CC-PVQZ AUX)
    Blend: AUG-CC-PVQZ-JKFIT

    Orbital Energies [Eh]
    ---------------------

    Doubly Occupied:

       1A   -104.834631     2A   -104.815615     3A    -11.296804
       4A    -11.277339     5A    -10.560480     6A    -10.541194
       7A     -8.027617     8A     -8.025888     9A     -8.025888
      10A     -8.008331    11A     -8.006635    12A     -8.006635
      13A     -1.139562    14A     -1.119513    15A     -0.927114
      16A     -0.904641    17A     -0.627627    18A     -0.627627
      19A     -0.608690    20A     -0.608690    21A     -0.564286
      22A     -0.530985    23A     -0.447704    24A     -0.447704
      25A     -0.426561    26A     -0.426561

  @DF-RHF Final Energy:  -998.30807053925298

   => Energetics <=

    Nuclear Repulsion Energy =            180.4867163754044839
    One-Electron Energy =               -1735.9209201617211420
    Two-Electron Energy =                 557.1261332470636489
    Total Energy =                       -998.3080705392529808

  Dipole Moment: [D]
     X:    -4.5287      Y:     0.0000      Z:     0.0000     Total:     4.5287

  Basis Set: (AUG-CC-PVQZ AUX)
    Blend: AUG-CC-PVQZ-RI
	 Reference Energy          =    -998.3080705392529808 [Eh]
	 Singles Energy            =      -0.0000000000000000 [Eh]
	 Same-Spin Energy          =      -0.2255469635777954 [Eh]
	 Opposite-Spin Energy      =      -0.7786352914993174 [Eh]
	 Correlation Energy        =      -1.0041822550771129 [Eh]
	 Total Energy              =    -999.3122527943301066 [Eh]

	 ================> DF-SCS-MP2 Energies <==================
	-----------------------------------------------------------
	 SCS Same-Spin Scale       =       0.3333333333333333 [-]
	 SCS Opposite-Spin Scale   =       1.2000000000000000 [-]
	 SCS Same-Spin Energy      =      -0.0751823211925984 [Eh]
	 SCS Opposite-Spin Energy  =      -0.9343623497991809 [Eh]
	 SCS Correlation Energy    =      -1.0095446709917792 [Eh]
	 SCS Total Energy          =    -999.3176152102447531 [Eh]
	-----------------------------------------------------------

*** Psi4 exiting successfully. Buy a developer a beer!
