                               Psi4 1.4a2.dev224

  ==> Input File <==

--------------------------------------------------------------------------
#Generated by lconvert.py for cbs job

memory 20 GB

molecule  {
0 1
 Cl      -1.010160    0.000010    0.000000
  C      -2.790220    0.000020    0.000000
  H      -3.133660    1.027430    0.000000
  H      -3.133670   -0.513670    0.889750
  H      -3.133670   -0.513670   -0.889750
--
0 1
 Cl       6.441890    0.000020    0.000000
  C       4.661950    0.000020    0.000000
  H       4.315780    1.026630    0.000000
  H       4.315780   -0.513280    0.889070
  H       4.315780   -0.513280   -0.889070
units angstrom
no_reorient
symmetry c1
}

set {
scf_type DF
mp2_type DF
e_convergence 7
reference rhf
}

energy('mp2/aug-cc-pv[tq]z', bsse_type='cp')
--------------------------------------------------------------------------

    Molecular point group: c1
  Charge       = 0
  Multiplicity = 1
  Basis Set: AUG-CC-PVTZ
    Blend: AUG-CC-PVTZ
  Basis Set: (AUG-CC-PVTZ AUX)
    Blend: AUG-CC-PVTZ-JKFIT
  @DF-RHF Final Energy:  -499.14885302542865
    Total Energy =                       -499.1488530254287070
  Basis Set: (AUG-CC-PVTZ AUX)
    Blend: AUG-CC-PVTZ-RI
	 Reference Energy          =    -499.1488530254286502 [Eh]
	 Singles Energy            =      -0.0000000000000000 [Eh]
	 Same-Spin Energy          =      -0.0993528977780320 [Eh]
	 Opposite-Spin Energy      =      -0.3355737673580221 [Eh]
	 Correlation Energy        =      -0.4349266651360541 [Eh]
	 Total Energy              =    -499.5837796905647110 [Eh]
	 SCS Total Energy          =    -499.5846591788509272 [Eh]
    Molecular point group: c1
  Basis Set: AUG-CC-PVQZ
    Blend: AUG-CC-PVQZ
  Basis Set: (AUG-CC-PVQZ AUX)
    Blend: AUG-CC-PVQZ-JKFIT
  @DF-RHF Final Energy:  -499.15494487069770
    Total Energy =                       -499.1549448706977046
  Basis Set: (AUG-CC-PVQZ AUX)
  @DF-RHF Final Energy:  -499.14885469978623
    Total Energy =                       -499.1488546997862272
  @DF-RHF Final Energy:  -499.15494612027919
    Total Energy =                       -499.1549461202791917
  @DF-RHF Final Energy:  -499.14887106797784
    Total Energy =                       -499.1488710679777796
  @DF-RHF Final Energy:  -499.15495699344996
    Total Energy =                       -499.1549569934499573
  @DF-RHF Final Energy:  -499.14886503000940
    Total Energy =                       -499.1488650300094037
  @DF-RHF Final Energy:  -499.15495569467828
    Total Energy =                       -499.1549556946782786
  Multiplicity = 1
  @DF-RHF Final Energy:  -998.29813978252844
    Total Energy =                       -998.2981397825284375
	 Singles Energy            =      -0.0000000000000000 [Eh]
	 Same-Spin Energy          =      -0.1987757956505277 [Eh]
	 Opposite-Spin Energy      =      -0.6712725263505435 [Eh]
	 Correlation Energy        =      -0.8700483220010712 [Eh]
	 Total Energy              =    -999.1681881045294631 [Eh]
	 SCS Total Energy          =    -999.1699254126992855 [Eh]
    Molecular point group: c1

    Geometry (in Angstrom), charge = 0, multiplicity = 1:

       Center              X                  Y                   Z               Mass
    ------------   -----------------  -----------------  -----------------  -----------------
         CL          -3.170253618358    -0.000006905770     0.000000000000    34.968852682000
         C           -4.950313618358     0.000003094230     0.000000000000    12.000000000000
         H           -5.293753618358     1.027413094230     0.000000000000     1.007825032230
         H           -5.293763618358    -0.513686905770     0.889750000000     1.007825032230
         H           -5.293763618358    -0.513686905770    -0.889750000000     1.007825032230
         CL           4.281796381642     0.000003094230     0.000000000000    34.968852682000
         C            2.501856381642     0.000003094230     0.000000000000    12.000000000000
         H            2.155686381642     1.026613094230     0.000000000000     1.007825032230
         H            2.155686381642    -0.513296905770     0.889070000000     1.007825032230
         H            2.155686381642    -0.513296905770    -0.889070000000     1.007825032230

  Charge       = 0
  Multiplicity = 1
  Basis Set: AUG-CC-PVQZ
    Blend: AUG-CC-PVQZ
  Basis Set: (AUG-CC-PVQZ AUX)
    Blend: AUG-CC-PVQZ-JKFIT

    Orbital Energies [Eh]
    ---------------------

    Doubly Occupied:

       1A   -104.829067     2A   -104.820674     3A    -11.292436
       4A    -11.283830     5A    -10.554603     6A    -10.546185
       7A     -8.021743     8A     -8.020030     9A     -8.020030
      10A     -8.013322    11A     -8.011605    12A     -8.011605
      13A     -1.133114    14A     -1.124540    15A     -0.919790
      16A     -0.911296    17A     -0.622983    18A     -0.622978
      19A     -0.614129    20A     -0.614127    21A     -0.551154
      22A     -0.542781    23A     -0.440528    24A     -0.440527
      25A     -0.432042    26A     -0.432041

  @DF-RHF Final Energy:  -998.31031271741540

   => Energetics <=

    Nuclear Repulsion Energy =            152.2732529531759269
    One-Electron Energy =               -1679.5128077035435581
    Two-Electron Energy =                 528.9292420329522884
    Total Energy =                       -998.3103127174153997

  Dipole Moment: [D]
     X:    -4.3352      Y:     0.0000      Z:     0.0000     Total:     4.3352

  Basis Set: (AUG-CC-PVQZ AUX)
    Blend: AUG-CC-PVQZ-RI
	 Reference Energy          =    -998.3103127174153997 [Eh]
	 Singles Energy            =      -0.0000000000000000 [Eh]
	 Same-Spin Energy          =      -0.2235887995126730 [Eh]
	 Opposite-Spin Energy      =      -0.7762427710287966 [Eh]
	 Correlation Energy        =      -0.9998315705414695 [Eh]
	 Total Energy              =    -999.3101442879568594 [Eh]

	 ================> DF-SCS-MP2 Energies <==================
	-----------------------------------------------------------
	 SCS Same-Spin Scale       =       0.3333333333333333 [-]
	 SCS Opposite-Spin Scale   =       1.2000000000000000 [-]
	 SCS Same-Spin Energy      =      -0.0745295998375577 [Eh]
	 SCS Opposite-Spin Energy  =      -0.9314913252345558 [Eh]
	 SCS Correlation Energy    =      -1.0060209250721135 [Eh]
	 SCS Total Energy          =    -999.3163336424875069 [Eh]
	-----------------------------------------------------------

*** Psi4 exiting successfully. Buy a developer a beer!
