                               Psi4 1.4a2.dev224

  ==> Input File <==

--------------------------------------------------------------------------
#Generated by lconvert.py for cbs job

memory 40 GB

molecule  {
0 1
 Cl       -1.0101650     0.0000090     0.0000000
  C       -2.7902180     0.0000240     0.0000000
  H       -3.1336600     1.0274250     0.0000000
  H       -3.1336730    -0.5136730     0.8897530
  H       -3.1336730    -0.5136730    -0.8897530
--
0 1
 Cl        4.2719690     0.0000160     0.0000000
  C        2.4920360     0.0000180     0.0000000
  H        2.1458620     1.0266270     0.0000000
  H        2.1458610    -0.5132860     0.8890690
  H        2.1458610    -0.5132860    -0.8890690
units angstrom
no_reorient
symmetry c1
}

set {
scf_type DF
mp2_type DF
e_convergence 7
reference rhf
}

energy('mp2/aug-cc-pv[tq]z', bsse_type='cp')
--------------------------------------------------------------------------

    Molecular point group: c1
  Charge       = 0
  Multiplicity = 1
  Basis Set: AUG-CC-PVTZ
    Blend: AUG-CC-PVTZ
  Basis Set: (AUG-CC-PVTZ AUX)
    Blend: AUG-CC-PVTZ-JKFIT
  @DF-RHF Final Energy:  -499.14885293204958
    Total Energy =                       -499.1488529320495786
  Basis Set: (AUG-CC-PVTZ AUX)
    Blend: AUG-CC-PVTZ-RI
	 Reference Energy          =    -499.1488529320495786 [Eh]
	 Singles Energy            =      -0.0000000000000000 [Eh]
	 Same-Spin Energy          =      -0.0993529621698735 [Eh]
	 Opposite-Spin Energy      =      -0.3355738137175068 [Eh]
	 Correlation Energy        =      -0.4349267758873804 [Eh]
	 Total Energy              =    -499.5837797079369693 [Eh]
	 SCS Total Energy          =    -499.5846591625672204 [Eh]
    Molecular point group: c1
  Basis Set: AUG-CC-PVQZ
    Blend: AUG-CC-PVQZ
  Basis Set: (AUG-CC-PVQZ AUX)
    Blend: AUG-CC-PVQZ-JKFIT
  @DF-RHF Final Energy:  -499.15494479419027
    Total Energy =                       -499.1549447941902713
  Basis Set: (AUG-CC-PVQZ AUX)
  @DF-RHF Final Energy:  -499.14887711989928
    Total Energy =                       -499.1488771198992822
  @DF-RHF Final Energy:  -499.15495520214927
    Total Energy =                       -499.1549552021492673
  @DF-RHF Final Energy:  -499.14890529289465
    Total Energy =                       -499.1489052928946535
  @DF-RHF Final Energy:  -499.15496386817932
    Total Energy =                       -499.1549638681793226
  @DF-RHF Final Energy:  -499.14886493233138
    Total Energy =                       -499.1488649323313780
  @DF-RHF Final Energy:  -499.15495561305534
    Total Energy =                       -499.1549556130553356
  Multiplicity = 1
  @DF-RHF Final Energy:  -998.29790592330448
    Total Energy =                       -998.2979059233044836
	 Singles Energy            =      -0.0000000000000000 [Eh]
	 Same-Spin Energy          =      -0.1998945289407519 [Eh]
	 Opposite-Spin Energy      =      -0.6728663505046603 [Eh]
	 Correlation Energy        =      -0.8727608794454123 [Eh]
	 Total Energy              =    -999.1706668027499063 [Eh]
	 SCS Total Energy          =    -999.1719770535570433 [Eh]
    Molecular point group: c1

    Geometry (in Angstrom), charge = 0, multiplicity = 1:

       Center              X                  Y                   Z               Mass
    ------------   -----------------  -----------------  -----------------  -----------------
         CL          -2.085297459892    -0.000006135021     0.000000000000    34.968852682000
         C           -3.865350459892     0.000008864979     0.000000000000    12.000000000000
         H           -4.208792459892     1.027409864979     0.000000000000     1.007825032230
         H           -4.208805459892    -0.513688135021     0.889753000000     1.007825032230
         H           -4.208805459892    -0.513688135021    -0.889753000000     1.007825032230
         CL           3.196836540108     0.000000864979     0.000000000000    34.968852682000
         C            1.416903540108     0.000002864979     0.000000000000    12.000000000000
         H            1.070729540108     1.026611864979     0.000000000000     1.007825032230
         H            1.070728540108    -0.513301135021     0.889069000000     1.007825032230
         H            1.070728540108    -0.513301135021    -0.889069000000     1.007825032230

  Charge       = 0
  Multiplicity = 1
  Basis Set: AUG-CC-PVQZ
    Blend: AUG-CC-PVQZ
  Basis Set: (AUG-CC-PVQZ AUX)
    Blend: AUG-CC-PVQZ-JKFIT

    Orbital Energies [Eh]
    ---------------------

    Doubly Occupied:

       1A   -104.833930     2A   -104.816972     3A    -11.296321
       4A    -11.278991     5A    -10.559603     6A    -10.542520
       7A     -8.026747     8A     -8.025043     9A     -8.025043
      10A     -8.009658    11A     -8.007954    12A     -8.007954
      13A     -1.138145    14A     -1.120753    15A     -0.924651
      16A     -0.906660    17A     -0.626856    18A     -0.626855
      19A     -0.609690    20A     -0.609690    21A     -0.559140
      22A     -0.536222    23A     -0.445960    24A     -0.445960
      25A     -0.428206    26A     -0.428206

  @DF-RHF Final Energy:  -998.31003630727685

   => Energetics <=

    Nuclear Repulsion Energy =            174.6698659261619468
    One-Electron Energy =               -1724.2843470478387644
    Two-Electron Energy =                 551.3044448143999716
    Total Energy =                       -998.3100363072768459

  Dipole Moment: [D]
     X:    -4.4954      Y:     0.0000      Z:    -0.0000     Total:     4.4954

  Basis Set: (AUG-CC-PVQZ AUX)
    Blend: AUG-CC-PVQZ-RI
	 Reference Energy          =    -998.3100363072768459 [Eh]
	 Singles Energy            =      -0.0000000000000000 [Eh]
	 Same-Spin Energy          =      -0.2246708834770330 [Eh]
	 Opposite-Spin Energy      =      -0.7775524691416786 [Eh]
	 Correlation Energy        =      -1.0022233526187116 [Eh]
	 Total Energy              =    -999.3122596598955170 [Eh]

	 ================> DF-SCS-MP2 Energies <==================
	-----------------------------------------------------------
	 SCS Same-Spin Scale       =       0.3333333333333333 [-]
	 SCS Opposite-Spin Scale   =       1.2000000000000000 [-]
	 SCS Same-Spin Energy      =      -0.0748902944923443 [Eh]
	 SCS Opposite-Spin Energy  =      -0.9330629629700143 [Eh]
	 SCS Correlation Energy    =      -1.0079532574623586 [Eh]
	 SCS Total Energy          =    -999.3179895647391504 [Eh]
	-----------------------------------------------------------

*** Psi4 exiting successfully. Buy a developer a beer!
