                               Psi4 1.4a2.dev224

  ==> Input File <==

--------------------------------------------------------------------------
#Generated by lconvert.py for cbs job

memory 40 GB

molecule  {
0 1
 Cl       -1.0101650     0.0000090     0.0000000
  C       -2.7902180     0.0000240     0.0000000
  H       -3.1336600     1.0274250     0.0000000
  H       -3.1336730    -0.5136730     0.8897530
  H       -3.1336730    -0.5136730    -0.8897530
--
0 1
 Cl        4.6192770     0.0000160     0.0000000
  C        2.8393440     0.0000180     0.0000000
  H        2.4931700     1.0266270     0.0000000
  H        2.4931690    -0.5132860     0.8890690
  H        2.4931690    -0.5132860    -0.8890690
units angstrom
no_reorient
symmetry c1
}

set {
scf_type DF
mp2_type DF
e_convergence 7
reference rhf
}

energy('mp2/aug-cc-pv[tq]z', bsse_type='cp')
--------------------------------------------------------------------------

    Molecular point group: c1
  Charge       = 0
  Multiplicity = 1
  Basis Set: AUG-CC-PVTZ
    Blend: AUG-CC-PVTZ
  Basis Set: (AUG-CC-PVTZ AUX)
    Blend: AUG-CC-PVTZ-JKFIT
  @DF-RHF Final Energy:  -499.14885293203633
    Total Energy =                       -499.1488529320363341
  Basis Set: (AUG-CC-PVTZ AUX)
    Blend: AUG-CC-PVTZ-RI
	 Reference Energy          =    -499.1488529320363341 [Eh]
	 Singles Energy            =      -0.0000000000000000 [Eh]
	 Same-Spin Energy          =      -0.0993529621697652 [Eh]
	 Opposite-Spin Energy      =      -0.3355738137170550 [Eh]
	 Correlation Energy        =      -0.4349267758868202 [Eh]
	 Total Energy              =    -499.5837797079231564 [Eh]
	 SCS Total Energy          =    -499.5846591625534074 [Eh]
    Molecular point group: c1
  Basis Set: AUG-CC-PVQZ
    Blend: AUG-CC-PVQZ
  Basis Set: (AUG-CC-PVQZ AUX)
    Blend: AUG-CC-PVQZ-JKFIT
  @DF-RHF Final Energy:  -499.15494479406402
    Total Energy =                       -499.1549447940640221
  Basis Set: (AUG-CC-PVQZ AUX)
  @DF-RHF Final Energy:  -499.14887326689865
    Total Energy =                       -499.1488732668986472
  @DF-RHF Final Energy:  -499.15495285020290
    Total Energy =                       -499.1549528502029034
  @DF-RHF Final Energy:  -499.14889389153524
    Total Energy =                       -499.1488938915352378
  @DF-RHF Final Energy:  -499.15496172470046
    Total Energy =                       -499.1549617247004562
  @DF-RHF Final Energy:  -499.14886493225782
    Total Energy =                       -499.1488649322578794
  @DF-RHF Final Energy:  -499.15495561288515
    Total Energy =                       -499.1549556128851464
  Multiplicity = 1
  @DF-RHF Final Energy:  -998.29836838358369
    Total Energy =                       -998.2983683835836928
	 Singles Energy            =      -0.0000000000000000 [Eh]
	 Same-Spin Energy          =      -0.1994173622966881 [Eh]
	 Opposite-Spin Energy      =      -0.6722230532153669 [Eh]
	 Correlation Energy        =      -0.8716404155120550 [Eh]
	 Total Energy              =    -999.1700087990957400 [Eh]
	 SCS Total Energy          =    -999.1715085015409841 [Eh]
    Molecular point group: c1

    Geometry (in Angstrom), charge = 0, multiplicity = 1:

       Center              X                  Y                   Z               Mass
    ------------   -----------------  -----------------  -----------------  -----------------
         CL          -2.258951459892    -0.000006135021     0.000000000000    34.968852682000
         C           -4.039004459892     0.000008864979     0.000000000000    12.000000000000
         H           -4.382446459892     1.027409864979     0.000000000000     1.007825032230
         H           -4.382459459892    -0.513688135021     0.889753000000     1.007825032230
         H           -4.382459459892    -0.513688135021    -0.889753000000     1.007825032230
         CL           3.370490540108     0.000000864979     0.000000000000    34.968852682000
         C            1.590557540108     0.000002864979     0.000000000000    12.000000000000
         H            1.244383540108     1.026611864979     0.000000000000     1.007825032230
         H            1.244382540108    -0.513301135021     0.889069000000     1.007825032230
         H            1.244382540108    -0.513301135021    -0.889069000000     1.007825032230

  Charge       = 0
  Multiplicity = 1
  Basis Set: AUG-CC-PVQZ
    Blend: AUG-CC-PVQZ
  Basis Set: (AUG-CC-PVQZ AUX)
    Blend: AUG-CC-PVQZ-JKFIT

    Orbital Energies [Eh]
    ---------------------

    Doubly Occupied:

       1A   -104.832951     2A   -104.817932     3A    -11.295553
       4A    -11.280239     5A    -10.558559     6A    -10.543466
       7A     -8.025704     8A     -8.024002     9A     -8.024002
      10A     -8.010604    11A     -8.008896    12A     -8.008896
      13A     -1.136970    14A     -1.121697    15A     -0.923288
      16A     -0.907895    17A     -0.626028    18A     -0.626027
      19A     -0.610708    20A     -0.610708    21A     -0.556240
      22A     -0.538849    23A     -0.444611    24A     -0.444611
      25A     -0.429262    26A     -0.429262

  @DF-RHF Final Energy:  -998.31050767287559

   => Energetics <=

    Nuclear Repulsion Energy =            169.7503756885607231
    One-Electron Energy =               -1714.4478487808901264
    Two-Electron Energy =                 546.3869654194537588
    Total Energy =                       -998.3105076728755876

  Dipole Moment: [D]
     X:    -4.4591      Y:     0.0000      Z:    -0.0000     Total:     4.4591

  Basis Set: (AUG-CC-PVQZ AUX)
    Blend: AUG-CC-PVQZ-RI
	 Reference Energy          =    -998.3105076728755876 [Eh]
	 Singles Energy            =      -0.0000000000000000 [Eh]
	 Same-Spin Energy          =      -0.2241970522445833 [Eh]
	 Opposite-Spin Energy      =      -0.7769770334646722 [Eh]
	 Correlation Energy        =      -1.0011740857092555 [Eh]
	 Total Energy              =    -999.3116817585848821 [Eh]

	 ================> DF-SCS-MP2 Energies <==================
	-----------------------------------------------------------
	 SCS Same-Spin Scale       =       0.3333333333333333 [-]
	 SCS Opposite-Spin Scale   =       1.2000000000000000 [-]
	 SCS Same-Spin Energy      =      -0.0747323507481944 [Eh]
	 SCS Opposite-Spin Energy  =      -0.9323724401576066 [Eh]
	 SCS Correlation Energy    =      -1.0071047909058011 [Eh]
	 SCS Total Energy          =    -999.3176124637814155 [Eh]
	-----------------------------------------------------------

*** Psi4 exiting successfully. Buy a developer a beer!
