                               Psi4 1.4a2.dev224

  ==> Input File <==

--------------------------------------------------------------------------
#Generated by lconvert.py for cbs job

memory 20 GB

molecule  {
0 1
 Cl      -1.010160    0.000010    0.000000
  C      -2.790220    0.000020    0.000000
  H      -3.133660    1.027430    0.000000
  H      -3.133670   -0.513670    0.889750
  H      -3.133670   -0.513670   -0.889750
--
0 1
 Cl       5.348320    0.000020    0.000000
  C       3.568390    0.000020    0.000000
  H       3.222210    1.026630    0.000000
  H       3.222210   -0.513280    0.889070
  H       3.222210   -0.513280   -0.889070
units angstrom
no_reorient
symmetry c1
}

set {
scf_type DF
mp2_type DF
e_convergence 7
reference rhf
}

energy('mp2/aug-cc-pv[tq]z', bsse_type='cp')
--------------------------------------------------------------------------

    Molecular point group: c1
  Charge       = 0
  Multiplicity = 1
  Basis Set: AUG-CC-PVTZ
    Blend: AUG-CC-PVTZ
  Basis Set: (AUG-CC-PVTZ AUX)
    Blend: AUG-CC-PVTZ-JKFIT
  @DF-RHF Final Energy:  -499.14885286440426
    Total Energy =                       -499.1488528644042617
  Basis Set: (AUG-CC-PVTZ AUX)
    Blend: AUG-CC-PVTZ-RI
	 Reference Energy          =    -499.1488528644042617 [Eh]
	 Singles Energy            =      -0.0000000000000000 [Eh]
	 Same-Spin Energy          =      -0.0993529890996975 [Eh]
	 Opposite-Spin Energy      =      -0.3355738458581432 [Eh]
	 Correlation Energy        =      -0.4349268349578407 [Eh]
	 Total Energy              =    -499.5837796993620827 [Eh]
	 SCS Total Energy          =    -499.5846591424672738 [Eh]
    Molecular point group: c1
  Basis Set: AUG-CC-PVQZ
    Blend: AUG-CC-PVQZ
  Basis Set: (AUG-CC-PVQZ AUX)
    Blend: AUG-CC-PVQZ-JKFIT
  @DF-RHF Final Energy:  -499.15494473423871
    Total Energy =                       -499.1549447342387111
  Basis Set: (AUG-CC-PVQZ AUX)
  @DF-RHF Final Energy:  -499.14886086045783
    Total Energy =                       -499.1488608604578303
  @DF-RHF Final Energy:  -499.15494946182758
    Total Energy =                       -499.1549494618275844
  @DF-RHF Final Energy:  -499.14888192537398
    Total Energy =                       -499.1488819253739848
  @DF-RHF Final Energy:  -499.15495890249360
    Total Energy =                       -499.1549589024936040
  @DF-RHF Final Energy:  -499.14886502999690
    Total Energy =                       -499.1488650299969549
  @DF-RHF Final Energy:  -499.15495569474263
    Total Energy =                       -499.1549556947426254
  Multiplicity = 1
  @DF-RHF Final Energy:  -998.29835168476666
    Total Energy =                       -998.2983516847666579
	 Singles Energy            =      -0.0000000000000000 [Eh]
	 Same-Spin Energy          =      -0.1989768095656562 [Eh]
	 Opposite-Spin Energy      =      -0.6716340511187008 [Eh]
	 Correlation Energy        =      -0.8706108606843570 [Eh]
	 Total Energy              =    -999.1689625454509951 [Eh]
	 SCS Total Energy          =    -999.1706381492977016 [Eh]
    Molecular point group: c1

    Geometry (in Angstrom), charge = 0, multiplicity = 1:

       Center              X                  Y                   Z               Mass
    ------------   -----------------  -----------------  -----------------  -----------------
         CL          -2.623469818542    -0.000006905770     0.000000000000    34.968852682000
         C           -4.403529818542     0.000003094230     0.000000000000    12.000000000000
         H           -4.746969818542     1.027413094230     0.000000000000     1.007825032230
         H           -4.746979818542    -0.513686905770     0.889750000000     1.007825032230
         H           -4.746979818542    -0.513686905770    -0.889750000000     1.007825032230
         CL           3.735010181458     0.000003094230     0.000000000000    34.968852682000
         C            1.955080181458     0.000003094230     0.000000000000    12.000000000000
         H            1.608900181458     1.026613094230     0.000000000000     1.007825032230
         H            1.608900181458    -0.513296905770     0.889070000000     1.007825032230
         H            1.608900181458    -0.513296905770    -0.889070000000     1.007825032230

  Charge       = 0
  Multiplicity = 1
  Basis Set: AUG-CC-PVQZ
    Blend: AUG-CC-PVQZ
  Basis Set: (AUG-CC-PVQZ AUX)
    Blend: AUG-CC-PVQZ-JKFIT

    Orbital Energies [Eh]
    ---------------------

    Doubly Occupied:

       1A   -104.831039     2A   -104.819332     3A    -11.294020
       4A    -11.282092     5A    -10.556598     6A    -10.544854
       7A     -8.023741     8A     -8.022034     9A     -8.022034
      10A     -8.011991    11A     -8.010278    12A     -8.010278
      13A     -1.135024    14A     -1.123141    15A     -0.921476
      16A     -0.909633    17A     -0.624521    18A     -0.624517
      19A     -0.612431    20A     -0.612430    21A     -0.553266
      22A     -0.541220    23A     -0.442522    24A     -0.442521
      25A     -0.430703    26A     -0.430703

  @DF-RHF Final Energy:  -998.31051000164200

   => Energetics <=

    Nuclear Repulsion Energy =            161.4101685167606490
    One-Electron Energy =               -1697.7765533394681370
    Two-Electron Energy =                 538.0558748210654585
    Total Energy =                       -998.3105100016420010

  Dipole Moment: [D]
     X:    -4.3952      Y:     0.0000      Z:     0.0000     Total:     4.3952

  Basis Set: (AUG-CC-PVQZ AUX)
    Blend: AUG-CC-PVQZ-RI
	 Reference Energy          =    -998.3105100016420010 [Eh]
	 Singles Energy            =      -0.0000000000000000 [Eh]
	 Same-Spin Energy          =      -0.2237626901979301 [Eh]
	 Opposite-Spin Energy      =      -0.7764467593838865 [Eh]
	 Correlation Energy        =      -1.0002094495818166 [Eh]
	 Total Energy              =    -999.3107194512238038 [Eh]

	 ================> DF-SCS-MP2 Energies <==================
	-----------------------------------------------------------
	 SCS Same-Spin Scale       =       0.3333333333333333 [-]
	 SCS Opposite-Spin Scale   =       1.2000000000000000 [-]
	 SCS Same-Spin Energy      =      -0.0745875633993100 [Eh]
	 SCS Opposite-Spin Energy  =      -0.9317361112606638 [Eh]
	 SCS Correlation Energy    =      -1.0063236746599737 [Eh]
	 SCS Total Energy          =    -999.3168336763019397 [Eh]
	-----------------------------------------------------------

*** Psi4 exiting successfully. Buy a developer a beer!
