                               Psi4 1.4a2.dev224

  ==> Input File <==

--------------------------------------------------------------------------
#Generated by lconvert.py for cbs job

memory 40 GB

molecule  {
0 1
 Cl       -1.0101650     0.0000090     0.0000000
  C       -2.7902180     0.0000240     0.0000000
  H       -3.1336600     1.0274250     0.0000000
  H       -3.1336730    -0.5136730     0.8897530
  H       -3.1336730    -0.5136730    -0.8897530
--
0 1
 Cl        4.4460140     0.0000160     0.0000000
  C        2.6660810     0.0000180     0.0000000
  H        2.3199070     1.0266270     0.0000000
  H        2.3199060    -0.5132860     0.8890690
  H        2.3199060    -0.5132860    -0.8890690
units angstrom
no_reorient
symmetry c1
}

set {
scf_type DF
mp2_type DF
e_convergence 7
reference rhf
}

energy('mp2/aug-cc-pv[tq]z', bsse_type='cp')
--------------------------------------------------------------------------

    Molecular point group: c1
  Charge       = 0
  Multiplicity = 1
  Basis Set: AUG-CC-PVTZ
    Blend: AUG-CC-PVTZ
  Basis Set: (AUG-CC-PVTZ AUX)
    Blend: AUG-CC-PVTZ-JKFIT
  @DF-RHF Final Energy:  -499.14885293196789
    Total Energy =                       -499.1488529319678946
  Basis Set: (AUG-CC-PVTZ AUX)
    Blend: AUG-CC-PVTZ-RI
	 Reference Energy          =    -499.1488529319678946 [Eh]
	 Singles Energy            =      -0.0000000000000000 [Eh]
	 Same-Spin Energy          =      -0.0993529621699897 [Eh]
	 Opposite-Spin Energy      =      -0.3355738137178652 [Eh]
	 Correlation Energy        =      -0.4349267758878549 [Eh]
	 Total Energy              =    -499.5837797078557401 [Eh]
	 SCS Total Energy          =    -499.5846591624859911 [Eh]
    Molecular point group: c1
  Basis Set: AUG-CC-PVQZ
    Blend: AUG-CC-PVQZ
  Basis Set: (AUG-CC-PVQZ AUX)
    Blend: AUG-CC-PVQZ-JKFIT
  @DF-RHF Final Energy:  -499.15494479402582
    Total Energy =                       -499.1549447940258233
  Basis Set: (AUG-CC-PVQZ AUX)
  @DF-RHF Final Energy:  -499.14887565306651
    Total Energy =                       -499.1488756530665114
  @DF-RHF Final Energy:  -499.15495378440778
    Total Energy =                       -499.1549537844077804
  @DF-RHF Final Energy:  -499.14889917237622
    Total Energy =                       -499.1488991723762183
  @DF-RHF Final Energy:  -499.15496273560075
    Total Energy =                       -499.1549627356007477
  @DF-RHF Final Energy:  -499.14886493239783
    Total Energy =                       -499.1488649323978279
  @DF-RHF Final Energy:  -499.15495561297905
    Total Energy =                       -499.1549556129790517
  Multiplicity = 1
  @DF-RHF Final Energy:  -998.29822712280793
    Total Energy =                       -998.2982271228079298
	 Singles Energy            =      -0.0000000000000000 [Eh]
	 Same-Spin Energy          =      -0.1996208160085567 [Eh]
	 Opposite-Spin Energy      =      -0.6724961742574054 [Eh]
	 Correlation Energy        =      -0.8721169902659620 [Eh]
	 Total Energy              =    -999.1703441130738383 [Eh]
	 SCS Total Energy          =    -999.1717628039197052 [Eh]
    Molecular point group: c1

    Geometry (in Angstrom), charge = 0, multiplicity = 1:

       Center              X                  Y                   Z               Mass
    ------------   -----------------  -----------------  -----------------  -----------------
         CL          -2.172319959892    -0.000006135021     0.000000000000    34.968852682000
         C           -3.952372959892     0.000008864979     0.000000000000    12.000000000000
         H           -4.295814959892     1.027409864979     0.000000000000     1.007825032230
         H           -4.295827959892    -0.513688135021     0.889753000000     1.007825032230
         H           -4.295827959892    -0.513688135021    -0.889753000000     1.007825032230
         CL           3.283859040108     0.000000864979     0.000000000000    34.968852682000
         C            1.503926040108     0.000002864979     0.000000000000    12.000000000000
         H            1.157752040108     1.026611864979     0.000000000000     1.007825032230
         H            1.157751040108    -0.513301135021     0.889069000000     1.007825032230
         H            1.157751040108    -0.513301135021    -0.889069000000     1.007825032230

  Charge       = 0
  Multiplicity = 1
  Basis Set: AUG-CC-PVQZ
    Blend: AUG-CC-PVQZ
  Basis Set: (AUG-CC-PVQZ AUX)
    Blend: AUG-CC-PVQZ-JKFIT

    Orbital Energies [Eh]
    ---------------------

    Doubly Occupied:

       1A   -104.833450     2A   -104.817488     3A    -11.295947
       4A    -11.279656     5A    -10.559083     6A    -10.543027
       7A     -8.026228     8A     -8.024526     9A     -8.024526
      10A     -8.010165    11A     -8.008459    12A     -8.008459
      13A     -1.137534    14A     -1.121254    15A     -0.923895
      16A     -0.907334    17A     -0.626438    18A     -0.626438
      19A     -0.610212    20A     -0.610212    21A     -0.557488
      22A     -0.537753    23A     -0.445247    24A     -0.445247
      25A     -0.428782    26A     -0.428782

  @DF-RHF Final Energy:  -998.31036146670374

   => Energetics <=

    Nuclear Repulsion Energy =            172.1129609202769473
    One-Electron Energy =               -1719.1713825196115977
    Two-Electron Energy =                 548.7480601326309397
    Total Energy =                       -998.3103614667037391

  Dipole Moment: [D]
     X:    -4.4770      Y:     0.0000      Z:    -0.0000     Total:     4.4770

  Basis Set: (AUG-CC-PVQZ AUX)
    Blend: AUG-CC-PVQZ-RI
	 Reference Energy          =    -998.3103614667037391 [Eh]
	 Singles Energy            =      -0.0000000000000000 [Eh]
	 Same-Spin Energy          =      -0.2243988903761969 [Eh]
	 Opposite-Spin Energy      =      -0.7772213890078502 [Eh]
	 Correlation Energy        =      -1.0016202793840472 [Eh]
	 Total Energy              =    -999.3119817460877812 [Eh]

	 ================> DF-SCS-MP2 Energies <==================
	-----------------------------------------------------------
	 SCS Same-Spin Scale       =       0.3333333333333333 [-]
	 SCS Opposite-Spin Scale   =       1.2000000000000000 [-]
	 SCS Same-Spin Energy      =      -0.0747996301253990 [Eh]
	 SCS Opposite-Spin Energy  =      -0.9326656668094202 [Eh]
	 SCS Correlation Energy    =      -1.0074652969348192 [Eh]
	 SCS Total Energy          =    -999.3178267636385499 [Eh]
	-----------------------------------------------------------

*** Psi4 exiting successfully. Buy a developer a beer!
