                               Psi4 1.4a2.dev224

  ==> Input File <==

--------------------------------------------------------------------------
#Generated by lconvert.py for cbs job

memory 40 GB

molecule  {
0 1
 Cl       -1.0101650     0.0000090     0.0000000
  C       -2.7902180     0.0000240     0.0000000
  H       -3.1336600     1.0274250     0.0000000
  H       -3.1336730    -0.5136730     0.8897530
  H       -3.1336730    -0.5136730    -0.8897530
--
0 1
 Cl        3.1999730     0.0000150     0.0000000
  C        1.4200400     0.0000170     0.0000000
  H        1.0738660     1.0266260     0.0000000
  H        1.0738650    -0.5132870     0.8890690
  H        1.0738650    -0.5132870    -0.8890690
units angstrom
no_reorient
symmetry c1
}

set {
scf_type DF
mp2_type DF
e_convergence 7
reference rhf
}

energy('mp2/aug-cc-pv[tq]z', bsse_type='cp')
--------------------------------------------------------------------------

    Molecular point group: c1
  Charge       = 0
  Multiplicity = 1
  Basis Set: AUG-CC-PVTZ
    Blend: AUG-CC-PVTZ
  Basis Set: (AUG-CC-PVTZ AUX)
    Blend: AUG-CC-PVTZ-JKFIT
  @DF-RHF Final Energy:  -499.14885293203372
    Total Energy =                       -499.1488529320337193
  Basis Set: (AUG-CC-PVTZ AUX)
    Blend: AUG-CC-PVTZ-RI
	 Reference Energy          =    -499.1488529320337193 [Eh]
	 Singles Energy            =      -0.0000000000000000 [Eh]
	 Same-Spin Energy          =      -0.0993529621698359 [Eh]
	 Opposite-Spin Energy      =      -0.3355738137173587 [Eh]
	 Correlation Energy        =      -0.4349267758871946 [Eh]
	 Total Energy              =    -499.5837797079209395 [Eh]
	 SCS Total Energy          =    -499.5846591625511337 [Eh]
    Molecular point group: c1
  Basis Set: AUG-CC-PVQZ
    Blend: AUG-CC-PVQZ
  Basis Set: (AUG-CC-PVQZ AUX)
    Blend: AUG-CC-PVQZ-JKFIT
  @DF-RHF Final Energy:  -499.15494479408329
    Total Energy =                       -499.1549447940833488
  Basis Set: (AUG-CC-PVQZ AUX)
  @DF-RHF Final Energy:  -499.14891085137594
    Total Energy =                       -499.1489108513759447
  @DF-RHF Final Energy:  -499.15496557933898
    Total Energy =                       -499.1549655793389775
  @DF-RHF Final Energy:  -499.14899885660014
    Total Energy =                       -499.1489988566001443
  @DF-RHF Final Energy:  -499.15498492868733
    Total Energy =                       -499.1549849286873268
  @DF-RHF Final Energy:  -499.14886493234519
    Total Energy =                       -499.1488649323451909
  @DF-RHF Final Energy:  -499.15495561300202
    Total Energy =                       -499.1549556130020164
  Multiplicity = 1
  @DF-RHF Final Energy:  -998.26405317832427
    Total Energy =                       -998.2640531783242750
	 Singles Energy            =      -0.0000000000000000 [Eh]
	 Same-Spin Energy          =      -0.2057898178282063 [Eh]
	 Opposite-Spin Energy      =      -0.6804438002451163 [Eh]
	 Correlation Energy        =      -0.8862336180733226 [Eh]
	 Total Energy              =    -999.1502867963976087 [Eh]
	 SCS Total Energy          =    -999.1491823445611544 [Eh]
    Molecular point group: c1

    Geometry (in Angstrom), charge = 0, multiplicity = 1:

       Center              X                  Y                   Z               Mass
    ------------   -----------------  -----------------  -----------------  -----------------
         CL          -1.549299459892    -0.000005635021     0.000000000000    34.968852682000
         C           -3.329352459892     0.000009364979     0.000000000000    12.000000000000
         H           -3.672794459892     1.027410364979     0.000000000000     1.007825032230
         H           -3.672807459892    -0.513687635021     0.889753000000     1.007825032230
         H           -3.672807459892    -0.513687635021    -0.889753000000     1.007825032230
         CL           2.660838540108     0.000000364979     0.000000000000    34.968852682000
         C            0.880905540108     0.000002364979     0.000000000000    12.000000000000
         H            0.534731540108     1.026611364979     0.000000000000     1.007825032230
         H            0.534730540108    -0.513301635021     0.889069000000     1.007825032230
         H            0.534730540108    -0.513301635021    -0.889069000000     1.007825032230

  Charge       = 0
  Multiplicity = 1
  Basis Set: AUG-CC-PVQZ
    Blend: AUG-CC-PVQZ
  Basis Set: (AUG-CC-PVQZ AUX)
    Blend: AUG-CC-PVQZ-JKFIT

    Orbital Energies [Eh]
    ---------------------

    Doubly Occupied:

       1A   -104.831727     2A   -104.809889     3A    -11.292412
       4A    -11.272605     5A    -10.559374     6A    -10.535739
       7A     -8.026464     8A     -8.024266     9A     -8.024266
      10A     -8.002865    11A     -8.001203    12A     -8.001203
      13A     -1.147251    14A     -1.114680    15A     -0.947576
      16A     -0.890848    17A     -0.628902    18A     -0.628902
      19A     -0.610457    20A     -0.610457    21A     -0.586574
      22A     -0.499082    23A     -0.453611    24A     -0.453611
      25A     -0.417514    26A     -0.417514

  @DF-RHF Final Energy:  -998.27617338400114

   => Energetics <=

    Nuclear Repulsion Energy =            196.2775577731467251
    One-Electron Energy =               -1767.5294738366562797
    Two-Electron Energy =                 572.9757426795083575
    Total Energy =                       -998.2761733840011402

  Dipole Moment: [D]
     X:    -4.4810      Y:     0.0000      Z:    -0.0000     Total:     4.4810

  Basis Set: (AUG-CC-PVQZ AUX)
    Blend: AUG-CC-PVQZ-RI
	 Reference Energy          =    -998.2761733840011402 [Eh]
	 Singles Energy            =      -0.0000000000000000 [Eh]
	 Same-Spin Energy          =      -0.2306965955497024 [Eh]
	 Opposite-Spin Energy      =      -0.7851059112433094 [Eh]
	 Correlation Energy        =      -1.0158025067930119 [Eh]
	 Total Energy              =    -999.2919758907941059 [Eh]

	 ================> DF-SCS-MP2 Energies <==================
	-----------------------------------------------------------
	 SCS Same-Spin Scale       =       0.3333333333333333 [-]
	 SCS Opposite-Spin Scale   =       1.2000000000000000 [-]
	 SCS Same-Spin Energy      =      -0.0768988651832341 [Eh]
	 SCS Opposite-Spin Energy  =      -0.9421270934919712 [Eh]
	 SCS Correlation Energy    =      -1.0190259586752053 [Eh]
	 SCS Total Energy          =    -999.2951993426763693 [Eh]
	-----------------------------------------------------------

*** Psi4 exiting successfully. Buy a developer a beer!
