                               Psi4 1.4a2.dev224

  ==> Input File <==

--------------------------------------------------------------------------
#Generated by lconvert.py for cbs job

memory 40 GB

molecule  {
0 1
 Br       -0.4693700     1.4687390    -0.6092730
  C       -0.7387550    -0.3443790    -0.0021790
  H        0.2221980    -0.7333830     0.3101940
  H       -1.4397120    -0.3146330     0.8223390
  H       -1.1415180    -0.9128000    -0.8308320
--
0 1
  O        2.5713690    -0.0825950     0.1400940
  H        3.4655920     0.2005740     0.3391820
  H        2.1384700     0.7184460    -0.1695740
units angstrom
no_reorient
symmetry c1
}

set {
scf_type DF
mp2_type DF
e_convergence 7
reference rhf
}

energy('mp2/aug-cc-pv[tq]z', bsse_type='cp')
--------------------------------------------------------------------------

    Molecular point group: c1
  Charge       = 0
  Multiplicity = 1
  Basis Set: AUG-CC-PVTZ
    Blend: AUG-CC-PVTZ
  Basis Set: (AUG-CC-PVTZ AUX)
    Blend: AUG-CC-PVTZ-JKFIT
  @DF-RHF Final Energy:   -76.06033770000306
    Total Energy =                        -76.0603377000030605
  Basis Set: (AUG-CC-PVTZ AUX)
    Blend: AUG-CC-PVTZ-RI
	 Reference Energy          =     -76.0603377000030605 [Eh]
	 Singles Energy            =      -0.0000000000000000 [Eh]
	 Same-Spin Energy          =      -0.0683999370075284 [Eh]
	 Opposite-Spin Energy      =      -0.2153439807771787 [Eh]
	 Correlation Energy        =      -0.2837439177847071 [Eh]
	 Total Energy              =     -76.3440816177877650 [Eh]
	 SCS Total Energy          =     -76.3415504559381901 [Eh]
    Molecular point group: c1
  Basis Set: AUG-CC-PVQZ
    Blend: AUG-CC-PVQZ
  Basis Set: (AUG-CC-PVQZ AUX)
    Blend: AUG-CC-PVQZ-JKFIT
  @DF-RHF Final Energy:   -76.06571597603347
    Total Energy =                        -76.0657159760334878
  Basis Set: (AUG-CC-PVQZ AUX)
  @DF-RHF Final Energy:   -76.06038912028345
    Total Energy =                        -76.0603891202834461
  @DF-RHF Final Energy:   -76.06573912243269
    Total Energy =                        -76.0657391224326886
  @DF-RHF Final Energy: -2612.09297233217467
    Total Energy =                      -2612.0929723321742131
  @DF-RHF Final Energy: -2612.09810367717546
    Total Energy =                      -2612.0981036771754589
  @DF-RHF Final Energy: -2612.09293864070378
    Total Energy =                      -2612.0929386407042330
  @DF-RHF Final Energy: -2612.09809583592414
    Total Energy =                      -2612.0980958359236865
  Multiplicity = 1
  @DF-RHF Final Energy: -2688.15593629957311
    Total Energy =                      -2688.1559362995726588
	 Singles Energy            =      -0.0000000000000000 [Eh]
	 Same-Spin Energy          =      -0.1975916992551113 [Eh]
	 Opposite-Spin Energy      =      -0.5829398066920197 [Eh]
	 Correlation Energy        =      -0.7805315059471311 [Eh]
	 Total Energy              =   -2688.9364678055203512 [Eh]
	 SCS Total Energy          =   -2688.9213279673554098 [Eh]
    Molecular point group: c1

    Geometry (in Angstrom), charge = 0, multiplicity = 1:

       Center              X                  Y                   Z               Mass
    ------------   -----------------  -----------------  -----------------  -----------------
         BR          -0.455902576799     0.491476643025    -0.203804417825    78.918337600000
         C           -0.725287576799    -1.321641356975     0.403289582175    12.000000000000
         H            0.235665423201    -1.710645356975     0.715662582175     1.007825032230
         H           -1.426244576799    -1.291895356975     1.227807582175     1.007825032230
         H           -1.128050576799    -1.890062356975    -0.425363417825     1.007825032230
         O            2.584836423201    -1.059857356975     0.545562582175    15.994914619570
         H            3.479059423201    -0.776688356975     0.744650582175     1.007825032230
         H            2.151937423201    -0.258816356975     0.235894582175     1.007825032230

  Charge       = 0
  Multiplicity = 1
  Basis Set: AUG-CC-PVQZ
    Blend: AUG-CC-PVQZ
  Basis Set: (AUG-CC-PVQZ AUX)
    Blend: AUG-CC-PVQZ-JKFIT

    Orbital Energies [Eh]
    ---------------------

    Doubly Occupied:

       1A   -490.015752     2A    -65.156278     3A    -58.511642
       4A    -58.510322     5A    -58.510308     6A    -20.562526
       7A    -11.281188     8A     -9.829623     9A     -7.440945
      10A     -7.434843    11A     -7.434706    12A     -3.184427
      13A     -3.181241    14A     -3.181077    15A     -3.173155
      16A     -3.173149    17A     -1.350710    18A     -1.064289
      19A     -0.896138    20A     -0.716352    21A     -0.610653
      22A     -0.609761    23A     -0.583386    24A     -0.509358
      25A     -0.507292    26A     -0.407250    27A     -0.405089

  @DF-RHF Final Energy: -2688.16642128063086

   => Energetics <=

    Nuclear Repulsion Energy =            166.4083337602298229
    One-Electron Energy =               -4072.6665903612356487
    Two-Electron Energy =                1218.0918353203751394
    Total Energy =                      -2688.1664212806308569

  Dipole Moment: [D]
     X:     0.3716      Y:    -0.3455      Z:     0.5325     Total:     0.7355

  Basis Set: (AUG-CC-PVQZ AUX)
    Blend: AUG-CC-PVQZ-RI
	 Reference Energy          =   -2688.1664212806308569 [Eh]
	 Singles Energy            =      -0.0000000000000000 [Eh]
	 Same-Spin Energy          =      -0.2362299530686487 [Eh]
	 Opposite-Spin Energy      =      -0.7007465416711894 [Eh]
	 Correlation Energy        =      -0.9369764947398381 [Eh]
	 Total Energy              =   -2689.1033977753709223 [Eh]

	 ================> DF-SCS-MP2 Energies <==================
	-----------------------------------------------------------
	 SCS Same-Spin Scale       =       0.3333333333333333 [-]
	 SCS Opposite-Spin Scale   =       1.2000000000000000 [-]
	 SCS Same-Spin Energy      =      -0.0787433176895496 [Eh]
	 SCS Opposite-Spin Energy  =      -0.8408958500054273 [Eh]
	 SCS Correlation Energy    =      -0.9196391676949769 [Eh]
	 SCS Total Energy          =   -2689.0860604483259522 [Eh]
	-----------------------------------------------------------

*** Psi4 exiting successfully. Buy a developer a beer!
