                               Psi4 1.4a2.dev224

  ==> Input File <==

--------------------------------------------------------------------------
#Generated by lconvert.py for cbs job

memory 20 GB

molecule  {
0 1
 Br      -0.469370    1.468740   -0.609270
  C      -0.738760   -0.344380   -0.002180
  H       0.222200   -0.733380    0.310190
  H      -1.439710   -0.314630    0.822340
  H      -1.141520   -0.912800   -0.830830
--
0 1
  O       5.538090   -1.221030    0.754070
  H       6.432310   -0.937860    0.953150
  H       5.105190   -0.419990    0.444400
units angstrom
no_reorient
symmetry c1
}

set {
scf_type DF
mp2_type DF
e_convergence 7
reference rhf
}

energy('mp2/aug-cc-pv[tq]z', bsse_type='cp')
--------------------------------------------------------------------------

    Molecular point group: c1
  Charge       = 0
  Multiplicity = 1
  Basis Set: AUG-CC-PVTZ
    Blend: AUG-CC-PVTZ
  Basis Set: (AUG-CC-PVTZ AUX)
    Blend: AUG-CC-PVTZ-JKFIT
  @DF-RHF Final Energy:   -76.06033782308825
    Total Energy =                        -76.0603378230882470
  Basis Set: (AUG-CC-PVTZ AUX)
    Blend: AUG-CC-PVTZ-RI
	 Reference Energy          =     -76.0603378230882470 [Eh]
	 Singles Energy            =      -0.0000000000000000 [Eh]
	 Same-Spin Energy          =      -0.0683999056529941 [Eh]
	 Opposite-Spin Energy      =      -0.2153438846608947 [Eh]
	 Correlation Energy        =      -0.2837437903138888 [Eh]
	 Total Energy              =     -76.3440816134021389 [Eh]
	 SCS Total Energy          =     -76.3415504532323155 [Eh]
    Molecular point group: c1
  Basis Set: AUG-CC-PVQZ
    Blend: AUG-CC-PVQZ
  Basis Set: (AUG-CC-PVQZ AUX)
    Blend: AUG-CC-PVQZ-JKFIT
  @DF-RHF Final Energy:   -76.06571610923145
    Total Energy =                        -76.0657161092314595
  Basis Set: (AUG-CC-PVQZ AUX)
  @DF-RHF Final Energy:   -76.06033974970960
    Total Energy =                        -76.0603397497095983
  @DF-RHF Final Energy:   -76.06571719119700
    Total Energy =                        -76.0657171911969954
  @DF-RHF Final Energy: -2612.09294070112719
    Total Energy =                      -2612.0929407011271906
  @DF-RHF Final Energy: -2612.09809641676065
    Total Energy =                      -2612.0980964167601996
  @DF-RHF Final Energy: -2612.09293867159704
    Total Energy =                      -2612.0929386715974942
  @DF-RHF Final Energy: -2612.09809586737902
    Total Energy =                      -2612.0980958673790155
  Multiplicity = 1
  @DF-RHF Final Energy: -2688.15372586769718
    Total Energy =                      -2688.1537258676971760
	 Singles Energy            =      -0.0000000000000000 [Eh]
	 Same-Spin Energy          =      -0.1951857434422304 [Eh]
	 Opposite-Spin Energy      =      -0.5797360077930251 [Eh]
	 Correlation Energy        =      -0.7749217512352555 [Eh]
	 Total Energy              =   -2688.9286476189322457 [Eh]
	 SCS Total Energy          =   -2688.9144709915294698 [Eh]
    Molecular point group: c1

    Geometry (in Angstrom), charge = 0, multiplicity = 1:

       Center              X                  Y                   Z               Mass
    ------------   -----------------  -----------------  -----------------  -----------------
         BR          -0.933179251975     0.674625019798    -0.302577954689    78.918337600000
         C           -1.202569251975    -1.138494980202     0.304512045311    12.000000000000
         H           -0.241609251975    -1.527494980202     0.616882045311     1.007825032230
         H           -1.903519251975    -1.108744980202     1.129032045311     1.007825032230
         H           -1.605329251975    -1.706914980202    -0.524137954689     1.007825032230
         O            5.074280748025    -2.015144980202     1.060762045311    15.994914619570
         H            5.968500748025    -1.731974980202     1.259842045311     1.007825032230
         H            4.641380748025    -1.214104980202     0.751092045311     1.007825032230

  Charge       = 0
  Multiplicity = 1
  Basis Set: AUG-CC-PVQZ
    Blend: AUG-CC-PVQZ
  Basis Set: (AUG-CC-PVQZ AUX)
    Blend: AUG-CC-PVQZ-JKFIT

    Orbital Energies [Eh]
    ---------------------

    Doubly Occupied:

       1A   -490.012646     2A    -65.153091     3A    -58.508492
       4A    -58.507104     5A    -58.507102     6A    -20.566266
       7A    -11.286200     8A     -9.826365     9A     -7.437825
      10A     -7.431396    11A     -7.431388    12A     -3.181377
      13A     -3.177991    14A     -3.177981    15A     -3.169653
      16A     -3.169652    17A     -1.352474    18A     -1.063599
      19A     -0.897038    20A     -0.715758    21A     -0.614057
      22A     -0.613065    23A     -0.586465    24A     -0.511220
      25A     -0.506954    26A     -0.402369    27A     -0.402175

  @DF-RHF Final Energy: -2688.16425673654612

   => Energetics <=

    Nuclear Repulsion Energy =            133.8453429004197517
    One-Electron Energy =               -4007.5997870404703463
    Two-Electron Energy =                1185.5901874035041601
    Total Energy =                      -2688.1642567365461218

  Dipole Moment: [D]
     X:     0.4628      Y:    -0.2100      Z:     0.4910     Total:     0.7067

  Basis Set: (AUG-CC-PVQZ AUX)
    Blend: AUG-CC-PVQZ-RI
	 Reference Energy          =   -2688.1642567365461218 [Eh]
	 Singles Energy            =      -0.0000000000000000 [Eh]
	 Same-Spin Energy          =      -0.2339500891374382 [Eh]
	 Opposite-Spin Energy      =      -0.6980875474004886 [Eh]
	 Correlation Energy        =      -0.9320376365379268 [Eh]
	 Total Energy              =   -2689.0962943730842198 [Eh]

	 ================> DF-SCS-MP2 Energies <==================
	-----------------------------------------------------------
	 SCS Same-Spin Scale       =       0.3333333333333333 [-]
	 SCS Opposite-Spin Scale   =       1.2000000000000000 [-]
	 SCS Same-Spin Energy      =      -0.0779833630458127 [Eh]
	 SCS Opposite-Spin Energy  =      -0.8377050568805863 [Eh]
	 SCS Correlation Energy    =      -0.9156884199263990 [Eh]
	 SCS Total Energy          =   -2689.0799451564726041 [Eh]
	-----------------------------------------------------------

*** Psi4 exiting successfully. Buy a developer a beer!
