                               Psi4 1.4a2.dev224

  ==> Input File <==

--------------------------------------------------------------------------
#Generated by lconvert.py for cbs job

memory 20 GB

molecule  {
0 1
 Br      -0.469370    1.468740   -0.609270
  C      -0.738760   -0.344380   -0.002180
  H       0.222200   -0.733380    0.310190
  H      -1.439710   -0.314630    0.822340
  H      -1.141520   -0.912800   -0.830830
--
0 1
  O       4.577340   -0.852360    0.555240
  H       5.471560   -0.569190    0.754320
  H       4.144440   -0.051320    0.245570
units angstrom
no_reorient
symmetry c1
}

set {
scf_type DF
mp2_type DF
e_convergence 7
reference rhf
}

energy('mp2/aug-cc-pv[tq]z', bsse_type='cp')
--------------------------------------------------------------------------

    Molecular point group: c1
  Charge       = 0
  Multiplicity = 1
  Basis Set: AUG-CC-PVTZ
    Blend: AUG-CC-PVTZ
  Basis Set: (AUG-CC-PVTZ AUX)
    Blend: AUG-CC-PVTZ-JKFIT
  @DF-RHF Final Energy:   -76.06033782308904
    Total Energy =                        -76.0603378230890428
  Basis Set: (AUG-CC-PVTZ AUX)
    Blend: AUG-CC-PVTZ-RI
	 Reference Energy          =     -76.0603378230890428 [Eh]
	 Singles Energy            =      -0.0000000000000000 [Eh]
	 Same-Spin Energy          =      -0.0683999056529959 [Eh]
	 Opposite-Spin Energy      =      -0.2153438846609641 [Eh]
	 Correlation Energy        =      -0.2837437903139600 [Eh]
	 Total Energy              =     -76.3440816134030058 [Eh]
	 SCS Total Energy          =     -76.3415504532331965 [Eh]
    Molecular point group: c1
  Basis Set: AUG-CC-PVQZ
    Blend: AUG-CC-PVQZ
  Basis Set: (AUG-CC-PVQZ AUX)
    Blend: AUG-CC-PVQZ-JKFIT
  @DF-RHF Final Energy:   -76.06571610925386
    Total Energy =                        -76.0657161092538558
  Basis Set: (AUG-CC-PVQZ AUX)
  @DF-RHF Final Energy:   -76.06034265124610
    Total Energy =                        -76.0603426512461169
  @DF-RHF Final Energy:   -76.06571871230388
    Total Energy =                        -76.0657187123038767
  @DF-RHF Final Energy: -2612.09294266472716
    Total Energy =                      -2612.0929426647271612
  @DF-RHF Final Energy: -2612.09809739075263
    Total Energy =                      -2612.0980973907526277
  @DF-RHF Final Energy: -2612.09293867150927
    Total Energy =                      -2612.0929386715097280
  @DF-RHF Final Energy: -2612.09809586696520
    Total Energy =                      -2612.0980958669651955
  Multiplicity = 1
  @DF-RHF Final Energy: -2688.15412341275851
    Total Energy =                      -2688.1541234127580537
	 Singles Energy            =      -0.0000000000000000 [Eh]
	 Same-Spin Energy          =      -0.1952709385226550 [Eh]
	 Opposite-Spin Energy      =      -0.5798676528471703 [Eh]
	 Correlation Energy        =      -0.7751385913698254 [Eh]
	 Total Energy              =   -2688.9292620041283044 [Eh]
	 SCS Total Energy          =   -2688.9150549090159075 [Eh]
    Molecular point group: c1

    Geometry (in Angstrom), charge = 0, multiplicity = 1:

       Center              X                  Y                   Z               Mass
    ------------   -----------------  -----------------  -----------------  -----------------
         BR          -0.778616656476     0.615314489398    -0.270590777106    78.918337600000
         C           -1.048006656476    -1.197805510602     0.336499222894    12.000000000000
         H           -0.087046656476    -1.586805510602     0.648869222894     1.007825032230
         H           -1.748956656476    -1.168055510602     1.161019222894     1.007825032230
         H           -1.450766656476    -1.766225510602    -0.492150777106     1.007825032230
         O            4.268093343524    -1.705785510602     0.893919222894    15.994914619570
         H            5.162313343524    -1.422615510602     1.092999222894     1.007825032230
         H            3.835193343524    -0.904745510602     0.584249222894     1.007825032230

  Charge       = 0
  Multiplicity = 1
  Basis Set: AUG-CC-PVQZ
    Blend: AUG-CC-PVQZ
  Basis Set: (AUG-CC-PVQZ AUX)
    Blend: AUG-CC-PVQZ-JKFIT

    Orbital Energies [Eh]
    ---------------------

    Doubly Occupied:

       1A   -490.013040     2A    -65.153488     3A    -58.508886
       4A    -58.507504     5A    -58.507502     6A    -20.566351
       7A    -11.285947     8A     -9.826764     9A     -7.438211
      10A     -7.431811    11A     -7.431794    12A     -3.181756
      13A     -3.178389    14A     -3.178366    15A     -3.170076
      16A     -3.170075    17A     -1.352598    18A     -1.063735
      19A     -0.897034    20A     -0.715890    21A     -0.613755
      22A     -0.612855    23A     -0.586716    24A     -0.511383
      25A     -0.507090    26A     -0.402854    27A     -0.402542

  @DF-RHF Final Energy: -2688.16464949362080

   => Energetics <=

    Nuclear Repulsion Energy =            140.3661873500709873
    One-Electron Energy =               -4020.6288474628345284
    Two-Electron Energy =                1192.0980106191425421
    Total Energy =                      -2688.1646494936212548

  Dipole Moment: [D]
     X:     0.4509      Y:    -0.2303      Z:     0.4962     Total:     0.7089

  Basis Set: (AUG-CC-PVQZ AUX)
    Blend: AUG-CC-PVQZ-RI
	 Reference Energy          =   -2688.1646494936208001 [Eh]
	 Singles Energy            =      -0.0000000000000000 [Eh]
	 Same-Spin Energy          =      -0.2340262564672294 [Eh]
	 Opposite-Spin Energy      =      -0.6981712794006432 [Eh]
	 Correlation Energy        =      -0.9321975358678726 [Eh]
	 Total Energy              =   -2689.0968470294887993 [Eh]

	 ================> DF-SCS-MP2 Energies <==================
	-----------------------------------------------------------
	 SCS Same-Spin Scale       =       0.3333333333333333 [-]
	 SCS Opposite-Spin Scale   =       1.2000000000000000 [-]
	 SCS Same-Spin Energy      =      -0.0780087521557431 [Eh]
	 SCS Opposite-Spin Energy  =      -0.8378055352807717 [Eh]
	 SCS Correlation Energy    =      -0.9158142874365148 [Eh]
	 SCS Total Energy          =   -2689.0804637810574604 [Eh]
	-----------------------------------------------------------

*** Psi4 exiting successfully. Buy a developer a beer!
