                               Psi4 1.4a2.dev224

  ==> Input File <==

--------------------------------------------------------------------------
#Generated by lconvert.py for cbs job

memory 40 GB

molecule  {
0 1
 Br       -0.4693700     1.4687390    -0.6092730
  C       -0.7387550    -0.3443790    -0.0021790
  H        0.2221980    -0.7333830     0.3101940
  H       -1.4397120    -0.3146330     0.8223390
  H       -1.1415180    -0.9128000    -0.8308320
--
0 1
  O        1.9333900     0.1622210     0.0080640
  H        2.8276130     0.4453900     0.2071520
  H        1.5004910     0.9632620    -0.3016040
units angstrom
no_reorient
symmetry c1
}

set {
scf_type DF
mp2_type DF
e_convergence 7
reference rhf
}

energy('mp2/aug-cc-pv[tq]z', bsse_type='cp')
--------------------------------------------------------------------------

    Molecular point group: c1
  Charge       = 0
  Multiplicity = 1
  Basis Set: AUG-CC-PVTZ
    Blend: AUG-CC-PVTZ
  Basis Set: (AUG-CC-PVTZ AUX)
    Blend: AUG-CC-PVTZ-JKFIT
  @DF-RHF Final Energy:   -76.06033770000150
    Total Energy =                        -76.0603377000015115
  Basis Set: (AUG-CC-PVTZ AUX)
    Blend: AUG-CC-PVTZ-RI
	 Reference Energy          =     -76.0603377000014973 [Eh]
	 Singles Energy            =      -0.0000000000000000 [Eh]
	 Same-Spin Energy          =      -0.0683999370075300 [Eh]
	 Opposite-Spin Energy      =      -0.2153439807771609 [Eh]
	 Correlation Energy        =      -0.2837439177846909 [Eh]
	 Total Energy              =     -76.3440816177861876 [Eh]
	 SCS Total Energy          =     -76.3415504559365985 [Eh]
    Molecular point group: c1
  Basis Set: AUG-CC-PVQZ
    Blend: AUG-CC-PVQZ
  Basis Set: (AUG-CC-PVQZ AUX)
    Blend: AUG-CC-PVQZ-JKFIT
  @DF-RHF Final Energy:   -76.06571597602570
    Total Energy =                        -76.0657159760256860
  Basis Set: (AUG-CC-PVQZ AUX)
  @DF-RHF Final Energy:   -76.06042417160891
    Total Energy =                        -76.0604241716089149
  @DF-RHF Final Energy:   -76.06575549990663
    Total Energy =                        -76.0657554999066292
  @DF-RHF Final Energy: -2612.09299891893124
    Total Energy =                      -2612.0929989189312437
  @DF-RHF Final Energy: -2612.09810922032375
    Total Energy =                      -2612.0981092203237495
  @DF-RHF Final Energy: -2612.09293864040637
    Total Energy =                      -2612.0929386404063735
  @DF-RHF Final Energy: -2612.09809583582637
    Total Energy =                      -2612.0980958358263706
  Multiplicity = 1
  @DF-RHF Final Energy: -2688.13488591954092
    Total Energy =                      -2688.1348859195409204
	 Singles Energy            =      -0.0000000000000000 [Eh]
	 Same-Spin Energy          =      -0.2024566732732471 [Eh]
	 Opposite-Spin Energy      =      -0.5890510169190124 [Eh]
	 Correlation Energy        =      -0.7915076901922595 [Eh]
	 Total Energy              =   -2688.9263936097331680 [Eh]
	 SCS Total Energy          =   -2688.9092326976015102 [Eh]
    Molecular point group: c1

    Geometry (in Angstrom), charge = 0, multiplicity = 1:

       Center              X                  Y                   Z               Mass
    ------------   -----------------  -----------------  -----------------  -----------------
         BR          -0.353266417430     0.452091374871    -0.182563825075    78.918337600000
         C           -0.622651417430    -1.361026625129     0.424530174925    12.000000000000
         H            0.338301582570    -1.750030625129     0.736903174925     1.007825032230
         H           -1.323608417430    -1.331280625129     1.249048174925     1.007825032230
         H           -1.025414417430    -1.929447625129    -0.404122825075     1.007825032230
         O            2.049493582570    -0.854426625129     0.434773174925    15.994914619570
         H            2.943716582570    -0.571257625129     0.633861174925     1.007825032230
         H            1.616594582570    -0.053385625129     0.125105174925     1.007825032230

  Charge       = 0
  Multiplicity = 1
  Basis Set: AUG-CC-PVQZ
    Blend: AUG-CC-PVQZ
  Basis Set: (AUG-CC-PVQZ AUX)
    Blend: AUG-CC-PVQZ-JKFIT

    Orbital Energies [Eh]
    ---------------------

    Doubly Occupied:

       1A   -490.016164     2A    -65.157160     3A    -58.512451
       4A    -58.511173     5A    -58.511172     6A    -20.549231
       7A    -11.273227     8A     -9.830981     9A     -7.442161
      10A     -7.436459    11A     -7.436114    12A     -3.185607
      13A     -3.182535    14A     -3.182296    15A     -3.174726
      16A     -3.174670    17A     -1.348369    18A     -1.066270
      19A     -0.896955    20A     -0.723935    21A     -0.620202
      22A     -0.605945    23A     -0.560988    24A     -0.507671
      25A     -0.502373    26A     -0.407150    27A     -0.406381

  @DF-RHF Final Energy: -2688.14539170372109

   => Energetics <=

    Nuclear Repulsion Energy =            182.8813279705697994
    One-Electron Energy =               -4105.6087091466160928
    Two-Electron Energy =                1234.5819894723258585
    Total Energy =                      -2688.1453917037206338

  Dipole Moment: [D]
     X:     0.3545      Y:    -0.3975      Z:     0.5584     Total:     0.7717

  Basis Set: (AUG-CC-PVQZ AUX)
    Blend: AUG-CC-PVQZ-RI
	 Reference Energy          =   -2688.1453917037210886 [Eh]
	 Singles Energy            =      -0.0000000000000000 [Eh]
	 Same-Spin Energy          =      -0.2410732754748110 [Eh]
	 Opposite-Spin Energy      =      -0.7066349455359771 [Eh]
	 Correlation Energy        =      -0.9477082210107880 [Eh]
	 Total Energy              =   -2689.0930999247320869 [Eh]

	 ================> DF-SCS-MP2 Energies <==================
	-----------------------------------------------------------
	 SCS Same-Spin Scale       =       0.3333333333333333 [-]
	 SCS Opposite-Spin Scale   =       1.2000000000000000 [-]
	 SCS Same-Spin Energy      =      -0.0803577584916036 [Eh]
	 SCS Opposite-Spin Energy  =      -0.8479619346431725 [Eh]
	 SCS Correlation Energy    =      -0.9283196931347761 [Eh]
	 SCS Total Energy          =   -2689.0737113968557424 [Eh]
	-----------------------------------------------------------

*** Psi4 exiting successfully. Buy a developer a beer!
