                               Psi4 1.4a2.dev224

  ==> Input File <==

--------------------------------------------------------------------------
#Generated by lconvert.py for cbs job

memory 40 GB

molecule  {
0 1
 Br       -0.4693700     1.4687390    -0.6092730
  C       -0.7387550    -0.3443790    -0.0021790
  H        0.2221980    -0.7333830     0.3101940
  H       -1.4397120    -0.3146330     0.8223390
  H       -1.1415180    -0.9128000    -0.8308320
--
0 1
  O        2.2705130     0.0328540     0.0778320
  H        3.1647360     0.3160230     0.2769200
  H        1.8376140     0.8338950    -0.2318360
units angstrom
no_reorient
symmetry c1
}

set {
scf_type DF
mp2_type DF
e_convergence 7
reference rhf
}

energy('mp2/aug-cc-pv[tq]z', bsse_type='cp')
--------------------------------------------------------------------------

    Molecular point group: c1
  Charge       = 0
  Multiplicity = 1
  Basis Set: AUG-CC-PVTZ
    Blend: AUG-CC-PVTZ
  Basis Set: (AUG-CC-PVTZ AUX)
    Blend: AUG-CC-PVTZ-JKFIT
  @DF-RHF Final Energy:   -76.06033770000028
    Total Energy =                        -76.0603377000002752
  Basis Set: (AUG-CC-PVTZ AUX)
    Blend: AUG-CC-PVTZ-RI
	 Reference Energy          =     -76.0603377000002752 [Eh]
	 Singles Energy            =      -0.0000000000000000 [Eh]
	 Same-Spin Energy          =      -0.0683999370075448 [Eh]
	 Opposite-Spin Energy      =      -0.2153439807771986 [Eh]
	 Correlation Energy        =      -0.2837439177847434 [Eh]
	 Total Energy              =     -76.3440816177850223 [Eh]
	 SCS Total Energy          =     -76.3415504559354332 [Eh]
    Molecular point group: c1
  Basis Set: AUG-CC-PVQZ
    Blend: AUG-CC-PVQZ
  Basis Set: (AUG-CC-PVQZ AUX)
    Blend: AUG-CC-PVQZ-JKFIT
  @DF-RHF Final Energy:   -76.06571597604417
    Total Energy =                        -76.0657159760441743
  Basis Set: (AUG-CC-PVQZ AUX)
  @DF-RHF Final Energy:   -76.06040245918318
    Total Energy =                        -76.0604024591831802
  @DF-RHF Final Energy:   -76.06574724421239
    Total Energy =                        -76.0657472442123890
  @DF-RHF Final Energy: -2612.09298228816715
    Total Energy =                      -2612.0929822881676046
  @DF-RHF Final Energy: -2612.09810577952385
    Total Energy =                      -2612.0981057795238485
  @DF-RHF Final Energy: -2612.09293864021129
    Total Energy =                      -2612.0929386402112868
  @DF-RHF Final Energy: -2612.09809583521201
    Total Energy =                      -2612.0980958352120069
  Multiplicity = 1
  @DF-RHF Final Energy: -2688.15212750751516
    Total Energy =                      -2688.1521275075156154
	 Singles Energy            =      -0.0000000000000000 [Eh]
	 Same-Spin Energy          =      -0.1992732786087482 [Eh]
	 Opposite-Spin Energy      =      -0.5850810022203176 [Eh]
	 Correlation Energy        =      -0.7843542808290658 [Eh]
	 Total Energy              =   -2688.9364817883442811 [Eh]
	 SCS Total Energy          =   -2688.9206491363825080 [Eh]
    Molecular point group: c1

    Geometry (in Angstrom), charge = 0, multiplicity = 1:

       Center              X                  Y                   Z               Mass
    ------------   -----------------  -----------------  -----------------  -----------------
         BR          -0.407501760529     0.472903552120    -0.193787892900    78.918337600000
         C           -0.676886760529    -1.340214447880     0.413306107100    12.000000000000
         H            0.284066239471    -1.729218447880     0.725679107100     1.007825032230
         H           -1.377843760529    -1.310468447880     1.237824107100     1.007825032230
         H           -1.079649760529    -1.908635447880    -0.415346892900     1.007825032230
         O            2.332381239471    -0.962981447880     0.493317107100    15.994914619570
         H            3.226604239471    -0.679812447880     0.692405107100     1.007825032230
         H            1.899482239471    -0.161940447880     0.183649107100     1.007825032230

  Charge       = 0
  Multiplicity = 1
  Basis Set: AUG-CC-PVQZ
    Blend: AUG-CC-PVQZ
  Basis Set: (AUG-CC-PVQZ AUX)
    Blend: AUG-CC-PVQZ-JKFIT

    Orbital Energies [Eh]
    ---------------------

    Doubly Occupied:

       1A   -490.016177     2A    -65.156821     3A    -58.512165
       4A    -58.510862     5A    -58.510852     6A    -20.558499
       7A    -11.278259     8A     -9.830280     9A     -7.441553
      10A     -7.435580    11A     -7.435392    12A     -3.185013
      13A     -3.181878    14A     -3.181687    15A     -3.173895
      16A     -3.173880    17A     -1.349427    18A     -1.064677
      19A     -0.895912    20A     -0.718276    21A     -0.612534
      22A     -0.608180    23A     -0.576687    24A     -0.507449
      25A     -0.506902    26A     -0.408242    27A     -0.405901

  @DF-RHF Final Energy: -2688.16260783259077

   => Energetics <=

    Nuclear Repulsion Energy =            173.3157663897559075
    One-Electron Energy =               -4086.4827835047908593
    Two-Electron Energy =                1225.0044092824443851
    Total Energy =                      -2688.1626078325907656

  Dipole Moment: [D]
     X:     0.3583      Y:    -0.3715      Z:     0.5440     Total:     0.7499

  Basis Set: (AUG-CC-PVQZ AUX)
    Blend: AUG-CC-PVQZ-RI
	 Reference Energy          =   -2688.1626078325907656 [Eh]
	 Singles Energy            =      -0.0000000000000000 [Eh]
	 Same-Spin Energy          =      -0.2378287839280628 [Eh]
	 Opposite-Spin Energy      =      -0.7026489726122487 [Eh]
	 Correlation Energy        =      -0.9404777565403115 [Eh]
	 Total Energy              =   -2689.1030855891312967 [Eh]

	 ================> DF-SCS-MP2 Energies <==================
	-----------------------------------------------------------
	 SCS Same-Spin Scale       =       0.3333333333333333 [-]
	 SCS Opposite-Spin Scale   =       1.2000000000000000 [-]
	 SCS Same-Spin Energy      =      -0.0792762613093543 [Eh]
	 SCS Opposite-Spin Energy  =      -0.8431787671346984 [Eh]
	 SCS Correlation Energy    =      -0.9224550284440527 [Eh]
	 SCS Total Energy          =   -2689.0850628610346575 [Eh]
	-----------------------------------------------------------

*** Psi4 exiting successfully. Buy a developer a beer!
