                               Psi4 1.4a2.dev224

  ==> Input File <==

--------------------------------------------------------------------------
#Generated by lconvert.py for cbs job

memory 40 GB

molecule  {
0 1
 Br       -0.4693700     1.4687390    -0.6092730
  C       -0.7387550    -0.3443790    -0.0021790
  H        0.2221980    -0.7333830     0.3101940
  H       -1.4397120    -0.3146330     0.8223390
  H       -1.1415180    -0.9128000    -0.8308320
--
0 1
  O        2.9760820    -0.2378980     0.2238500
  H        3.8703050     0.0452710     0.4229380
  H        2.5431830     0.5631430    -0.0858180
units angstrom
no_reorient
symmetry c1
}

set {
scf_type DF
mp2_type DF
e_convergence 7
reference rhf
}

energy('mp2/aug-cc-pv[tq]z', bsse_type='cp')
--------------------------------------------------------------------------

    Molecular point group: c1
  Charge       = 0
  Multiplicity = 1
  Basis Set: AUG-CC-PVTZ
    Blend: AUG-CC-PVTZ
  Basis Set: (AUG-CC-PVTZ AUX)
    Blend: AUG-CC-PVTZ-JKFIT
  @DF-RHF Final Energy:   -76.06033769999549
    Total Energy =                        -76.0603376999955003
  Basis Set: (AUG-CC-PVTZ AUX)
    Blend: AUG-CC-PVTZ-RI
	 Reference Energy          =     -76.0603376999954861 [Eh]
	 Singles Energy            =      -0.0000000000000000 [Eh]
	 Same-Spin Energy          =      -0.0683999370075450 [Eh]
	 Opposite-Spin Energy      =      -0.2153439807771798 [Eh]
	 Correlation Energy        =      -0.2837439177847247 [Eh]
	 Total Energy              =     -76.3440816177802049 [Eh]
	 SCS Total Energy          =     -76.3415504559306157 [Eh]
    Molecular point group: c1
  Basis Set: AUG-CC-PVQZ
    Blend: AUG-CC-PVQZ
  Basis Set: (AUG-CC-PVQZ AUX)
    Blend: AUG-CC-PVQZ-JKFIT
  @DF-RHF Final Energy:   -76.06571597601980
    Total Energy =                        -76.0657159760198027
  Basis Set: (AUG-CC-PVQZ AUX)
  @DF-RHF Final Energy:   -76.06037180615516
    Total Energy =                        -76.0603718061551604
  @DF-RHF Final Energy:   -76.06572983878684
    Total Energy =                        -76.0657298387868366
  @DF-RHF Final Energy: -2612.09296260421297
    Total Energy =                      -2612.0929626042125165
  @DF-RHF Final Energy: -2612.09810161839414
    Total Energy =                      -2612.0981016183941392
  @DF-RHF Final Energy: -2612.09293864067831
    Total Energy =                      -2612.0929386406783124
  @DF-RHF Final Energy: -2612.09809583584183
    Total Energy =                      -2612.0980958358418320
  Multiplicity = 1
  @DF-RHF Final Energy: -2688.15627030468704
    Total Energy =                      -2688.1562703046870411
	 Singles Energy            =      -0.0000000000000000 [Eh]
	 Same-Spin Energy          =      -0.1963721325926379 [Eh]
	 Opposite-Spin Energy      =      -0.5813408597359335 [Eh]
	 Correlation Energy        =      -0.7777129923285714 [Eh]
	 Total Energy              =   -2688.9339832970154021 [Eh]
	 SCS Total Energy          =   -2688.9193367139009752 [Eh]
    Molecular point group: c1

    Geometry (in Angstrom), charge = 0, multiplicity = 1:

       Center              X                  Y                   Z               Mass
    ------------   -----------------  -----------------  -----------------  -----------------
         BR          -0.521011597576     0.516461326625    -0.217278833384    78.918337600000
         C           -0.790396597576    -1.296656673375     0.389815166616    12.000000000000
         H            0.170556402424    -1.685660673375     0.702188166616     1.007825032230
         H           -1.491353597576    -1.266910673375     1.214333166616     1.007825032230
         H           -1.193159597576    -1.865077673375    -0.438837833384     1.007825032230
         O            2.924440402424    -1.190175673375     0.615844166616    15.994914619570
         H            3.818663402424    -0.907006673375     0.814932166616     1.007825032230
         H            2.491541402424    -0.389134673375     0.306176166616     1.007825032230

  Charge       = 0
  Multiplicity = 1
  Basis Set: AUG-CC-PVQZ
    Blend: AUG-CC-PVQZ
  Basis Set: (AUG-CC-PVQZ AUX)
    Blend: AUG-CC-PVQZ-JKFIT

    Orbital Energies [Eh]
    ---------------------

    Doubly Occupied:

       1A   -490.014947     2A    -65.155422     3A    -58.510801
       4A    -58.509459     5A    -58.509446     6A    -20.564947
       7A    -11.283492     8A     -9.828720     9A     -7.440090
      10A     -7.433871    11A     -7.433779    12A     -3.183595
      13A     -3.180345    14A     -3.180226    15A     -3.172168
      16A     -3.172166    17A     -1.351828    18A     -1.064122
      19A     -0.896563    20A     -0.715764    21A     -0.611361
      22A     -0.611048    23A     -0.586328    24A     -0.510743
      25A     -0.507371    26A     -0.405631    27A     -0.404227

  @DF-RHF Final Energy: -2688.16676588038490

   => Energetics <=

    Nuclear Repulsion Energy =            158.8742337504464786
    One-Electron Energy =               -4057.6050704680737908
    Two-Electron Energy =                1210.5640708372422978
    Total Energy =                      -2688.1667658803853556

  Dipole Moment: [D]
     X:     0.3942      Y:    -0.3117      Z:     0.5200     Total:     0.7231

  Basis Set: (AUG-CC-PVQZ AUX)
    Blend: AUG-CC-PVQZ-RI
	 Reference Energy          =   -2688.1667658803849008 [Eh]
	 Singles Energy            =      -0.0000000000000000 [Eh]
	 Same-Spin Energy          =      -0.2350881284582343 [Eh]
	 Opposite-Spin Energy      =      -0.6994089611252201 [Eh]
	 Correlation Energy        =      -0.9344970895834543 [Eh]
	 Total Energy              =   -2689.1012629699685021 [Eh]

	 ================> DF-SCS-MP2 Energies <==================
	-----------------------------------------------------------
	 SCS Same-Spin Scale       =       0.3333333333333333 [-]
	 SCS Opposite-Spin Scale   =       1.2000000000000000 [-]
	 SCS Same-Spin Energy      =      -0.0783627094860781 [Eh]
	 SCS Opposite-Spin Energy  =      -0.8392907533502642 [Eh]
	 SCS Correlation Energy    =      -0.9176534628363422 [Eh]
	 SCS Total Energy          =   -2689.0844193432212705 [Eh]
	-----------------------------------------------------------

*** Psi4 exiting successfully. Buy a developer a beer!
