                               Psi4 1.4a2.dev224

  ==> Input File <==

--------------------------------------------------------------------------
#Generated by lconvert.py for cbs job

memory 40 GB

molecule  {
0 1
 Br       -0.4693700     1.4687390    -0.6092730
  C       -0.7387550    -0.3443790    -0.0021790
  H        0.2221980    -0.7333830     0.3101940
  H       -1.4397120    -0.3146330     0.8223390
  H       -1.1415180    -0.9128000    -0.8308320
--
0 1
  O        1.6131390     0.2851130    -0.0582130
  H        2.5073620     0.5682820     0.1408750
  H        1.1802400     1.0861540    -0.3678810
units angstrom
no_reorient
symmetry c1
}

set {
scf_type DF
mp2_type DF
e_convergence 7
reference rhf
}

energy('mp2/aug-cc-pv[tq]z', bsse_type='cp')
--------------------------------------------------------------------------

    Molecular point group: c1
  Charge       = 0
  Multiplicity = 1
  Basis Set: AUG-CC-PVTZ
    Blend: AUG-CC-PVTZ
  Basis Set: (AUG-CC-PVTZ AUX)
    Blend: AUG-CC-PVTZ-JKFIT
  @DF-RHF Final Energy:   -76.06033769999050
    Total Energy =                        -76.0603376999904981
  Basis Set: (AUG-CC-PVTZ AUX)
    Blend: AUG-CC-PVTZ-RI
	 Reference Energy          =     -76.0603376999904981 [Eh]
	 Singles Energy            =      -0.0000000000000000 [Eh]
	 Same-Spin Energy          =      -0.0683999370075554 [Eh]
	 Opposite-Spin Energy      =      -0.2153439807772670 [Eh]
	 Correlation Energy        =      -0.2837439177848223 [Eh]
	 Total Energy              =     -76.3440816177753163 [Eh]
	 SCS Total Energy          =     -76.3415504559257414 [Eh]
    Molecular point group: c1
  Basis Set: AUG-CC-PVQZ
    Blend: AUG-CC-PVQZ
  Basis Set: (AUG-CC-PVQZ AUX)
    Blend: AUG-CC-PVQZ-JKFIT
  @DF-RHF Final Energy:   -76.06571597603948
    Total Energy =                        -76.0657159760394990
  Basis Set: (AUG-CC-PVQZ AUX)
  @DF-RHF Final Energy:   -76.06045083614055
    Total Energy =                        -76.0604508361405465
  @DF-RHF Final Energy:   -76.06576546299341
    Total Energy =                        -76.0657654629933973
  @DF-RHF Final Energy: -2612.09302205686572
    Total Energy =                      -2612.0930220568661753
  @DF-RHF Final Energy: -2612.09811429596857
    Total Energy =                      -2612.0981142959681165
  @DF-RHF Final Energy: -2612.09293864020083
    Total Energy =                      -2612.0929386402012824
  @DF-RHF Final Energy: -2612.09809583613560
    Total Energy =                      -2612.0980958361351441
  Multiplicity = 1
  @DF-RHF Final Energy: -2688.08110628123814
    Total Energy =                      -2688.0811062812381351
	 Singles Energy            =      -0.0000000000000000 [Eh]
	 Same-Spin Energy          =      -0.2074369586897109 [Eh]
	 Opposite-Spin Energy      =      -0.5954873657255889 [Eh]
	 Correlation Energy        =      -0.8029243244152998 [Eh]
	 Total Energy              =   -2688.8840306056536065 [Eh]
	 SCS Total Energy          =   -2688.8648367730052087 [Eh]
    Molecular point group: c1

    Geometry (in Angstrom), charge = 0, multiplicity = 1:

       Center              X                  Y                   Z               Mass
    ------------   -----------------  -----------------  -----------------  -----------------
         BR          -0.301745391387     0.432320876316    -0.171901378922    78.918337600000
         C           -0.571130391387    -1.380797123684     0.435192621078    12.000000000000
         H            0.389822608613    -1.769801123684     0.747565621078     1.007825032230
         H           -1.272087391387    -1.351051123684     1.259710621078     1.007825032230
         H           -0.973893391387    -1.949218123684    -0.393460378922     1.007825032230
         O            1.780763608613    -0.751305123684     0.379158621078    15.994914619570
         H            2.674986608613    -0.468136123684     0.578246621078     1.007825032230
         H            1.347864608613     0.049735876316     0.069490621078     1.007825032230

  Charge       = 0
  Multiplicity = 1
  Basis Set: AUG-CC-PVQZ
    Blend: AUG-CC-PVQZ
  Basis Set: (AUG-CC-PVQZ AUX)
    Blend: AUG-CC-PVQZ-JKFIT

    Orbital Energies [Eh]
    ---------------------

    Doubly Occupied:

       1A   -490.015920     2A    -65.157753     3A    -58.512913
       4A    -58.511696     5A    -58.511674     6A    -20.532313
       7A    -11.266791     8A     -9.832537     9A     -7.443477
      10A     -7.438503    11A     -7.437548    12A     -3.186991
      13A     -3.184076    14A     -3.183532    15A     -3.176543
      16A     -3.176324    17A     -1.352670    18A     -1.070926
      19A     -0.903413    20A     -0.734160    21A     -0.636319
      22A     -0.604435    23A     -0.538928    24A     -0.509495
      25A     -0.494109    26A     -0.407910    27A     -0.394480

  @DF-RHF Final Energy: -2688.09172545846195

   => Energetics <=

    Nuclear Repulsion Energy =            194.4666833997041522
    One-Electron Energy =               -4128.6859474449202025
    Two-Electron Energy =                1246.1275385867536443
    Total Energy =                      -2688.0917254584619513

  Dipole Moment: [D]
     X:     0.3754      Y:    -0.4208      Z:     0.5732     Total:     0.8040

  Basis Set: (AUG-CC-PVQZ AUX)
    Blend: AUG-CC-PVQZ-RI
	 Reference Energy          =   -2688.0917254584619513 [Eh]
	 Singles Energy            =      -0.0000000000000000 [Eh]
	 Same-Spin Energy          =      -0.2463434058926494 [Eh]
	 Opposite-Spin Energy      =      -0.7133455245717792 [Eh]
	 Correlation Energy        =      -0.9596889304644286 [Eh]
	 Total Energy              =   -2689.0514143889263323 [Eh]

	 ================> DF-SCS-MP2 Energies <==================
	-----------------------------------------------------------
	 SCS Same-Spin Scale       =       0.3333333333333333 [-]
	 SCS Opposite-Spin Scale   =       1.2000000000000000 [-]
	 SCS Same-Spin Energy      =      -0.0821144686308831 [Eh]
	 SCS Opposite-Spin Energy  =      -0.8560146294861350 [Eh]
	 SCS Correlation Energy    =      -0.9381290981170182 [Eh]
	 SCS Total Energy          =   -2689.0298545565788118 [Eh]
	-----------------------------------------------------------

*** Psi4 exiting successfully. Buy a developer a beer!
