                               Psi4 1.4a2.dev224

  ==> Input File <==

--------------------------------------------------------------------------
#Generated by lconvert.py for cbs job

memory 20 GB

molecule  {
0 1
 Br      -0.469370    1.468740   -0.609270
  C      -0.738760   -0.344380   -0.002180
  H       0.222200   -0.733380    0.310190
  H      -1.439710   -0.314630    0.822340
  H      -1.141520   -0.912800   -0.830830
--
0 1
  O       3.616580   -0.483680    0.356400
  H       4.510810   -0.200510    0.555490
  H       3.183690    0.317360    0.046740
units angstrom
no_reorient
symmetry c1
}

set {
scf_type DF
mp2_type DF
e_convergence 7
reference rhf
}

energy('mp2/aug-cc-pv[tq]z', bsse_type='cp')
--------------------------------------------------------------------------

    Molecular point group: c1
  Charge       = 0
  Multiplicity = 1
  Basis Set: AUG-CC-PVTZ
    Blend: AUG-CC-PVTZ
  Basis Set: (AUG-CC-PVTZ AUX)
    Blend: AUG-CC-PVTZ-JKFIT
  @DF-RHF Final Energy:   -76.06033771242957
    Total Energy =                        -76.0603377124295719
  Basis Set: (AUG-CC-PVTZ AUX)
    Blend: AUG-CC-PVTZ-RI
	 Reference Energy          =     -76.0603377124295719 [Eh]
	 Singles Energy            =      -0.0000000000000000 [Eh]
	 Same-Spin Energy          =      -0.0683999438968260 [Eh]
	 Opposite-Spin Energy      =      -0.2153439979494001 [Eh]
	 Correlation Energy        =      -0.2837439418462261 [Eh]
	 Total Energy              =     -76.3440816542757972 [Eh]
	 SCS Total Energy          =     -76.3415504912677960 [Eh]
    Molecular point group: c1
  Basis Set: AUG-CC-PVQZ
    Blend: AUG-CC-PVQZ
  Basis Set: (AUG-CC-PVQZ AUX)
    Blend: AUG-CC-PVQZ-JKFIT
  @DF-RHF Final Energy:   -76.06571598927449
    Total Energy =                        -76.0657159892744943
  Basis Set: (AUG-CC-PVQZ AUX)
  @DF-RHF Final Energy:   -76.06035018112931
    Total Energy =                        -76.0603501811293086
  @DF-RHF Final Energy:   -76.06572279796003
    Total Energy =                        -76.0657227979600350
  @DF-RHF Final Energy: -2612.09295202334215
    Total Energy =                      -2612.0929520233421499
  @DF-RHF Final Energy: -2612.09809933611314
    Total Energy =                      -2612.0980993361131368
  @DF-RHF Final Energy: -2612.09293867149472
    Total Energy =                      -2612.0929386714947213
  @DF-RHF Final Energy: -2612.09809586702431
    Total Energy =                      -2612.0980958670243126
  Multiplicity = 1
  @DF-RHF Final Energy: -2688.15512665072993
    Total Energy =                      -2688.1551266507294713
	 Singles Energy            =      -0.0000000000000000 [Eh]
	 Same-Spin Energy          =      -0.1956104141999613 [Eh]
	 Opposite-Spin Energy      =      -0.5803407158441366 [Eh]
	 Correlation Energy        =      -0.7759511300440979 [Eh]
	 Total Energy              =   -2688.9310777807741033 [Eh]
	 SCS Total Energy          =   -2688.9167389811427711 [Eh]
    Molecular point group: c1

    Geometry (in Angstrom), charge = 0, multiplicity = 1:

       Center              X                  Y                   Z               Mass
    ------------   -----------------  -----------------  -----------------  -----------------
         BR          -0.624052632253     0.556002350227    -0.238602170798    78.918337600000
         C           -0.893442632253    -1.257117649773     0.368487829202    12.000000000000
         H            0.067517367747    -1.646117649773     0.680857829202     1.007825032230
         H           -1.594392632253    -1.227367649773     1.193007829202     1.007825032230
         H           -1.296202632253    -1.825537649773    -0.460162170798     1.007825032230
         O            3.461897367747    -1.396417649773     0.727067829202    15.994914619570
         H            4.356127367747    -1.113247649773     0.926157829202     1.007825032230
         H            3.029007367747    -0.595377649773     0.417407829202     1.007825032230

  Charge       = 0
  Multiplicity = 1
  Basis Set: AUG-CC-PVQZ
    Blend: AUG-CC-PVQZ
  Basis Set: (AUG-CC-PVQZ AUX)
    Blend: AUG-CC-PVQZ-JKFIT

    Orbital Energies [Eh]
    ---------------------

    Doubly Occupied:

       1A   -490.013891     2A    -65.154346     3A    -58.509736
       4A    -58.508372     5A    -58.508364     6A    -20.566121
       7A    -11.285132     8A     -9.827627     9A     -7.439043
      10A     -7.432714    11A     -7.432669    12A     -3.182571
      13A     -3.179251    14A     -3.179190    15A     -3.170994
      16A     -3.170993    17A     -1.352505    18A     -1.063948
      19A     -0.896908    20A     -0.715865    21A     -0.612815
      22A     -0.612237    23A     -0.586936    24A     -0.511378
      25A     -0.507286    26A     -0.403973    27A     -0.403291

  @DF-RHF Final Energy: -2688.16564002569658

   => Energetics <=

    Nuclear Repulsion Energy =            149.8200133774624021
    One-Electron Energy =               -4039.5149857459200575
    Two-Electron Energy =                1201.5293323427608811
    Total Energy =                      -2688.1656400256965753

  Dipole Moment: [D]
     X:     0.4251      Y:    -0.2691      Z:     0.5068     Total:     0.7141

  Basis Set: (AUG-CC-PVQZ AUX)
    Blend: AUG-CC-PVQZ-RI
	 Reference Energy          =   -2688.1656400256965753 [Eh]
	 Singles Energy            =      -0.0000000000000000 [Eh]
	 Same-Spin Energy          =      -0.2343252792839636 [Eh]
	 Opposite-Spin Energy      =      -0.6985066120880733 [Eh]
	 Correlation Energy        =      -0.9328318913720368 [Eh]
	 Total Energy              =   -2689.0984719170687640 [Eh]

	 ================> DF-SCS-MP2 Energies <==================
	-----------------------------------------------------------
	 SCS Same-Spin Scale       =       0.3333333333333333 [-]
	 SCS Opposite-Spin Scale   =       1.2000000000000000 [-]
	 SCS Same-Spin Energy      =      -0.0781084264279878 [Eh]
	 SCS Opposite-Spin Energy  =      -0.8382079345056880 [Eh]
	 SCS Correlation Energy    =      -0.9163163609336759 [Eh]
	 SCS Total Energy          =   -2689.0819563866302815 [Eh]
	-----------------------------------------------------------

*** Psi4 exiting successfully. Buy a developer a beer!
