                               Psi4 1.4a2.dev224

  ==> Input File <==

--------------------------------------------------------------------------
#Generated by lconvert.py for cbs job

memory 40 GB

molecule  {
0 1
 Br       -0.4693700     1.4687390    -0.6092730
  C       -0.7387550    -0.3443790    -0.0021790
  H        0.2221980    -0.7333830     0.3101940
  H       -1.4397120    -0.3146330     0.8223390
  H       -1.1415180    -0.9128000    -0.8308320
--
0 1
  O        2.7784690    -0.1620670     0.1829540
  H        3.6726920     0.1211020     0.3820420
  H        2.3455700     0.6389740    -0.1267140
units angstrom
no_reorient
symmetry c1
}

set {
scf_type DF
mp2_type DF
e_convergence 7
reference rhf
}

energy('mp2/aug-cc-pv[tq]z', bsse_type='cp')
--------------------------------------------------------------------------

    Molecular point group: c1
  Charge       = 0
  Multiplicity = 1
  Basis Set: AUG-CC-PVTZ
    Blend: AUG-CC-PVTZ
  Basis Set: (AUG-CC-PVTZ AUX)
    Blend: AUG-CC-PVTZ-JKFIT
  @DF-RHF Final Energy:   -76.06033770000205
    Total Energy =                        -76.0603377000020515
  Basis Set: (AUG-CC-PVTZ AUX)
    Blend: AUG-CC-PVTZ-RI
	 Reference Energy          =     -76.0603377000020515 [Eh]
	 Singles Energy            =      -0.0000000000000000 [Eh]
	 Same-Spin Energy          =      -0.0683999370075420 [Eh]
	 Opposite-Spin Energy      =      -0.2153439807771779 [Eh]
	 Correlation Energy        =      -0.2837439177847199 [Eh]
	 Total Energy              =     -76.3440816177867703 [Eh]
	 SCS Total Energy          =     -76.3415504559371811 [Eh]
    Molecular point group: c1
  Basis Set: AUG-CC-PVQZ
    Blend: AUG-CC-PVQZ
  Basis Set: (AUG-CC-PVQZ AUX)
    Blend: AUG-CC-PVQZ-JKFIT
  @DF-RHF Final Energy:   -76.06571597604082
    Total Energy =                        -76.0657159760408206
  Basis Set: (AUG-CC-PVQZ AUX)
  @DF-RHF Final Energy:   -76.06038030884764
    Total Energy =                        -76.0603803088476411
  @DF-RHF Final Energy:   -76.06573368520318
    Total Energy =                        -76.0657336852031847
  @DF-RHF Final Energy: -2612.09296715185610
    Total Energy =                      -2612.0929671518561008
  @DF-RHF Final Energy: -2612.09810261511529
    Total Energy =                      -2612.0981026151148399
  @DF-RHF Final Energy: -2612.09293864070605
    Total Energy =                      -2612.0929386407060520
  @DF-RHF Final Energy: -2612.09809583567994
    Total Energy =                      -2612.0980958356799420
  Multiplicity = 1
  @DF-RHF Final Energy: -2688.15640740120398
    Total Energy =                      -2688.1564074012039782
	 Singles Energy            =      -0.0000000000000000 [Eh]
	 Same-Spin Energy          =      -0.1968543738819349 [Eh]
	 Opposite-Spin Energy      =      -0.5819753912690255 [Eh]
	 Correlation Energy        =      -0.7788297651509605 [Eh]
	 Total Energy              =   -2688.9352371663549093 [Eh]
	 SCS Total Energy          =   -2688.9203959953542835 [Eh]
    Molecular point group: c1

    Geometry (in Angstrom), charge = 0, multiplicity = 1:

       Center              X                  Y                   Z               Mass
    ------------   -----------------  -----------------  -----------------  -----------------
         BR          -0.489220207325     0.504261861437    -0.210699606836    78.918337600000
         C           -0.758605207325    -1.308856138563     0.396394393164    12.000000000000
         H            0.202347792675    -1.697860138563     0.708767393164     1.007825032230
         H           -1.459562207325    -1.279110138563     1.220912393164     1.007825032230
         H           -1.161368207325    -1.877277138563    -0.432258606836     1.007825032230
         O            2.758618792675    -1.126544138563     0.581527393164    15.994914619570
         H            3.652841792675    -0.843375138563     0.780615393164     1.007825032230
         H            2.325719792675    -0.325503138563     0.271859393164     1.007825032230

  Charge       = 0
  Multiplicity = 1
  Basis Set: AUG-CC-PVQZ
    Blend: AUG-CC-PVQZ
  Basis Set: (AUG-CC-PVQZ AUX)
    Blend: AUG-CC-PVQZ-JKFIT

    Orbital Energies [Eh]
    ---------------------

    Doubly Occupied:

       1A   -490.015346     2A    -65.155838     3A    -58.511210
       4A    -58.509879     5A    -58.509865     6A    -20.564046
       7A    -11.282550     8A     -9.829151     9A     -7.440499
      10A     -7.434331    11A     -7.434220    12A     -3.183994
      13A     -3.180774    14A     -3.180633    15A     -3.172636
      16A     -3.172633    17A     -1.351373    18A     -1.064186
      19A     -0.896372    20A     -0.715896    21A     -0.610830
      22A     -0.610499    23A     -0.585418    24A     -0.510224
      25A     -0.507351    26A     -0.406380    27A     -0.404619

  @DF-RHF Final Energy: -2688.16689706126908

   => Energetics <=

    Nuclear Repulsion Energy =            162.3365922825544487
    One-Electron Energy =               -4064.5254747454750941
    Two-Electron Energy =                1214.0219854016513636
    Total Energy =                      -2688.1668970612690828

  Dipole Moment: [D]
     X:     0.3830      Y:    -0.3277      Z:     0.5256     Total:     0.7283

  Basis Set: (AUG-CC-PVQZ AUX)
    Blend: AUG-CC-PVQZ-RI
	 Reference Energy          =   -2688.1668970612690828 [Eh]
	 Singles Energy            =      -0.0000000000000000 [Eh]
	 Same-Spin Energy          =      -0.2355528011814608 [Eh]
	 Opposite-Spin Energy      =      -0.6999587600304962 [Eh]
	 Correlation Energy        =      -0.9355115612119570 [Eh]
	 Total Energy              =   -2689.1024086224811072 [Eh]

	 ================> DF-SCS-MP2 Energies <==================
	-----------------------------------------------------------
	 SCS Same-Spin Scale       =       0.3333333333333333 [-]
	 SCS Opposite-Spin Scale   =       1.2000000000000000 [-]
	 SCS Same-Spin Energy      =      -0.0785176003938203 [Eh]
	 SCS Opposite-Spin Energy  =      -0.8399505120365954 [Eh]
	 SCS Correlation Energy    =      -0.9184681124304157 [Eh]
	 SCS Total Energy          =   -2689.0853651736993015 [Eh]
	-----------------------------------------------------------

*** Psi4 exiting successfully. Buy a developer a beer!
