                               Psi4 1.4a2.dev224

  ==> Input File <==

--------------------------------------------------------------------------
#Generated by lconvert.py for cbs job

memory 40 GB

molecule  {
0 1
 Br       -0.4693700     1.4687390    -0.6092730
  C       -0.7387550    -0.3443790    -0.0021790
  H        0.2221980    -0.7333830     0.3101940
  H       -1.4397120    -0.3146330     0.8223390
  H       -1.1415180    -0.9128000    -0.8308320
--
0 1
  O        2.4241390    -0.0260970     0.1096240
  H        3.3183620     0.2570720     0.3087120
  H        1.9912400     0.7749440    -0.2000440
units angstrom
no_reorient
symmetry c1
}

set {
scf_type DF
mp2_type DF
e_convergence 7
reference rhf
}

energy('mp2/aug-cc-pv[tq]z', bsse_type='cp')
--------------------------------------------------------------------------

    Molecular point group: c1
  Charge       = 0
  Multiplicity = 1
  Basis Set: AUG-CC-PVTZ
    Blend: AUG-CC-PVTZ
  Basis Set: (AUG-CC-PVTZ AUX)
    Blend: AUG-CC-PVTZ-JKFIT
  @DF-RHF Final Energy:   -76.06033769999911
    Total Energy =                        -76.0603376999991099
  Basis Set: (AUG-CC-PVTZ AUX)
    Blend: AUG-CC-PVTZ-RI
	 Reference Energy          =     -76.0603376999991099 [Eh]
	 Singles Energy            =      -0.0000000000000000 [Eh]
	 Same-Spin Energy          =      -0.0683999370075385 [Eh]
	 Opposite-Spin Energy      =      -0.2153439807772253 [Eh]
	 Correlation Energy        =      -0.2837439177847638 [Eh]
	 Total Energy              =     -76.3440816177838713 [Eh]
	 SCS Total Energy          =     -76.3415504559342963 [Eh]
    Molecular point group: c1
  Basis Set: AUG-CC-PVQZ
    Blend: AUG-CC-PVQZ
  Basis Set: (AUG-CC-PVQZ AUX)
    Blend: AUG-CC-PVQZ-JKFIT
  @DF-RHF Final Energy:   -76.06571597604727
    Total Energy =                        -76.0657159760472723
  Basis Set: (AUG-CC-PVQZ AUX)
  @DF-RHF Final Energy:   -76.06039555058747
    Total Energy =                        -76.0603955505874580
  @DF-RHF Final Energy:   -76.06574321071272
    Total Energy =                        -76.0657432107127249
  @DF-RHF Final Energy: -2612.09297659150525
    Total Energy =                      -2612.0929765915052485
  @DF-RHF Final Energy: -2612.09810458086486
    Total Energy =                      -2612.0981045808648560
  @DF-RHF Final Energy: -2612.09293864017718
    Total Energy =                      -2612.0929386401767260
  @DF-RHF Final Energy: -2612.09809583647757
    Total Energy =                      -2612.0980958364775688
  Multiplicity = 1
  @DF-RHF Final Energy: -2688.15476711066913
    Total Energy =                      -2688.1547671106691269
	 Singles Energy            =      -0.0000000000000000 [Eh]
	 Same-Spin Energy          =      -0.1983079900725659 [Eh]
	 Opposite-Spin Energy      =      -0.5838616249900880 [Eh]
	 Correlation Energy        =      -0.7821696150626538 [Eh]
	 Total Energy              =   -2688.9369367257318117 [Eh]
	 SCS Total Energy          =   -2688.9215037240146557 [Eh]
    Molecular point group: c1

    Geometry (in Angstrom), charge = 0, multiplicity = 1:

       Center              X                  Y                   Z               Mass
    ------------   -----------------  -----------------  -----------------  -----------------
         BR          -0.432216653369     0.482387413236    -0.198902495072    78.918337600000
         C           -0.701601653369    -1.330730586764     0.408191504928    12.000000000000
         H            0.259351346631    -1.719734586764     0.720564504928     1.007825032230
         H           -1.402558653369    -1.300984586764     1.232709504928     1.007825032230
         H           -1.104364653369    -1.899151586764    -0.420461495072     1.007825032230
         O            2.461292346631    -1.012448586764     0.519994504928    15.994914619570
         H            3.355515346631    -0.729279586764     0.719082504928     1.007825032230
         H            2.028393346631    -0.211407586764     0.210326504928     1.007825032230

  Charge       = 0
  Multiplicity = 1
  Basis Set: AUG-CC-PVQZ
    Blend: AUG-CC-PVQZ
  Basis Set: (AUG-CC-PVQZ AUX)
    Blend: AUG-CC-PVQZ-JKFIT

    Orbital Energies [Eh]
    ---------------------

    Doubly Occupied:

       1A   -490.015997     2A    -65.156567     3A    -58.511923
       4A    -58.510611     5A    -58.510598     6A    -20.560900
       7A    -11.279916     8A     -9.829953     9A     -7.441254
      10A     -7.435208    11A     -7.435050    12A     -3.184725
      13A     -3.181564    14A     -3.181386    15A     -3.173523
      16A     -3.173515    17A     -1.350118    18A     -1.064422
      19A     -0.895985    20A     -0.717041    21A     -0.611151
      22A     -0.609056    23A     -0.580811    24A     -0.508465
      25A     -0.507224    26A     -0.407833    27A     -0.405466

  @DF-RHF Final Energy: -2688.16524916400795

   => Energetics <=

    Nuclear Repulsion Energy =            169.6257301897757372
    One-Electron Energy =               -4079.1014326745867038
    Two-Electron Energy =                1221.3104533208033899
    Total Energy =                      -2688.1652491640074913

  Dipole Moment: [D]
     X:     0.3643      Y:    -0.3584      Z:     0.5379     Total:     0.7420

  Basis Set: (AUG-CC-PVQZ AUX)
    Blend: AUG-CC-PVQZ-RI
	 Reference Energy          =   -2688.1652491640079461 [Eh]
	 Singles Energy            =      -0.0000000000000000 [Eh]
	 Same-Spin Energy          =      -0.2368939370564500 [Eh]
	 Opposite-Spin Energy      =      -0.7015257730707849 [Eh]
	 Correlation Energy        =      -0.9384197101272349 [Eh]
	 Total Energy              =   -2689.1036688741351099 [Eh]

	 ================> DF-SCS-MP2 Energies <==================
	-----------------------------------------------------------
	 SCS Same-Spin Scale       =       0.3333333333333333 [-]
	 SCS Opposite-Spin Scale   =       1.2000000000000000 [-]
	 SCS Same-Spin Energy      =      -0.0789646456854833 [Eh]
	 SCS Opposite-Spin Energy  =      -0.8418309276849418 [Eh]
	 SCS Correlation Energy    =      -0.9207955733704252 [Eh]
	 SCS Total Energy          =   -2689.0860447373784154 [Eh]
	-----------------------------------------------------------

*** Psi4 exiting successfully. Buy a developer a beer!
