                               Psi4 1.4a2.dev224

  ==> Input File <==

--------------------------------------------------------------------------
#Generated by lconvert.py for cbs job

memory 20 GB

molecule  {
0 1
 Br       2.177490   -0.607410    0.000150
  C       1.823120    1.288190    0.000110
  H       0.749230    1.426570    0.000140
  H       2.269760    1.710430   -0.891300
  H       2.269820    1.710470    0.891480
--
0 1
 Br      -5.353920    1.052400    0.000170
  C      -4.999800   -0.843240    0.000130
  H      -5.446630   -1.265440   -0.891210
  H      -5.446430   -1.265440    0.891570
  H      -3.925930   -0.981800    0.000010
units angstrom
no_reorient
symmetry c1
}

set {
scf_type DF
mp2_type DF
e_convergence 7
reference rhf
}

energy('mp2/aug-cc-pv[tq]z', bsse_type='cp')
--------------------------------------------------------------------------

    Molecular point group: c1
  Charge       = 0
  Multiplicity = 1
  Basis Set: AUG-CC-PVTZ
    Blend: AUG-CC-PVTZ
  Basis Set: (AUG-CC-PVTZ AUX)
    Blend: AUG-CC-PVTZ-JKFIT
  @DF-RHF Final Energy: -2612.09292490604412
    Total Energy =                      -2612.0929249060441180
  Basis Set: (AUG-CC-PVTZ AUX)
    Blend: AUG-CC-PVTZ-RI
	 Reference Energy          =   -2612.0929249060441180 [Eh]
	 Singles Energy            =      -0.0000000000000000 [Eh]
	 Same-Spin Energy          =      -0.1267786735079423 [Eh]
	 Opposite-Spin Energy      =      -0.3643839833439575 [Eh]
	 Correlation Energy        =      -0.4911626568518998 [Eh]
	 Total Energy              =   -2612.5840875628960021 [Eh]
	 SCS Total Energy          =   -2612.5724452438930712 [Eh]
    Molecular point group: c1
  Basis Set: AUG-CC-PVQZ
    Blend: AUG-CC-PVQZ
  Basis Set: (AUG-CC-PVQZ AUX)
    Blend: AUG-CC-PVQZ-JKFIT
  @DF-RHF Final Energy: -2612.09808632528620
    Total Energy =                      -2612.0980863252857489
  Basis Set: (AUG-CC-PVQZ AUX)
  @DF-RHF Final Energy: -2612.09292765197051
    Total Energy =                      -2612.0929276519700579
  @DF-RHF Final Energy: -2612.09808717318674
    Total Energy =                      -2612.0980871731871957
  @DF-RHF Final Energy: -2612.09292775599033
    Total Energy =                      -2612.0929277559907860
  @DF-RHF Final Energy: -2612.09808726895108
    Total Energy =                      -2612.0980872689506214
  @DF-RHF Final Energy: -2612.09292500993706
    Total Energy =                      -2612.0929250099370620
  @DF-RHF Final Energy: -2612.09808642106327
    Total Energy =                      -2612.0980864210632717
  Multiplicity = 1
  @DF-RHF Final Energy: -5224.18620941624977
    Total Energy =                      -5224.1862094162497669
	 Singles Energy            =      -0.0000000000000000 [Eh]
	 Same-Spin Energy          =      -0.2536371940262979 [Eh]
	 Opposite-Spin Energy      =      -0.7288687715409190 [Eh]
	 Correlation Energy        =      -0.9825059655672169 [Eh]
	 Total Energy              =   -5225.1687153818165825 [Eh]
	 SCS Total Energy          =   -5225.1453976734410389 [Eh]
    Molecular point group: c1

    Geometry (in Angstrom), charge = 0, multiplicity = 1:

       Center              X                  Y                   Z               Mass
    ------------   -----------------  -----------------  -----------------  -----------------
         BR           3.765725741373    -0.829901479691    -0.000003442149    78.918337600000
         C            3.411355741373     1.065698520309    -0.000043442149    12.000000000000
         H            2.337465741373     1.204078520309    -0.000013442149     1.007825032230
         H            3.857995741373     1.487938520309    -0.891453442149     1.007825032230
         H            3.858055741373     1.487978520309     0.891326557851     1.007825032230
         BR          -3.765684258627     0.829908520309     0.000016557851    78.918337600000
         C           -3.411564258627    -1.065731479691    -0.000023442149    12.000000000000
         H           -3.858394258627    -1.487931479691    -0.891363442149     1.007825032230
         H           -3.858194258627    -1.487931479691     0.891416557851     1.007825032230
         H           -2.337694258627    -1.204291479691    -0.000143442149     1.007825032230

  Charge       = 0
  Multiplicity = 1
  Basis Set: AUG-CC-PVQZ
    Blend: AUG-CC-PVQZ
  Basis Set: (AUG-CC-PVQZ AUX)
    Blend: AUG-CC-PVQZ-JKFIT

    Orbital Energies [Eh]
    ---------------------

    Doubly Occupied:

       1A   -490.013185     2A   -490.013184     3A    -65.153634
       4A    -65.153632     5A    -58.509036     6A    -58.509035
       7A    -58.507645     8A    -58.507645     9A    -58.507644
      10A    -58.507643    11A    -11.286334    12A    -11.286333
      13A     -9.826919    14A     -9.826918    15A     -7.438391
      16A     -7.438389    17A     -7.431945    18A     -7.431943
      19A     -7.431939    20A     -7.431938    21A     -3.181950
      22A     -3.181948    23A     -3.178550    24A     -3.178548
      25A     -3.178543    26A     -3.178541    27A     -3.170196
      28A     -3.170196    29A     -3.170194    30A     -3.170194
      31A     -1.064408    32A     -1.064405    33A     -0.897455
      34A     -0.897452    35A     -0.613852    36A     -0.613769
      37A     -0.613291    38A     -0.613290    39A     -0.508266
      40A     -0.508254    41A     -0.402775    42A     -0.402688
      43A     -0.402610    44A     -0.402608

  @DF-RHF Final Energy: -5224.19652554776258

   => Energetics <=

    Nuclear Repulsion Energy =            316.0141794569985336
    One-Electron Energy =               -7902.4668037397141234
    Two-Electron Energy =                2362.2560987349534116
    Total Energy =                      -5224.1965255477625760

  Dipole Moment: [D]
     X:    -0.0003      Y:    -0.0000      Z:    -0.0001     Total:     0.0003

  Basis Set: (AUG-CC-PVQZ AUX)
    Blend: AUG-CC-PVQZ-RI
	 Reference Energy          =   -5224.1965255477625760 [Eh]
	 Singles Energy            =      -0.0000000000000000 [Eh]
	 Same-Spin Energy          =      -0.3225202741249862 [Eh]
	 Opposite-Spin Energy      =      -0.9077125121278493 [Eh]
	 Correlation Energy        =      -1.2302327862528355 [Eh]
	 Total Energy              =   -5225.4267583340151759 [Eh]

	 ================> DF-SCS-MP2 Energies <==================
	-----------------------------------------------------------
	 SCS Same-Spin Scale       =       0.3333333333333333 [-]
	 SCS Opposite-Spin Scale   =       1.2000000000000000 [-]
	 SCS Same-Spin Energy      =      -0.1075067580416621 [Eh]
	 SCS Opposite-Spin Energy  =      -1.0892550145534192 [Eh]
	 SCS Correlation Energy    =      -1.1967617725950812 [Eh]
	 SCS Total Energy          =   -5225.3932873203575582 [Eh]
	-----------------------------------------------------------

*** Psi4 exiting successfully. Buy a developer a beer!
