                               Psi4 1.4a2.dev224

  ==> Input File <==

--------------------------------------------------------------------------
#Generated by lconvert.py for cbs job

memory 40 GB

molecule  {
0 1
 Br        2.1774920    -0.6074080     0.0001450
  C        1.8231200     1.2881860     0.0001140
  H        0.7492340     1.4265720     0.0001430
  H        2.2697630     1.7104300    -0.8913010
  H        2.2698170     1.7104690     0.8914830
--
0 1
 Br       -2.0120970     0.5843650     0.0001600
  C       -1.6579790    -1.3112750     0.0001190
  H       -2.1048090    -1.7334750    -0.8912230
  H       -2.1046120    -1.7334770     0.8915590
  H       -0.5841150    -1.4498290     0.0000020
units angstrom
no_reorient
symmetry c1
}

set {
scf_type DF
mp2_type DF
e_convergence 7
reference rhf
}

energy('mp2/aug-cc-pv[tq]z', bsse_type='cp')
--------------------------------------------------------------------------

    Molecular point group: c1
  Charge       = 0
  Multiplicity = 1
  Basis Set: AUG-CC-PVTZ
    Blend: AUG-CC-PVTZ
  Basis Set: (AUG-CC-PVTZ AUX)
    Blend: AUG-CC-PVTZ-JKFIT
  @DF-RHF Final Energy: -2612.09292492952773
    Total Energy =                      -2612.0929249295277259
  Basis Set: (AUG-CC-PVTZ AUX)
    Blend: AUG-CC-PVTZ-RI
	 Reference Energy          =   -2612.0929249295277259 [Eh]
	 Singles Energy            =      -0.0000000000000000 [Eh]
	 Same-Spin Energy          =      -0.1267786797298746 [Eh]
	 Opposite-Spin Energy      =      -0.3643839680304142 [Eh]
	 Correlation Energy        =      -0.4911626477602888 [Eh]
	 Total Energy              =   -2612.5840875772878462 [Eh]
	 SCS Total Energy          =   -2612.5724452510739866 [Eh]
    Molecular point group: c1
  Basis Set: AUG-CC-PVQZ
    Blend: AUG-CC-PVQZ
  Basis Set: (AUG-CC-PVQZ AUX)
    Blend: AUG-CC-PVQZ-JKFIT
  @DF-RHF Final Energy: -2612.09808635080390
    Total Energy =                      -2612.0980863508038965
  Basis Set: (AUG-CC-PVQZ AUX)
  @DF-RHF Final Energy: -2612.09296598652327
    Total Energy =                      -2612.0929659865232679
  @DF-RHF Final Energy: -2612.09809537924912
    Total Energy =                      -2612.0980953792486616
  @DF-RHF Final Energy: -2612.09296599049821
    Total Energy =                      -2612.0929659904977598
  @DF-RHF Final Energy: -2612.09809538241325
    Total Energy =                      -2612.0980953824127937
  @DF-RHF Final Energy: -2612.09292493655812
    Total Energy =                      -2612.0929249365576652
  @DF-RHF Final Energy: -2612.09808635429999
    Total Energy =                      -2612.0980863542999941
  Multiplicity = 1
  @DF-RHF Final Energy: -5224.18550827809759
    Total Energy =                      -5224.1855082780984958
	 Singles Energy            =      -0.0000000000000000 [Eh]
	 Same-Spin Energy          =      -0.2576292046421549 [Eh]
	 Opposite-Spin Energy      =      -0.7347251509133319 [Eh]
	 Correlation Energy        =      -0.9923543555554868 [Eh]
	 Total Energy              =   -5225.1778626336526941 [Eh]
	 SCS Total Energy          =   -5225.1530548607406672 [Eh]
    Molecular point group: c1

    Geometry (in Angstrom), charge = 0, multiplicity = 1:

       Center              X                  Y                   Z               Mass
    ------------   -----------------  -----------------  -----------------  -----------------
         BR           2.094815588039    -0.595882591110    -0.000001549658    78.918337600000
         C            1.740443588039     1.299711408890    -0.000032549658    12.000000000000
         H            0.666557588039     1.438097408890    -0.000003549658     1.007825032230
         H            2.187086588039     1.721955408890    -0.891447549658     1.007825032230
         H            2.187140588039     1.721994408890     0.891336450342     1.007825032230
         BR          -2.094773411961     0.595890408890     0.000013450342    78.918337600000
         C           -1.740655411961    -1.299749591110    -0.000027549658    12.000000000000
         H           -2.187485411961    -1.721949591110    -0.891369549658     1.007825032230
         H           -2.187288411961    -1.721951591110     0.891412450342     1.007825032230
         H           -0.666791411961    -1.438303591110    -0.000144549658     1.007825032230

  Charge       = 0
  Multiplicity = 1
  Basis Set: AUG-CC-PVQZ
    Blend: AUG-CC-PVQZ
  Basis Set: (AUG-CC-PVQZ AUX)
    Blend: AUG-CC-PVQZ-JKFIT

    Orbital Energies [Eh]
    ---------------------

    Doubly Occupied:

       1A   -490.013886     2A   -490.013883     3A    -65.154426
       4A    -65.154423     5A    -58.509800     6A    -58.509797
       7A    -58.508458     8A    -58.508455     9A    -58.508451
      10A    -58.508448    11A    -11.281439    12A    -11.281434
      13A     -9.827791    14A     -9.827787    15A     -7.439176
      16A     -7.439172    17A     -7.432918    18A     -7.432914
      19A     -7.432901    20A     -7.432897    21A     -3.182681
      22A     -3.182677    23A     -3.179368    24A     -3.179364
      25A     -3.179360    26A     -3.179356    27A     -3.171240
      28A     -3.171236    29A     -3.171236    30A     -3.171232
      31A     -1.065962    32A     -1.061478    33A     -0.898721
      34A     -0.893106    35A     -0.618843    36A     -0.610447
      37A     -0.609488    38A     -0.602069    39A     -0.509857
      40A     -0.505194    41A     -0.411570    42A     -0.404238
      43A     -0.403380    44A     -0.396849

  @DF-RHF Final Energy: -5224.19576565954321

   => Energetics <=

    Nuclear Repulsion Energy =            424.0681995716369670
    One-Electron Energy =               -8118.5731269494190201
    Two-Electron Energy =                2470.3091617182390110
    Total Energy =                      -5224.1957656595432127

  Dipole Moment: [D]
     X:    -0.0004      Y:    -0.0001      Z:    -0.0001     Total:     0.0004

  Basis Set: (AUG-CC-PVQZ AUX)
    Blend: AUG-CC-PVQZ-RI
	 Reference Energy          =   -5224.1957656595432127 [Eh]
	 Singles Energy            =      -0.0000000000000000 [Eh]
	 Same-Spin Energy          =      -0.3262116437542225 [Eh]
	 Opposite-Spin Energy      =      -0.9125631662744539 [Eh]
	 Correlation Energy        =      -1.2387748100286764 [Eh]
	 Total Energy              =   -5225.4345404695723118 [Eh]

	 ================> DF-SCS-MP2 Energies <==================
	-----------------------------------------------------------
	 SCS Same-Spin Scale       =       0.3333333333333333 [-]
	 SCS Opposite-Spin Scale   =       1.2000000000000000 [-]
	 SCS Same-Spin Energy      =      -0.1087372145847408 [Eh]
	 SCS Opposite-Spin Energy  =      -1.0950757995293445 [Eh]
	 SCS Correlation Energy    =      -1.2038130141140853 [Eh]
	 SCS Total Energy          =   -5225.3995786736577429 [Eh]
	-----------------------------------------------------------

*** Psi4 exiting successfully. Buy a developer a beer!
