                               Psi4 1.4a2.dev224

  ==> Input File <==

--------------------------------------------------------------------------
#Generated by lconvert.py for cbs job

memory 40 GB

molecule  {
0 1
 Br        2.1774920    -0.6074080     0.0001450
  C        1.8231200     1.2881860     0.0001140
  H        0.7492340     1.4265720     0.0001430
  H        2.2697630     1.7104300    -0.8913010
  H        2.2698170     1.7104690     0.8914830
--
0 1
 Br       -2.1771390     0.6074800     0.0001610
  C       -1.8230210    -1.2881600     0.0001200
  H       -2.2698510    -1.7103600    -0.8912220
  H       -2.2696540    -1.7103620     0.8915600
  H       -0.7491570    -1.4267140     0.0000030
units angstrom
no_reorient
symmetry c1
}

set {
scf_type DF
mp2_type DF
e_convergence 7
reference rhf
}

energy('mp2/aug-cc-pv[tq]z', bsse_type='cp')
--------------------------------------------------------------------------

    Molecular point group: c1
  Charge       = 0
  Multiplicity = 1
  Basis Set: AUG-CC-PVTZ
    Blend: AUG-CC-PVTZ
  Basis Set: (AUG-CC-PVTZ AUX)
    Blend: AUG-CC-PVTZ-JKFIT
  @DF-RHF Final Energy: -2612.09292492988425
    Total Energy =                      -2612.0929249298837931
  Basis Set: (AUG-CC-PVTZ AUX)
    Blend: AUG-CC-PVTZ-RI
	 Reference Energy          =   -2612.0929249298842478 [Eh]
	 Singles Energy            =      -0.0000000000000000 [Eh]
	 Same-Spin Energy          =      -0.1267786797296579 [Eh]
	 Opposite-Spin Energy      =      -0.3643839680297334 [Eh]
	 Correlation Energy        =      -0.4911626477593913 [Eh]
	 Total Energy              =   -2612.5840875776434586 [Eh]
	 SCS Total Energy          =   -2612.5724452514295990 [Eh]
    Molecular point group: c1
  Basis Set: AUG-CC-PVQZ
    Blend: AUG-CC-PVQZ
  Basis Set: (AUG-CC-PVQZ AUX)
    Blend: AUG-CC-PVQZ-JKFIT
  @DF-RHF Final Energy: -2612.09808635062018
    Total Energy =                      -2612.0980863506201786
  Basis Set: (AUG-CC-PVQZ AUX)
  @DF-RHF Final Energy: -2612.09296228706717
    Total Energy =                      -2612.0929622870671665
  @DF-RHF Final Energy: -2612.09809446712961
    Total Energy =                      -2612.0980944671300676
  @DF-RHF Final Energy: -2612.09296229088341
    Total Energy =                      -2612.0929622908834062
  @DF-RHF Final Energy: -2612.09809447127918
    Total Energy =                      -2612.0980944712791825
  @DF-RHF Final Energy: -2612.09292493672456
    Total Energy =                      -2612.0929249367245575
  @DF-RHF Final Energy: -2612.09808635454328
    Total Energy =                      -2612.0980863545432840
  Multiplicity = 1
  @DF-RHF Final Energy: -5224.18663954852309
    Total Energy =                      -5224.1866395485230896
	 Singles Energy            =      -0.0000000000000000 [Eh]
	 Same-Spin Energy          =      -0.2568139043464986 [Eh]
	 Opposite-Spin Energy      =      -0.7335506850685383 [Eh]
	 Correlation Energy        =      -0.9903645894150369 [Eh]
	 Total Energy              =   -5225.1770041379377290 [Eh]
	 SCS Total Energy          =   -5225.1525050053878658 [Eh]
    Molecular point group: c1

    Geometry (in Angstrom), charge = 0, multiplicity = 1:

       Center              X                  Y                   Z               Mass
    ------------   -----------------  -----------------  -----------------  -----------------
         BR           2.177336588039    -0.607440091110    -0.000002049658    78.918337600000
         C            1.822964588039     1.288153908890    -0.000033049658    12.000000000000
         H            0.749078588039     1.426539908890    -0.000004049658     1.007825032230
         H            2.269607588039     1.710397908890    -0.891448049658     1.007825032230
         H            2.269661588039     1.710436908890     0.891335950342     1.007825032230
         BR          -2.177294411961     0.607447908890     0.000013950342    78.918337600000
         C           -1.823176411961    -1.288192091110    -0.000027049658    12.000000000000
         H           -2.270006411961    -1.710392091110    -0.891369049658     1.007825032230
         H           -2.269809411961    -1.710394091110     0.891412950342     1.007825032230
         H           -0.749312411961    -1.426746091110    -0.000144049658     1.007825032230

  Charge       = 0
  Multiplicity = 1
  Basis Set: AUG-CC-PVQZ
    Blend: AUG-CC-PVQZ
  Basis Set: (AUG-CC-PVQZ AUX)
    Blend: AUG-CC-PVQZ-JKFIT

    Orbital Energies [Eh]
    ---------------------

    Doubly Occupied:

       1A   -490.014012     2A   -490.014008     3A    -65.154523
       4A    -65.154520     5A    -58.509902     6A    -58.509899
       7A    -58.508552     8A    -58.508549     9A    -58.508549
      10A    -58.508546    11A    -11.282430    12A    -11.282426
      13A     -9.827863    14A     -9.827860    15A     -7.439259
      16A     -7.439256    17A     -7.432978    18A     -7.432974
      19A     -7.432955    20A     -7.432952    21A     -3.182772
      22A     -3.182768    23A     -3.179455    24A     -3.179451
      25A     -3.179432    26A     -3.179429    27A     -3.171289
      28A     -3.171286    29A     -3.171286    30A     -3.171283
      31A     -1.065456    32A     -1.062295    33A     -0.898149
      34A     -0.894171    35A     -0.617373    36A     -0.610911
      37A     -0.610207    38A     -0.603985    39A     -0.509475
      40A     -0.506040    41A     -0.410201    42A     -0.404039
      43A     -0.403407    44A     -0.398376

  @DF-RHF Final Energy: -5224.19690302038634

   => Energetics <=

    Nuclear Repulsion Energy =            414.9943237479467371
    One-Electron Energy =               -8100.4133738721893678
    Two-Electron Energy =                2461.2221471038565141
    Total Energy =                      -5224.1969030203863440

  Dipole Moment: [D]
     X:    -0.0004      Y:    -0.0000      Z:    -0.0001     Total:     0.0004

  Basis Set: (AUG-CC-PVQZ AUX)
    Blend: AUG-CC-PVQZ-RI
	 Reference Energy          =   -5224.1969030203863440 [Eh]
	 Singles Energy            =      -0.0000000000000000 [Eh]
	 Same-Spin Energy          =      -0.3254554161286838 [Eh]
	 Opposite-Spin Energy      =      -0.9115801034133200 [Eh]
	 Correlation Energy        =      -1.2370355195420037 [Eh]
	 Total Energy              =   -5225.4339385399280218 [Eh]

	 ================> DF-SCS-MP2 Energies <==================
	-----------------------------------------------------------
	 SCS Same-Spin Scale       =       0.3333333333333333 [-]
	 SCS Opposite-Spin Scale   =       1.2000000000000000 [-]
	 SCS Same-Spin Energy      =      -0.1084851387095613 [Eh]
	 SCS Opposite-Spin Energy  =      -1.0938961240959839 [Eh]
	 SCS Correlation Energy    =      -1.2023812628055452 [Eh]
	 SCS Total Energy          =   -5225.3992842831921735 [Eh]
	-----------------------------------------------------------

*** Psi4 exiting successfully. Buy a developer a beer!
