                               Psi4 1.4a2.dev224

  ==> Input File <==

--------------------------------------------------------------------------
#Generated by lconvert.py for cbs job

memory 40 GB

molecule  {
0 1
 Br        2.1774920    -0.6074080     0.0001450
  C        1.8231200     1.2881860     0.0001140
  H        0.7492340     1.4265720     0.0001430
  H        2.2697630     1.7104300    -0.8913010
  H        2.2698170     1.7104690     0.8914830
--
0 1
 Br       -1.8451710     0.5609860     0.0001600
  C       -1.4910530    -1.3346540     0.0001190
  H       -1.9378830    -1.7568540    -0.8912230
  H       -1.9376860    -1.7568560     0.8915590
  H       -0.4171890    -1.4732080     0.0000020
units angstrom
no_reorient
symmetry c1
}

set {
scf_type DF
mp2_type DF
e_convergence 7
reference rhf
}

energy('mp2/aug-cc-pv[tq]z', bsse_type='cp')
--------------------------------------------------------------------------

    Molecular point group: c1
  Charge       = 0
  Multiplicity = 1
  Basis Set: AUG-CC-PVTZ
    Blend: AUG-CC-PVTZ
  Basis Set: (AUG-CC-PVTZ AUX)
    Blend: AUG-CC-PVTZ-JKFIT
  @DF-RHF Final Energy: -2612.09292493005842
    Total Energy =                      -2612.0929249300588708
  Basis Set: (AUG-CC-PVTZ AUX)
    Blend: AUG-CC-PVTZ-RI
	 Reference Energy          =   -2612.0929249300584161 [Eh]
	 Singles Energy            =      -0.0000000000000000 [Eh]
	 Same-Spin Energy          =      -0.1267786797284845 [Eh]
	 Opposite-Spin Energy      =      -0.3643839680267317 [Eh]
	 Correlation Energy        =      -0.4911626477552162 [Eh]
	 Total Energy              =   -2612.5840875778135342 [Eh]
	 SCS Total Energy          =   -2612.5724452516001293 [Eh]
    Molecular point group: c1
  Basis Set: AUG-CC-PVQZ
    Blend: AUG-CC-PVQZ
  Basis Set: (AUG-CC-PVQZ AUX)
    Blend: AUG-CC-PVQZ-JKFIT
  @DF-RHF Final Energy: -2612.09808635080481
    Total Energy =                      -2612.0980863508048060
  Basis Set: (AUG-CC-PVQZ AUX)
  @DF-RHF Final Energy: -2612.09296984765751
    Total Energy =                      -2612.0929698476575140
  @DF-RHF Final Energy: -2612.09809646405620
    Total Energy =                      -2612.0980964640561979
  @DF-RHF Final Energy: -2612.09296985117408
    Total Energy =                      -2612.0929698511740753
  @DF-RHF Final Energy: -2612.09809646717804
    Total Energy =                      -2612.0980964671780384
  @DF-RHF Final Energy: -2612.09292493652902
    Total Energy =                      -2612.0929249365290161
  @DF-RHF Final Energy: -2612.09808635459785
    Total Energy =                      -2612.0980863545978536
  Multiplicity = 1
  @DF-RHF Final Energy: -5224.18340738881125
    Total Energy =                      -5224.1834073888112471
	 Singles Energy            =      -0.0000000000000000 [Eh]
	 Same-Spin Energy          =      -0.2586788166417225 [Eh]
	 Opposite-Spin Energy      =      -0.7362180202932418 [Eh]
	 Correlation Energy        =      -0.9948968369349642 [Eh]
	 Total Energy              =   -5225.1783042257466150 [Eh]
	 SCS Total Energy          =   -5225.1530952853772760 [Eh]
    Molecular point group: c1

    Geometry (in Angstrom), charge = 0, multiplicity = 1:

       Center              X                  Y                   Z               Mass
    ------------   -----------------  -----------------  -----------------  -----------------
         BR           2.011352588039    -0.584193091110    -0.000001549658    78.918337600000
         C            1.656980588039     1.311400908890    -0.000032549658    12.000000000000
         H            0.583094588039     1.449786908890    -0.000003549658     1.007825032230
         H            2.103623588039     1.733644908890    -0.891447549658     1.007825032230
         H            2.103677588039     1.733683908890     0.891336450342     1.007825032230
         BR          -2.011310411961     0.584200908890     0.000013450342    78.918337600000
         C           -1.657192411961    -1.311439091110    -0.000027549658    12.000000000000
         H           -2.104022411961    -1.733639091110    -0.891369549658     1.007825032230
         H           -2.103825411961    -1.733641091110     0.891412450342     1.007825032230
         H           -0.583328411961    -1.449993091110    -0.000144549658     1.007825032230

  Charge       = 0
  Multiplicity = 1
  Basis Set: AUG-CC-PVQZ
    Blend: AUG-CC-PVQZ
  Basis Set: (AUG-CC-PVQZ AUX)
    Blend: AUG-CC-PVQZ-JKFIT

    Orbital Energies [Eh]
    ---------------------

    Doubly Occupied:

       1A   -490.013659     2A   -490.013655     3A    -65.154243
       4A    -65.154239     5A    -58.509609     6A    -58.509605
       7A    -58.508277     8A    -58.508273     9A    -58.508264
      10A    -58.508260    11A    -11.280161    12A    -11.280155
      13A     -9.827647    14A     -9.827643    15A     -7.439018
      16A     -7.439014    17A     -7.432788    18A     -7.432783
      19A     -7.432778    20A     -7.432774    21A     -3.182513
      22A     -3.182508    23A     -3.179216    24A     -3.179212
      25A     -3.179202    26A     -3.179198    27A     -3.171121
      28A     -3.171117    29A     -3.171115    30A     -3.171111
      31A     -1.066751    32A     -1.060379    33A     -0.899626
      34A     -0.891709    35A     -0.620907    36A     -0.609899
      37A     -0.608590    38A     -0.599984    39A     -0.510385
      40A     -0.504042    41A     -0.413006    42A     -0.404498
      43A     -0.403329    44A     -0.394813

  @DF-RHF Final Energy: -5224.19365866727549

   => Energetics <=

    Nuclear Repulsion Energy =            433.9584101748352509
    One-Electron Energy =               -8138.3699907068803441
    Two-Electron Energy =                2480.2179218647697780
    Total Energy =                      -5224.1936586672754856

  Dipole Moment: [D]
     X:    -0.0004      Y:    -0.0001      Z:    -0.0001     Total:     0.0004

  Basis Set: (AUG-CC-PVQZ AUX)
    Blend: AUG-CC-PVQZ-RI
	 Reference Energy          =   -5224.1936586672754856 [Eh]
	 Singles Energy            =      -0.0000000000000000 [Eh]
	 Same-Spin Energy          =      -0.3271607142859220 [Eh]
	 Opposite-Spin Energy      =      -0.9137779674367053 [Eh]
	 Correlation Energy        =      -1.2409386817226271 [Eh]
	 Total Energy              =   -5225.4345973489980679 [Eh]

	 ================> DF-SCS-MP2 Energies <==================
	-----------------------------------------------------------
	 SCS Same-Spin Scale       =       0.3333333333333333 [-]
	 SCS Opposite-Spin Scale   =       1.2000000000000000 [-]
	 SCS Same-Spin Energy      =      -0.1090535714286407 [Eh]
	 SCS Opposite-Spin Energy  =      -1.0965335609240463 [Eh]
	 SCS Correlation Energy    =      -1.2055871323526870 [Eh]
	 SCS Total Energy          =   -5225.3992457996282610 [Eh]
	-----------------------------------------------------------

*** Psi4 exiting successfully. Buy a developer a beer!
