                               Psi4 1.4a2.dev224

  ==> Input File <==

--------------------------------------------------------------------------
#Generated by lconvert.py for cbs job

memory 20 GB

molecule  {
0 1
 Br       2.177490   -0.607410    0.000150
  C       1.823120    1.288190    0.000110
  H       0.749230    1.426570    0.000140
  H       2.269760    1.710430   -0.891300
  H       2.269820    1.710470    0.891480
--
0 1
 Br      -3.215550    0.752910    0.000160
  C      -2.861440   -1.142730    0.000120
  H      -3.308270   -1.564930   -0.891220
  H      -3.308070   -1.564930    0.891560
  H      -1.787570   -1.281280    0.000010
units angstrom
no_reorient
symmetry c1
}

set {
scf_type DF
mp2_type DF
e_convergence 7
reference rhf
}

energy('mp2/aug-cc-pv[tq]z', bsse_type='cp')
--------------------------------------------------------------------------

    Molecular point group: c1
  Charge       = 0
  Multiplicity = 1
  Basis Set: AUG-CC-PVTZ
    Blend: AUG-CC-PVTZ
  Basis Set: (AUG-CC-PVTZ AUX)
    Blend: AUG-CC-PVTZ-JKFIT
  @DF-RHF Final Energy: -2612.09292489590553
    Total Energy =                      -2612.0929248959055258
  Basis Set: (AUG-CC-PVTZ AUX)
    Blend: AUG-CC-PVTZ-RI
	 Reference Energy          =   -2612.0929248959055258 [Eh]
	 Singles Energy            =      -0.0000000000000000 [Eh]
	 Same-Spin Energy          =      -0.1267787011388788 [Eh]
	 Opposite-Spin Energy      =      -0.3643839900085476 [Eh]
	 Correlation Energy        =      -0.4911626911474264 [Eh]
	 Total Energy              =   -2612.5840875870530908 [Eh]
	 SCS Total Energy          =   -2612.5724452509621187 [Eh]
    Molecular point group: c1
  Basis Set: AUG-CC-PVQZ
    Blend: AUG-CC-PVQZ
  Basis Set: (AUG-CC-PVQZ AUX)
    Blend: AUG-CC-PVQZ-JKFIT
  @DF-RHF Final Energy: -2612.09808631673741
    Total Energy =                      -2612.0980863167374082
  Basis Set: (AUG-CC-PVQZ AUX)
  @DF-RHF Final Energy: -2612.09294316582645
    Total Energy =                      -2612.0929431658260000
  @DF-RHF Final Energy: -2612.09809075610156
    Total Energy =                      -2612.0980907561015556
  @DF-RHF Final Energy: -2612.09294327750786
    Total Energy =                      -2612.0929432775074019
  @DF-RHF Final Energy: -2612.09809085932193
    Total Energy =                      -2612.0980908593219283
  @DF-RHF Final Energy: -2612.09292501017990
    Total Energy =                      -2612.0929250101798971
  @DF-RHF Final Energy: -2612.09808642095231
    Total Energy =                      -2612.0980864209523133
  Multiplicity = 1
  @DF-RHF Final Energy: -5224.18715532140595
    Total Energy =                      -5224.1871553214068626
	 Singles Energy            =      -0.0000000000000000 [Eh]
	 Same-Spin Energy          =      -0.2545013176120918 [Eh]
	 Opposite-Spin Energy      =      -0.7302639069075332 [Eh]
	 Correlation Energy        =      -0.9847652245196250 [Eh]
	 Total Energy              =   -5225.1719205459257864 [Eh]
	 SCS Total Energy          =   -5225.1483057822324554 [Eh]
    Molecular point group: c1

    Geometry (in Angstrom), charge = 0, multiplicity = 1:

       Center              X                  Y                   Z               Mass
    ------------   -----------------  -----------------  -----------------  -----------------
         BR           2.696541540989    -0.680156533331     0.000001504210    78.918337600000
         C            2.342171540989     1.215443466669    -0.000038495790    12.000000000000
         H            1.268281540989     1.353823466669    -0.000008495790     1.007825032230
         H            2.788811540989     1.637683466669    -0.891448495790     1.007825032230
         H            2.788871540989     1.637723466669     0.891331504210     1.007825032230
         BR          -2.696498459011     0.680163466669     0.000011504210    78.918337600000
         C           -2.342388459011    -1.215476533331    -0.000028495790    12.000000000000
         H           -2.789218459011    -1.637676533331    -0.891368495790     1.007825032230
         H           -2.789018459011    -1.637676533331     0.891411504210     1.007825032230
         H           -1.268518459011    -1.354026533331    -0.000138495790     1.007825032230

  Charge       = 0
  Multiplicity = 1
  Basis Set: AUG-CC-PVQZ
    Blend: AUG-CC-PVQZ
  Basis Set: (AUG-CC-PVQZ AUX)
    Blend: AUG-CC-PVQZ-JKFIT

    Orbital Energies [Eh]
    ---------------------

    Doubly Occupied:

       1A   -490.013840     2A   -490.013838     3A    -65.154298
       4A    -65.154296     5A    -58.509693     6A    -58.509690
       7A    -58.508319     8A    -58.508316     9A    -58.508316
      10A    -58.508313    11A    -11.285321    12A    -11.285320
      13A     -9.827591    14A     -9.827588    15A     -7.439031
      16A     -7.439028    17A     -7.432653    18A     -7.432650
      19A     -7.432632    20A     -7.432629    21A     -3.182572
      22A     -3.182570    23A     -3.179213    24A     -3.179211
      25A     -3.179184    26A     -3.179182    27A     -3.170926
      28A     -3.170926    29A     -3.170924    30A     -3.170923
      31A     -1.064577    32A     -1.064246    33A     -0.897342
      34A     -0.896931    35A     -0.614090    36A     -0.612548
      37A     -0.612449    38A     -0.611178    39A     -0.508559
      40A     -0.508060    41A     -0.404914    42A     -0.403288
      43A     -0.403192    44A     -0.402291

  @DF-RHF Final Energy: -5224.19744507225096

   => Energetics <=

    Nuclear Repulsion Energy =            370.1581581171184325
    One-Electron Energy =               -8010.7259160277817500
    Two-Electron Energy =                2416.3703128384122465
    Total Energy =                      -5224.1974450722509573

  Dipole Moment: [D]
     X:    -0.0003      Y:    -0.0000      Z:    -0.0001     Total:     0.0003

  Basis Set: (AUG-CC-PVQZ AUX)
    Blend: AUG-CC-PVQZ-RI
	 Reference Energy          =   -5224.1974450722509573 [Eh]
	 Singles Energy            =      -0.0000000000000000 [Eh]
	 Same-Spin Energy          =      -0.3232012669856791 [Eh]
	 Opposite-Spin Energy      =      -0.9086016309258813 [Eh]
	 Correlation Energy        =      -1.2318028979115603 [Eh]
	 Total Energy              =   -5225.4292479701625780 [Eh]

	 ================> DF-SCS-MP2 Energies <==================
	-----------------------------------------------------------
	 SCS Same-Spin Scale       =       0.3333333333333333 [-]
	 SCS Opposite-Spin Scale   =       1.2000000000000000 [-]
	 SCS Same-Spin Energy      =      -0.1077337556618930 [Eh]
	 SCS Opposite-Spin Energy  =      -1.0903219571110576 [Eh]
	 SCS Correlation Energy    =      -1.1980557127729505 [Eh]
	 SCS Total Energy          =   -5225.3955007850236143 [Eh]
	-----------------------------------------------------------

*** Psi4 exiting successfully. Buy a developer a beer!
