                               Psi4 1.4a2.dev224

  ==> Input File <==

--------------------------------------------------------------------------
#Generated by lconvert.py for cbs job

memory 40 GB

molecule  {
0 1
 Br        2.1774920    -0.6074080     0.0001450
  C        1.8231200     1.2881860     0.0001140
  H        0.7492340     1.4265720     0.0001430
  H        2.2697630     1.7104300    -0.8913010
  H        2.2698170     1.7104690     0.8914830
--
0 1
 Br       -1.5037450     0.5131680     0.0001590
  C       -1.1496270    -1.3824720     0.0001180
  H       -1.5964570    -1.8046720    -0.8912240
  H       -1.5962600    -1.8046740     0.8915580
  H       -0.0757630    -1.5210260     0.0000010
units angstrom
no_reorient
symmetry c1
}

set {
scf_type DF
mp2_type DF
e_convergence 7
reference rhf
}

energy('mp2/aug-cc-pv[tq]z', bsse_type='cp')
--------------------------------------------------------------------------

    Molecular point group: c1
  Charge       = 0
  Multiplicity = 1
  Basis Set: AUG-CC-PVTZ
    Blend: AUG-CC-PVTZ
  Basis Set: (AUG-CC-PVTZ AUX)
    Blend: AUG-CC-PVTZ-JKFIT
  @DF-RHF Final Energy: -2612.09292493006524
    Total Energy =                      -2612.0929249300652373
  Basis Set: (AUG-CC-PVTZ AUX)
    Blend: AUG-CC-PVTZ-RI
	 Reference Energy          =   -2612.0929249300652373 [Eh]
	 Singles Energy            =      -0.0000000000000000 [Eh]
	 Same-Spin Energy          =      -0.1267786797284349 [Eh]
	 Opposite-Spin Energy      =      -0.3643839680263444 [Eh]
	 Correlation Energy        =      -0.4911626477547793 [Eh]
	 Total Energy              =   -2612.5840875778199006 [Eh]
	 SCS Total Energy          =   -2612.5724452516064957 [Eh]
    Molecular point group: c1
  Basis Set: AUG-CC-PVQZ
    Blend: AUG-CC-PVQZ
  Basis Set: (AUG-CC-PVQZ AUX)
    Blend: AUG-CC-PVQZ-JKFIT
  @DF-RHF Final Energy: -2612.09808635081708
    Total Energy =                      -2612.0980863508170842
  Basis Set: (AUG-CC-PVQZ AUX)
  @DF-RHF Final Energy: -2612.09297913028013
    Total Energy =                      -2612.0929791302796730
  @DF-RHF Final Energy: -2612.09809936085958
    Total Energy =                      -2612.0980993608600329
  @DF-RHF Final Energy: -2612.09297913162891
    Total Energy =                      -2612.0929791316284536
  @DF-RHF Final Energy: -2612.09809936315514
    Total Energy =                      -2612.0980993631555975
  @DF-RHF Final Energy: -2612.09292493633075
    Total Energy =                      -2612.0929249363307463
  @DF-RHF Final Energy: -2612.09808635443369
    Total Energy =                      -2612.0980863544336898
  Multiplicity = 1
  @DF-RHF Final Energy: -5224.17325078210797
    Total Energy =                      -5224.1732507821079707
	 Singles Energy            =      -0.0000000000000000 [Eh]
	 Same-Spin Energy          =      -0.2617201286124909 [Eh]
	 Opposite-Spin Energy      =      -0.7403700696942603 [Eh]
	 Correlation Energy        =      -1.0020901983067514 [Eh]
	 Total Energy              =   -5225.1753409804150579 [Eh]
	 SCS Total Energy          =   -5225.1489349086123184 [Eh]
    Molecular point group: c1

    Geometry (in Angstrom), charge = 0, multiplicity = 1:

       Center              X                  Y                   Z               Mass
    ------------   -----------------  -----------------  -----------------  -----------------
         BR           1.840639588039    -0.560284091110    -0.000001049658    78.918337600000
         C            1.486267588039     1.335309908890    -0.000032049658    12.000000000000
         H            0.412381588039     1.473695908890    -0.000003049658     1.007825032230
         H            1.932910588039     1.757553908890    -0.891447049658     1.007825032230
         H            1.932964588039     1.757592908890     0.891336950342     1.007825032230
         BR          -1.840597411961     0.560291908890     0.000012950342    78.918337600000
         C           -1.486479411961    -1.335348091110    -0.000028049658    12.000000000000
         H           -1.933309411961    -1.757548091110    -0.891370049658     1.007825032230
         H           -1.933112411961    -1.757550091110     0.891411950342     1.007825032230
         H           -0.412615411961    -1.473902091110    -0.000145049658     1.007825032230

  Charge       = 0
  Multiplicity = 1
  Basis Set: AUG-CC-PVQZ
    Blend: AUG-CC-PVQZ
  Basis Set: (AUG-CC-PVQZ AUX)
    Blend: AUG-CC-PVQZ-JKFIT

    Orbital Energies [Eh]
    ---------------------

    Doubly Occupied:

       1A   -490.012748     2A   -490.012744     3A    -65.153501
       4A    -65.153497     5A    -58.508840     6A    -58.508835
       7A    -58.507536     8A    -58.507531     9A    -58.507508
      10A    -58.507503    11A    -11.276373    12A    -11.276364
      13A     -9.827067    14A     -9.827062    15A     -7.438395
      16A     -7.438390    17A     -7.432255    18A     -7.432252
      19A     -7.432251    20A     -7.432247    21A     -3.181862
      22A     -3.181857    23A     -3.178639    24A     -3.178634
      25A     -3.178551    26A     -3.178546    27A     -3.170609
      28A     -3.170604    29A     -3.170591    30A     -3.170586
      31A     -1.069935    32A     -1.056961    33A     -0.903274
      34A     -0.887539    35A     -0.627898    36A     -0.608552
      37A     -0.606083    38A     -0.596025    39A     -0.512162
      40A     -0.500296    41A     -0.415219    42A     -0.405385
      43A     -0.403173    44A     -0.388432

  @DF-RHF Final Energy: -5224.18349450195547

   => Energetics <=

    Nuclear Repulsion Energy =            456.7842584831413433
    One-Electron Energy =               -8184.0668692873205146
    Two-Electron Energy =                2503.0991163022240471
    Total Energy =                      -5224.1834945019545557

  Dipole Moment: [D]
     X:    -0.0004      Y:    -0.0001      Z:    -0.0001     Total:     0.0005

  Basis Set: (AUG-CC-PVQZ AUX)
    Blend: AUG-CC-PVQZ-RI
	 Reference Energy          =   -5224.1834945019554652 [Eh]
	 Singles Energy            =      -0.0000000000000000 [Eh]
	 Same-Spin Energy          =      -0.3300331597026577 [Eh]
	 Opposite-Spin Energy      =      -0.9174676573030635 [Eh]
	 Correlation Energy        =      -1.2475008170057211 [Eh]
	 Total Energy              =   -5225.4309953189613225 [Eh]

	 ================> DF-SCS-MP2 Energies <==================
	-----------------------------------------------------------
	 SCS Same-Spin Scale       =       0.3333333333333333 [-]
	 SCS Opposite-Spin Scale   =       1.2000000000000000 [-]
	 SCS Same-Spin Energy      =      -0.1100110532342192 [Eh]
	 SCS Opposite-Spin Energy  =      -1.1009611887636761 [Eh]
	 SCS Correlation Energy    =      -1.2109722419978954 [Eh]
	 SCS Total Energy          =   -5225.3944667439536715 [Eh]
	-----------------------------------------------------------

*** Psi4 exiting successfully. Buy a developer a beer!
