                               Psi4 1.4a2.dev224

  ==> Input File <==

--------------------------------------------------------------------------
#Generated by lconvert.py for cbs job

memory 20 GB

molecule  {
0 1
 Br       2.177490   -0.607410    0.000150
  C       1.823120    1.288190    0.000110
  H       0.749230    1.426570    0.000140
  H       2.269760    1.710430   -0.891300
  H       2.269820    1.710470    0.891480
--
0 1
 Br      -4.284740    0.902650    0.000170
  C      -3.930620   -0.992990    0.000130
  H      -4.377450   -1.415180   -0.891220
  H      -4.377250   -1.415190    0.891570
  H      -2.856750   -1.131540    0.000010
units angstrom
no_reorient
symmetry c1
}

set {
scf_type DF
mp2_type DF
e_convergence 7
reference rhf
}

energy('mp2/aug-cc-pv[tq]z', bsse_type='cp')
--------------------------------------------------------------------------

    Molecular point group: c1
  Charge       = 0
  Multiplicity = 1
  Basis Set: AUG-CC-PVTZ
    Blend: AUG-CC-PVTZ
  Basis Set: (AUG-CC-PVTZ AUX)
    Blend: AUG-CC-PVTZ-JKFIT
  @DF-RHF Final Energy: -2612.09292486770391
    Total Energy =                      -2612.0929248677039141
  Basis Set: (AUG-CC-PVTZ AUX)
    Blend: AUG-CC-PVTZ-RI
	 Reference Energy          =   -2612.0929248677039141 [Eh]
	 Singles Energy            =      -0.0000000000000000 [Eh]
	 Same-Spin Energy          =      -0.1267786881208317 [Eh]
	 Opposite-Spin Energy      =      -0.3643840074172150 [Eh]
	 Correlation Energy        =      -0.4911626955380467 [Eh]
	 Total Energy              =   -2612.5840875632420648 [Eh]
	 SCS Total Energy          =   -2612.5724452393114916 [Eh]
    Molecular point group: c1
  Basis Set: AUG-CC-PVQZ
    Blend: AUG-CC-PVQZ
  Basis Set: (AUG-CC-PVQZ AUX)
    Blend: AUG-CC-PVQZ-JKFIT
  @DF-RHF Final Energy: -2612.09808628256451
    Total Energy =                      -2612.0980862825645090
  Basis Set: (AUG-CC-PVQZ AUX)
  @DF-RHF Final Energy: -2612.09293060114487
    Total Energy =                      -2612.0929306011448716
  @DF-RHF Final Energy: -2612.09808850256968
    Total Energy =                      -2612.0980885025701355
  @DF-RHF Final Energy: -2612.09293074233392
    Total Energy =                      -2612.0929307423339196
  @DF-RHF Final Energy: -2612.09808864052638
    Total Energy =                      -2612.0980886405268393
  @DF-RHF Final Energy: -2612.09292501005120
    Total Energy =                      -2612.0929250100512036
  @DF-RHF Final Energy: -2612.09808642084772
    Total Energy =                      -2612.0980864208477215
  Multiplicity = 1
  @DF-RHF Final Energy: -5224.18650637129213
    Total Energy =                      -5224.1865063712921256
	 Singles Energy            =      -0.0000000000000000 [Eh]
	 Same-Spin Energy          =      -0.2538326634268925 [Eh]
	 Opposite-Spin Energy      =      -0.7292036255322729 [Eh]
	 Correlation Energy        =      -0.9830362889591654 [Eh]
	 Total Energy              =   -5225.1695426602509542 [Eh]
	 SCS Total Energy          =   -5225.1461616097394653 [Eh]
    Molecular point group: c1

    Geometry (in Angstrom), charge = 0, multiplicity = 1:

       Center              X                  Y                   Z               Mass
    ------------   -----------------  -----------------  -----------------  -----------------
         BR           3.231135741373    -0.755026586972    -0.000003388508    78.918337600000
         C            2.876765741373     1.140573413028    -0.000043388508    12.000000000000
         H            1.802875741373     1.278953413028    -0.000013388508     1.007825032230
         H            3.323405741373     1.562813413028    -0.891453388508     1.007825032230
         H            3.323465741373     1.562853413028     0.891326611492     1.007825032230
         BR          -3.231094258627     0.755033413028     0.000016611492    78.918337600000
         C           -2.876974258627    -1.140606586972    -0.000023388508    12.000000000000
         H           -3.323804258627    -1.562796586972    -0.891373388508     1.007825032230
         H           -3.323604258627    -1.562806586972     0.891416611492     1.007825032230
         H           -1.803104258627    -1.279156586972    -0.000143388508     1.007825032230

  Charge       = 0
  Multiplicity = 1
  Basis Set: AUG-CC-PVQZ
    Blend: AUG-CC-PVQZ
  Basis Set: (AUG-CC-PVQZ AUX)
    Blend: AUG-CC-PVQZ-JKFIT

    Orbital Energies [Eh]
    ---------------------

    Doubly Occupied:

       1A   -490.013445     2A   -490.013443     3A    -65.153896
       4A    -65.153895     5A    -58.509296     6A    -58.509295
       7A    -58.507910     8A    -58.507909     9A    -58.507909
      10A    -58.507908    11A    -11.286104    12A    -11.286102
      13A     -9.827184    14A     -9.827182    15A     -7.438646
      16A     -7.438644    17A     -7.432221    18A     -7.432219
      19A     -7.432210    20A     -7.432209    21A     -3.182199
      22A     -3.182198    23A     -3.178812    24A     -3.178810
      25A     -3.178798    26A     -3.178797    27A     -3.170479
      28A     -3.170478    29A     -3.170477    30A     -3.170477
      31A     -1.064483    32A     -1.064453    33A     -0.897430
      34A     -0.897396    35A     -0.613786    36A     -0.613264
      37A     -0.613107    38A     -0.613095    39A     -0.508369
      40A     -0.508297    41A     -0.403294    42A     -0.402868
      43A     -0.402854    44A     -0.402801

  @DF-RHF Final Energy: -5224.19681655883051

   => Energetics <=

    Nuclear Repulsion Energy =            338.6781456102892207
    One-Electron Energy =               -7947.7806499473490476
    Two-Electron Energy =                2384.9056877782290940
    Total Energy =                      -5224.1968165588314150

  Dipole Moment: [D]
     X:    -0.0003      Y:    -0.0000      Z:    -0.0001     Total:     0.0003

  Basis Set: (AUG-CC-PVQZ AUX)
    Blend: AUG-CC-PVQZ-RI
	 Reference Energy          =   -5224.1968165588305055 [Eh]
	 Singles Energy            =      -0.0000000000000000 [Eh]
	 Same-Spin Energy          =      -0.3226840954830454 [Eh]
	 Opposite-Spin Energy      =      -0.9079377142033473 [Eh]
	 Correlation Energy        =      -1.2306218096863928 [Eh]
	 Total Energy              =   -5225.4274383685169596 [Eh]

	 ================> DF-SCS-MP2 Energies <==================
	-----------------------------------------------------------
	 SCS Same-Spin Scale       =       0.3333333333333333 [-]
	 SCS Opposite-Spin Scale   =       1.2000000000000000 [-]
	 SCS Same-Spin Energy      =      -0.1075613651610151 [Eh]
	 SCS Opposite-Spin Energy  =      -1.0895252570440168 [Eh]
	 SCS Correlation Energy    =      -1.1970866222050320 [Eh]
	 SCS Total Energy          =   -5225.3939031810359666 [Eh]
	-----------------------------------------------------------

*** Psi4 exiting successfully. Buy a developer a beer!
