                               Psi4 1.4a2.dev224

  ==> Input File <==

--------------------------------------------------------------------------
#Generated by lconvert.py for cbs job

memory 40 GB

molecule  {
0 1
 Br        2.1774920    -0.6074080     0.0001450
  C        1.8231200     1.2881860     0.0001140
  H        0.7492340     1.4265720     0.0001430
  H        2.2697630     1.7104300    -0.8913010
  H        2.2698170     1.7104690     0.8914830
--
0 1
 Br       -2.3406120     0.6303750     0.0001620
  C       -1.9864940    -1.2652650     0.0001210
  H       -2.4333240    -1.6874650    -0.8912210
  H       -2.4331270    -1.6874670     0.8915610
  H       -0.9126300    -1.4038190     0.0000040
units angstrom
no_reorient
symmetry c1
}

set {
scf_type DF
mp2_type DF
e_convergence 7
reference rhf
}

energy('mp2/aug-cc-pv[tq]z', bsse_type='cp')
--------------------------------------------------------------------------

    Molecular point group: c1
  Charge       = 0
  Multiplicity = 1
  Basis Set: AUG-CC-PVTZ
    Blend: AUG-CC-PVTZ
  Basis Set: (AUG-CC-PVTZ AUX)
    Blend: AUG-CC-PVTZ-JKFIT
  @DF-RHF Final Energy: -2612.09292492899112
    Total Energy =                      -2612.0929249289911240
  Basis Set: (AUG-CC-PVTZ AUX)
    Blend: AUG-CC-PVTZ-RI
	 Reference Energy          =   -2612.0929249289911240 [Eh]
	 Singles Energy            =      -0.0000000000000000 [Eh]
	 Same-Spin Energy          =      -0.1267786797298995 [Eh]
	 Opposite-Spin Energy      =      -0.3643839680295617 [Eh]
	 Correlation Energy        =      -0.4911626477594612 [Eh]
	 Total Energy              =   -2612.5840875767507896 [Eh]
	 SCS Total Energy          =   -2612.5724452505364752 [Eh]
    Molecular point group: c1
  Basis Set: AUG-CC-PVQZ
    Blend: AUG-CC-PVQZ
  Basis Set: (AUG-CC-PVQZ AUX)
    Blend: AUG-CC-PVQZ-JKFIT
  @DF-RHF Final Energy: -2612.09808635111085
    Total Energy =                      -2612.0980863511103962
  Basis Set: (AUG-CC-PVQZ AUX)
  @DF-RHF Final Energy: -2612.09295867290894
    Total Energy =                      -2612.0929586729089351
  @DF-RHF Final Energy: -2612.09809365277988
    Total Energy =                      -2612.0980936527794256
  @DF-RHF Final Energy: -2612.09295867606625
    Total Energy =                      -2612.0929586760667007
  @DF-RHF Final Energy: -2612.09809365626597
    Total Energy =                      -2612.0980936562664283
  @DF-RHF Final Energy: -2612.09292493628254
    Total Energy =                      -2612.0929249362825431
  @DF-RHF Final Energy: -2612.09808635417994
    Total Energy =                      -2612.0980863541799408
  Multiplicity = 1
  @DF-RHF Final Energy: -5224.18720000148642
    Total Energy =                      -5224.1872000014864170
	 Singles Energy            =      -0.0000000000000000 [Eh]
	 Same-Spin Energy          =      -0.2561842576130295 [Eh]
	 Opposite-Spin Energy      =      -0.7326421369181421 [Eh]
	 Correlation Energy        =      -0.9888263945311715 [Eh]
	 Total Energy              =   -5225.1760263960177326 [Eh]
	 SCS Total Energy          =   -5225.1517653183254879 [Eh]
    Molecular point group: c1

    Geometry (in Angstrom), charge = 0, multiplicity = 1:

       Center              X                  Y                   Z               Mass
    ------------   -----------------  -----------------  -----------------  -----------------
         BR           2.259073088039    -0.618887591110    -0.000002549658    78.918337600000
         C            1.904701088039     1.276706408890    -0.000033549658    12.000000000000
         H            0.830815088039     1.415092408890    -0.000004549658     1.007825032230
         H            2.351344088039     1.698950408890    -0.891448549658     1.007825032230
         H            2.351398088039     1.698989408890     0.891335450342     1.007825032230
         BR          -2.259030911961     0.618895408890     0.000014450342    78.918337600000
         C           -1.904912911961    -1.276744591110    -0.000026549658    12.000000000000
         H           -2.351742911961    -1.698944591110    -0.891368549658     1.007825032230
         H           -2.351545911961    -1.698946591110     0.891413450342     1.007825032230
         H           -0.831048911961    -1.415298591110    -0.000143549658     1.007825032230

  Charge       = 0
  Multiplicity = 1
  Basis Set: AUG-CC-PVQZ
    Blend: AUG-CC-PVQZ
  Basis Set: (AUG-CC-PVQZ AUX)
    Blend: AUG-CC-PVQZ-JKFIT

    Orbital Energies [Eh]
    ---------------------

    Doubly Occupied:

       1A   -490.014066     2A   -490.014062     3A    -65.154558
       4A    -65.154555     5A    -58.509941     6A    -58.509938
       7A    -58.508585     8A    -58.508584     9A    -58.508582
      10A    -58.508581    11A    -11.283201    12A    -11.283198
      13A     -9.827881    14A     -9.827878    15A     -7.439287
      16A     -7.439283    17A     -7.432985    18A     -7.432982
      19A     -7.432960    20A     -7.432956    21A     -3.182806
      22A     -3.182803    23A     -3.179483    24A     -3.179480
      25A     -3.179452    26A     -3.179449    27A     -3.171288
      28A     -3.171286    29A     -3.171285    30A     -3.171283
      31A     -1.065130    32A     -1.062900    33A     -0.897793
      34A     -0.894978    35A     -0.616323    36A     -0.611302
      37A     -0.610783    38A     -0.605673    39A     -0.509196
      40A     -0.506662    41A     -0.408973    42A     -0.403877
      43A     -0.403409    44A     -0.399525

  @DF-RHF Final Energy: -5224.19746927471351

   => Energetics <=

    Nuclear Repulsion Energy =            406.6279018308916875
    One-Electron Energy =               -8083.6723522621468874
    Two-Electron Energy =                2452.8469811565423697
    Total Energy =                      -5224.1974692747135123

  Dipole Moment: [D]
     X:    -0.0004      Y:    -0.0000      Z:    -0.0001     Total:     0.0004

  Basis Set: (AUG-CC-PVQZ AUX)
    Blend: AUG-CC-PVQZ-RI
	 Reference Energy          =   -5224.1974692747135123 [Eh]
	 Singles Energy            =      -0.0000000000000000 [Eh]
	 Same-Spin Energy          =      -0.3248506219672992 [Eh]
	 Opposite-Spin Energy      =      -0.9107840933442484 [Eh]
	 Correlation Energy        =      -1.2356347153115474 [Eh]
	 Total Energy              =   -5225.4331039900253018 [Eh]

	 ================> DF-SCS-MP2 Energies <==================
	-----------------------------------------------------------
	 SCS Same-Spin Scale       =       0.3333333333333333 [-]
	 SCS Opposite-Spin Scale   =       1.2000000000000000 [-]
	 SCS Same-Spin Energy      =      -0.1082835406557664 [Eh]
	 SCS Opposite-Spin Energy  =      -1.0929409120130980 [Eh]
	 SCS Correlation Energy    =      -1.2012244526688645 [Eh]
	 SCS Total Energy          =   -5225.3986937273821241 [Eh]
	-----------------------------------------------------------

*** Psi4 exiting successfully. Buy a developer a beer!
