                               Psi4 1.4a2.dev224

  ==> Input File <==

--------------------------------------------------------------------------
#Generated by lconvert.py for cbs job

memory 40 GB

molecule  {
0 1
 Br        2.1774920    -0.6074080     0.0001450
  C        1.8231200     1.2881860     0.0001140
  H        0.7492340     1.4265720     0.0001430
  H        2.2697630     1.7104300    -0.8913010
  H        2.2698170     1.7104690     0.8914830
--
0 1
 Br       -2.5027650     0.6530850     0.0001620
  C       -2.1486470    -1.2425550     0.0001210
  H       -2.5954770    -1.6647550    -0.8912210
  H       -2.5952800    -1.6647570     0.8915610
  H       -1.0747830    -1.3811090     0.0000040
units angstrom
no_reorient
symmetry c1
}

set {
scf_type DF
mp2_type DF
e_convergence 7
reference rhf
}

energy('mp2/aug-cc-pv[tq]z', bsse_type='cp')
--------------------------------------------------------------------------

    Molecular point group: c1
  Charge       = 0
  Multiplicity = 1
  Basis Set: AUG-CC-PVTZ
    Blend: AUG-CC-PVTZ
  Basis Set: (AUG-CC-PVTZ AUX)
    Blend: AUG-CC-PVTZ-JKFIT
  @DF-RHF Final Energy: -2612.09292493002658
    Total Energy =                      -2612.0929249300265838
  Basis Set: (AUG-CC-PVTZ AUX)
    Blend: AUG-CC-PVTZ-RI
	 Reference Energy          =   -2612.0929249300265838 [Eh]
	 Singles Energy            =      -0.0000000000000000 [Eh]
	 Same-Spin Energy          =      -0.1267786797290313 [Eh]
	 Opposite-Spin Energy      =      -0.3643839680277877 [Eh]
	 Correlation Energy        =      -0.4911626477568189 [Eh]
	 Total Energy              =   -2612.5840875777835208 [Eh]
	 SCS Total Energy          =   -2612.5724452515696612 [Eh]
    Molecular point group: c1
  Basis Set: AUG-CC-PVQZ
    Blend: AUG-CC-PVQZ
  Basis Set: (AUG-CC-PVQZ AUX)
    Blend: AUG-CC-PVQZ-JKFIT
  @DF-RHF Final Energy: -2612.09808635094032
    Total Energy =                      -2612.0980863509398660
  Basis Set: (AUG-CC-PVQZ AUX)
  @DF-RHF Final Energy: -2612.09295518209046
    Total Energy =                      -2612.0929551820904635
  @DF-RHF Final Energy: -2612.09809290939484
    Total Energy =                      -2612.0980929093948362
  @DF-RHF Final Energy: -2612.09295518527506
    Total Energy =                      -2612.0929551852746044
  @DF-RHF Final Energy: -2612.09809291252986
    Total Energy =                      -2612.0980929125298644
  @DF-RHF Final Energy: -2612.09292493611247
    Total Energy =                      -2612.0929249361124675
  @DF-RHF Final Energy: -2612.09808635440822
    Total Energy =                      -2612.0980863544082240
  Multiplicity = 1
  @DF-RHF Final Energy: -5224.18743121282478
    Total Energy =                      -5224.1874312128238671
	 Singles Energy            =      -0.0000000000000000 [Eh]
	 Same-Spin Energy          =      -0.2556976290822053 [Eh]
	 Opposite-Spin Energy      =      -0.7319448733498621 [Eh]
	 Correlation Energy        =      -0.9876425024320674 [Eh]
	 Total Energy              =   -5225.1750737152569855 [Eh]
	 SCS Total Energy          =   -5225.1509976038723835 [Eh]
    Molecular point group: c1

    Geometry (in Angstrom), charge = 0, multiplicity = 1:

       Center              X                  Y                   Z               Mass
    ------------   -----------------  -----------------  -----------------  -----------------
         BR           2.340149588039    -0.630242591110    -0.000002549658    78.918337600000
         C            1.985777588039     1.265351408890    -0.000033549658    12.000000000000
         H            0.911891588039     1.403737408890    -0.000004549658     1.007825032230
         H            2.432420588039     1.687595408890    -0.891448549658     1.007825032230
         H            2.432474588039     1.687634408890     0.891335450342     1.007825032230
         BR          -2.340107411961     0.630250408890     0.000014450342    78.918337600000
         C           -1.985989411961    -1.265389591110    -0.000026549658    12.000000000000
         H           -2.432819411961    -1.687589591110    -0.891368549658     1.007825032230
         H           -2.432622411961    -1.687591591110     0.891413450342     1.007825032230
         H           -0.912125411961    -1.403943591110    -0.000143549658     1.007825032230

  Charge       = 0
  Multiplicity = 1
  Basis Set: AUG-CC-PVQZ
    Blend: AUG-CC-PVQZ
  Basis Set: (AUG-CC-PVQZ AUX)
    Blend: AUG-CC-PVQZ-JKFIT

    Orbital Energies [Eh]
    ---------------------

    Doubly Occupied:

       1A   -490.014071     2A   -490.014068     3A    -65.154551
       4A    -65.154548     5A    -58.509937     6A    -58.509934
       7A    -58.508576     8A    -58.508575     9A    -58.508573
      10A    -58.508572    11A    -11.283807    12A    -11.283804
      13A     -9.827862    14A     -9.827859    15A     -7.439276
      16A     -7.439273    17A     -7.432957    18A     -7.432954
      19A     -7.432930    20A     -7.432927    21A     -3.182801
      22A     -3.182798    23A     -3.179471    24A     -3.179468
      25A     -3.179436    26A     -3.179433    27A     -3.171252
      28A     -3.171250    29A     -3.171249    30A     -3.171247
      31A     -1.064919    32A     -1.063345    33A     -0.897577
      34A     -0.895588    35A     -0.615570    36A     -0.611628
      37A     -0.611245    38A     -0.607122    39A     -0.508993
      40A     -0.507120    41A     -0.407910    42A     -0.403739
      43A     -0.403392    44A     -0.400392

  @DF-RHF Final Energy: -5224.19770577493546

   => Energetics <=

    Nuclear Repulsion Energy =            398.8805109829601747
    One-Electron Energy =               -8068.1724655822445129
    Two-Electron Energy =                2445.0942488243485968
    Total Energy =                      -5224.1977057749354572

  Dipole Moment: [D]
     X:    -0.0004      Y:    -0.0000      Z:    -0.0001     Total:     0.0004

  Basis Set: (AUG-CC-PVQZ AUX)
    Blend: AUG-CC-PVQZ-RI
	 Reference Energy          =   -5224.1977057749354572 [Eh]
	 Singles Energy            =      -0.0000000000000000 [Eh]
	 Same-Spin Energy          =      -0.3243711227633723 [Eh]
	 Opposite-Spin Energy      =      -0.9101501816822656 [Eh]
	 Correlation Energy        =      -1.2345213044456380 [Eh]
	 Total Energy              =   -5225.4322270793809366 [Eh]

	 ================> DF-SCS-MP2 Energies <==================
	-----------------------------------------------------------
	 SCS Same-Spin Scale       =       0.3333333333333333 [-]
	 SCS Opposite-Spin Scale   =       1.2000000000000000 [-]
	 SCS Same-Spin Energy      =      -0.1081237075877908 [Eh]
	 SCS Opposite-Spin Energy  =      -1.0921802180187186 [Eh]
	 SCS Correlation Energy    =      -1.2003039256065093 [Eh]
	 SCS Total Energy          =   -5225.3980097005423886 [Eh]
	-----------------------------------------------------------

*** Psi4 exiting successfully. Buy a developer a beer!
