                               Psi4 1.4a2.dev224

  ==> Input File <==

--------------------------------------------------------------------------
#Generated by lconvert.py for cbs job

memory 40 GB

molecule  {
0 1
 Br        2.1774920    -0.6074080     0.0001450
  C        1.8231200     1.2881860     0.0001140
  H        0.7492340     1.4265720     0.0001430
  H        2.2697630     1.7104300    -0.8913010
  H        2.2698170     1.7104690     0.8914830
--
0 1
 Br       -1.1473510     0.4632540     0.0001580
  C       -0.7932330    -1.4323860     0.0001170
  H       -1.2400630    -1.8545860    -0.8912250
  H       -1.2398660    -1.8545880     0.8915570
  H        0.2806310    -1.5709400    -0.0000000
units angstrom
no_reorient
symmetry c1
}

set {
scf_type DF
mp2_type DF
e_convergence 7
reference rhf
}

energy('mp2/aug-cc-pv[tq]z', bsse_type='cp')
--------------------------------------------------------------------------

    Molecular point group: c1
  Charge       = 0
  Multiplicity = 1
  Basis Set: AUG-CC-PVTZ
    Blend: AUG-CC-PVTZ
  Basis Set: (AUG-CC-PVTZ AUX)
    Blend: AUG-CC-PVTZ-JKFIT
  @DF-RHF Final Energy: -2612.09292492964641
    Total Energy =                      -2612.0929249296464150
  Basis Set: (AUG-CC-PVTZ AUX)
    Blend: AUG-CC-PVTZ-RI
	 Reference Energy          =   -2612.0929249296464150 [Eh]
	 Singles Energy            =      -0.0000000000000000 [Eh]
	 Same-Spin Energy          =      -0.1267786797291111 [Eh]
	 Opposite-Spin Energy      =      -0.3643839680276377 [Eh]
	 Correlation Energy        =      -0.4911626477567488 [Eh]
	 Total Energy              =   -2612.5840875774033520 [Eh]
	 SCS Total Energy          =   -2612.5724452511894924 [Eh]
    Molecular point group: c1
  Basis Set: AUG-CC-PVQZ
    Blend: AUG-CC-PVQZ
  Basis Set: (AUG-CC-PVQZ AUX)
    Blend: AUG-CC-PVQZ-JKFIT
  @DF-RHF Final Energy: -2612.09808635045556
    Total Energy =                      -2612.0980863504555600
  Basis Set: (AUG-CC-PVQZ AUX)
  @DF-RHF Final Energy: -2612.09299440065888
    Total Energy =                      -2612.0929944006593360
  @DF-RHF Final Energy: -2612.09810344322204
    Total Energy =                      -2612.0981034432220440
  @DF-RHF Final Energy: -2612.09299439880760
    Total Energy =                      -2612.0929943988076047
  @DF-RHF Final Energy: -2612.09810344367133
    Total Energy =                      -2612.0981034436713344
  @DF-RHF Final Energy: -2612.09292493643670
    Total Energy =                      -2612.0929249364362477
  @DF-RHF Final Energy: -2612.09808635433819
    Total Energy =                      -2612.0980863543381929
  Multiplicity = 1
  @DF-RHF Final Energy: -5224.14408339648708
    Total Energy =                      -5224.1440833964861667
	 Singles Energy            =      -0.0000000000000000 [Eh]
	 Same-Spin Energy          =      -0.2666377774644134 [Eh]
	 Opposite-Spin Energy      =      -0.7467222873005444 [Eh]
	 Correlation Energy        =      -1.0133600647649579 [Eh]
	 Total Energy              =   -5225.1574434612521145 [Eh]
	 SCS Total Energy          =   -5225.1290294004029420 [Eh]
    Molecular point group: c1

    Geometry (in Angstrom), charge = 0, multiplicity = 1:

       Center              X                  Y                   Z               Mass
    ------------   -----------------  -----------------  -----------------  -----------------
         BR           1.662442588039    -0.535327091110    -0.000000549658    78.918337600000
         C            1.308070588039     1.360266908890    -0.000031549658    12.000000000000
         H            0.234184588039     1.498652908890    -0.000002549658     1.007825032230
         H            1.754713588039     1.782510908890    -0.891446549658     1.007825032230
         H            1.754767588039     1.782549908890     0.891337450342     1.007825032230
         BR          -1.662400411961     0.535334908890     0.000012450342    78.918337600000
         C           -1.308282411961    -1.360305091110    -0.000028549658    12.000000000000
         H           -1.755112411961    -1.782505091110    -0.891370549658     1.007825032230
         H           -1.754915411961    -1.782507091110     0.891411450342     1.007825032230
         H           -0.234418411961    -1.498859091110    -0.000145549658     1.007825032230

  Charge       = 0
  Multiplicity = 1
  Basis Set: AUG-CC-PVQZ
    Blend: AUG-CC-PVQZ
  Basis Set: (AUG-CC-PVQZ AUX)
    Blend: AUG-CC-PVQZ-JKFIT

    Orbital Energies [Eh]
    ---------------------

    Doubly Occupied:

       1A   -490.011002     2A   -490.010998     3A    -65.152145
       4A    -65.152140     5A    -58.507416     6A    -58.507411
       7A    -58.506156     8A    -58.506150     9A    -58.506114
      10A    -58.506109    11A    -11.270172    12A    -11.270158
      13A     -9.826101    14A     -9.826095    15A     -7.437334
      16A     -7.437329    17A     -7.431395    18A     -7.431389
      19A     -7.431343    20A     -7.431337    21A     -3.180755
      22A     -3.180749    23A     -3.177635    24A     -3.177629
      25A     -3.177473    26A     -3.177463    27A     -3.169754
      28A     -3.169746    29A     -3.169697    30A     -3.169691
      31A     -1.077988    32A     -1.051005    33A     -0.912298
      34A     -0.880767    35A     -0.641433    36A     -0.607121
      37A     -0.602331    38A     -0.595498    39A     -0.515966
      40A     -0.493041    41A     -0.412679    42A     -0.407438
      43A     -0.403137    44A     -0.376870

  @DF-RHF Final Energy: -5224.15435679601342

   => Energetics <=

    Nuclear Repulsion Energy =            485.1680726226799152
    One-Electron Energy =               -8240.8719130164445232
    Two-Electron Energy =                2531.5494835977524417
    Total Energy =                      -5224.1543567960125074

  Dipole Moment: [D]
     X:    -0.0005      Y:    -0.0001      Z:    -0.0001     Total:     0.0005

  Basis Set: (AUG-CC-PVQZ AUX)
    Blend: AUG-CC-PVQZ-RI
	 Reference Energy          =   -5224.1543567960134169 [Eh]
	 Singles Energy            =      -0.0000000000000000 [Eh]
	 Same-Spin Energy          =      -0.3351259711831135 [Eh]
	 Opposite-Spin Energy      =      -0.9240678294586812 [Eh]
	 Correlation Energy        =      -1.2591938006417946 [Eh]
	 Total Energy              =   -5225.4135505966551136 [Eh]

	 ================> DF-SCS-MP2 Energies <==================
	-----------------------------------------------------------
	 SCS Same-Spin Scale       =       0.3333333333333333 [-]
	 SCS Opposite-Spin Scale   =       1.2000000000000000 [-]
	 SCS Same-Spin Energy      =      -0.1117086570610378 [Eh]
	 SCS Opposite-Spin Energy  =      -1.1088813953504173 [Eh]
	 SCS Correlation Energy    =      -1.2205900524114552 [Eh]
	 SCS Total Energy          =   -5225.3749468484247700 [Eh]
	-----------------------------------------------------------

*** Psi4 exiting successfully. Buy a developer a beer!
