                               Psi4 1.4a2.dev224

  ==> Input File <==

--------------------------------------------------------------------------
#Generated by lconvert.py for cbs job

memory 40 GB

molecule  {
0 1
 Br       -1.0195800     0.0000080     0.0000000
  C       -2.9461150     0.0000240     0.0000000
  H       -3.2822580     1.0291710    -0.0000010
  H       -3.2822710    -0.5145450     0.8912640
  H       -3.2822710    -0.5145450    -0.8912650
--
0 1
 Br        4.6853730     0.0000170    -0.0000040
  C        2.7590520     0.0000180     0.0000010
  H        2.4208680     1.0287860     0.0000020
  H        2.4208700    -0.5143670     0.8909410
  H        2.4208660    -0.5143660    -0.8909380
units angstrom
no_reorient
symmetry c1
}

set {
scf_type DF
mp2_type DF
e_convergence 7
reference rhf
}

energy('mp2/aug-cc-pv[tq]z', bsse_type='cp')
--------------------------------------------------------------------------

    Molecular point group: c1
  Charge       = 0
  Multiplicity = 1
  Basis Set: AUG-CC-PVTZ
    Blend: AUG-CC-PVTZ
  Basis Set: (AUG-CC-PVTZ AUX)
    Blend: AUG-CC-PVTZ-JKFIT
  @DF-RHF Final Energy: -2612.09289914679675
    Total Energy =                      -2612.0928991467962987
  Basis Set: (AUG-CC-PVTZ AUX)
    Blend: AUG-CC-PVTZ-RI
	 Reference Energy          =   -2612.0928991467967535 [Eh]
	 Singles Energy            =      -0.0000000000000000 [Eh]
	 Same-Spin Energy          =      -0.1267947724471296 [Eh]
	 Opposite-Spin Energy      =      -0.3643977519443481 [Eh]
	 Correlation Energy        =      -0.4911925243914777 [Eh]
	 Total Energy              =   -2612.5840916711881619 [Eh]
	 SCS Total Energy          =   -2612.5724413732791618 [Eh]
    Molecular point group: c1
  Basis Set: AUG-CC-PVQZ
    Blend: AUG-CC-PVQZ
  Basis Set: (AUG-CC-PVQZ AUX)
    Blend: AUG-CC-PVQZ-JKFIT
  @DF-RHF Final Energy: -2612.09806455031958
    Total Energy =                      -2612.0980645503195774
  Basis Set: (AUG-CC-PVQZ AUX)
  @DF-RHF Final Energy: -2612.09291948270584
    Total Energy =                      -2612.0929194827058382
  @DF-RHF Final Energy: -2612.09807113644183
    Total Energy =                      -2612.0980711364418312
  @DF-RHF Final Energy: -2612.09294630191653
    Total Energy =                      -2612.0929463019165269
  @DF-RHF Final Energy: -2612.09808691300714
    Total Energy =                      -2612.0980869130071369
  @DF-RHF Final Energy: -2612.09291206047692
    Total Energy =                      -2612.0929120604769196
  @DF-RHF Final Energy: -2612.09807717159765
    Total Energy =                      -2612.0980771715976516
  Multiplicity = 1
  @DF-RHF Final Energy: -5224.18599915400046
    Total Energy =                      -5224.1859991540004557
	 Singles Energy            =      -0.0000000000000000 [Eh]
	 Same-Spin Energy          =      -0.2552111086827271 [Eh]
	 Opposite-Spin Energy      =      -0.7313305130875077 [Eh]
	 Correlation Energy        =      -0.9865416217702349 [Eh]
	 Total Energy              =   -5225.1725407757703579 [Eh]
	 SCS Total Energy          =   -5225.1486661392664246 [Eh]
    Molecular point group: c1

    Geometry (in Angstrom), charge = 0, multiplicity = 1:

       Center              X                  Y                   Z               Mass
    ------------   -----------------  -----------------  -----------------  -----------------
         BR          -2.533544378392    -0.000005902260     0.000001600192    78.918337600000
         C           -4.460079378392     0.000010097740     0.000001600192    12.000000000000
         H           -4.796222378392     1.029157097740     0.000000600192     1.007825032230
         H           -4.796235378392    -0.514558902260     0.891265600192     1.007825032230
         H           -4.796235378392    -0.514558902260    -0.891263399808     1.007825032230
         BR           3.171408621608     0.000003097740    -0.000002399808    78.918337600000
         C            1.245087621608     0.000004097740     0.000002600192    12.000000000000
         H            0.906903621608     1.028772097740     0.000003600192     1.007825032230
         H            0.906905621608    -0.514380902260     0.890942600192     1.007825032230
         H            0.906901621608    -0.514379902260    -0.890936399808     1.007825032230

  Charge       = 0
  Multiplicity = 1
  Basis Set: AUG-CC-PVQZ
    Blend: AUG-CC-PVQZ
  Basis Set: (AUG-CC-PVQZ AUX)
    Blend: AUG-CC-PVQZ-JKFIT

    Orbital Energies [Eh]
    ---------------------

    Doubly Occupied:

       1A   -490.021188     2A   -490.007051     3A    -65.161684
       4A    -65.147509     5A    -58.517074     6A    -58.515705
       7A    -58.515705     8A    -58.502907     9A    -58.501524
      10A    -58.501524    11A    -11.293078    12A    -11.278850
      13A     -9.835011    14A     -9.820808    15A     -7.446476
      16A     -7.440068    17A     -7.440068    18A     -7.432271
      19A     -7.425844    20A     -7.425844    21A     -3.190014
      22A     -3.186630    23A     -3.186630    24A     -3.178340
      25A     -3.178340    26A     -3.175828    27A     -3.172429
      28A     -3.172429    29A     -3.164108    30A     -3.164108
      31A     -1.072340    32A     -1.058099    33A     -0.905369
      34A     -0.890678    35A     -0.620021    36A     -0.620020
      37A     -0.605922    38A     -0.605922    39A     -0.519397
      40A     -0.500570    41A     -0.410886    42A     -0.410886
      43A     -0.396331    44A     -0.396331

  @DF-RHF Final Energy: -5224.19629236584933

   => Energetics <=

    Nuclear Repulsion Energy =            366.8736235185330088
    One-Electron Energy =               -8004.1162284712672772
    Two-Electron Energy =                2413.0463125868836869
    Total Energy =                      -5224.1962923658502405

  Dipole Moment: [D]
     X:    -4.4722      Y:     0.0000      Z:     0.0000     Total:     4.4722

  Basis Set: (AUG-CC-PVQZ AUX)
    Blend: AUG-CC-PVQZ-RI
	 Reference Energy          =   -5224.1962923658493310 [Eh]
	 Singles Energy            =      -0.0000000000000000 [Eh]
	 Same-Spin Energy          =      -0.3238592379437724 [Eh]
	 Opposite-Spin Energy      =      -0.9094912147143488 [Eh]
	 Correlation Energy        =      -1.2333504526581212 [Eh]
	 Total Energy              =   -5225.4296428185070909 [Eh]

	 ================> DF-SCS-MP2 Energies <==================
	-----------------------------------------------------------
	 SCS Same-Spin Scale       =       0.3333333333333333 [-]
	 SCS Opposite-Spin Scale   =       1.2000000000000000 [-]
	 SCS Same-Spin Energy      =      -0.1079530793145908 [Eh]
	 SCS Opposite-Spin Energy  =      -1.0913894576572185 [Eh]
	 SCS Correlation Energy    =      -1.1993425369718094 [Eh]
	 SCS Total Energy          =   -5225.3956349028212571 [Eh]
	-----------------------------------------------------------

*** Psi4 exiting successfully. Buy a developer a beer!
