                               Psi4 1.4a2.dev224

  ==> Input File <==

--------------------------------------------------------------------------
#Generated by lconvert.py for cbs job

memory 20 GB

molecule  {
0 1
 Br      -1.019580    0.000010    0.000000
  C      -2.946110    0.000020    0.000000
  H      -3.282260    1.029170   -0.000000
  H      -3.282270   -0.514550    0.891260
  H      -3.282270   -0.514550   -0.891260
--
0 1
 Br       6.731200    0.000020   -0.000010
  C       4.804880    0.000020   -0.000000
  H       4.466690    1.028790   -0.000000
  H       4.466700   -0.514370    0.890940
  H       4.466690   -0.514370   -0.890940
units angstrom
no_reorient
symmetry c1
}

set {
scf_type DF
mp2_type DF
e_convergence 7
reference rhf
}

energy('mp2/aug-cc-pv[tq]z', bsse_type='cp')
--------------------------------------------------------------------------

    Molecular point group: c1
  Charge       = 0
  Multiplicity = 1
  Basis Set: AUG-CC-PVTZ
    Blend: AUG-CC-PVTZ
  Basis Set: (AUG-CC-PVTZ AUX)
    Blend: AUG-CC-PVTZ-JKFIT
  @DF-RHF Final Energy: -2612.09289903011631
    Total Energy =                      -2612.0928990301163140
  Basis Set: (AUG-CC-PVTZ AUX)
    Blend: AUG-CC-PVTZ-RI
	 Reference Energy          =   -2612.0928990301163140 [Eh]
	 Singles Energy            =      -0.0000000000000000 [Eh]
	 Same-Spin Energy          =      -0.1267947857529901 [Eh]
	 Opposite-Spin Energy      =      -0.3643978226194958 [Eh]
	 Correlation Energy        =      -0.4911926083724859 [Eh]
	 Total Energy              =   -2612.5840916384886441 [Eh]
	 SCS Total Energy          =   -2612.5724413458442541 [Eh]
    Molecular point group: c1
  Basis Set: AUG-CC-PVQZ
    Blend: AUG-CC-PVQZ
  Basis Set: (AUG-CC-PVQZ AUX)
    Blend: AUG-CC-PVQZ-JKFIT
  @DF-RHF Final Energy: -2612.09806442780700
    Total Energy =                      -2612.0980644278070031
  Basis Set: (AUG-CC-PVQZ AUX)
  @DF-RHF Final Energy: -2612.09290097884377
    Total Energy =                      -2612.0929009788433177
  @DF-RHF Final Energy: -2612.09806569847433
    Total Energy =                      -2612.0980656984743291
  @DF-RHF Final Energy: -2612.09291796978277
    Total Energy =                      -2612.0929179697832296
  @DF-RHF Final Energy: -2612.09807854841119
    Total Energy =                      -2612.0980785484111948
  @DF-RHF Final Energy: -2612.09291199678773
    Total Energy =                      -2612.0929119967877341
  @DF-RHF Final Energy: -2612.09807711516851
    Total Energy =                      -2612.0980771151685076
  Multiplicity = 1
  @DF-RHF Final Energy: -5224.18615045481602
    Total Energy =                      -5224.1861504548160156
	 Singles Energy            =      -0.0000000000000000 [Eh]
	 Same-Spin Energy          =      -0.2537626600697009 [Eh]
	 Opposite-Spin Energy      =      -0.7290858168907340 [Eh]
	 Correlation Energy        =      -0.9828484769604349 [Eh]
	 Total Energy              =   -5225.1689989317765139 [Eh]
	 SCS Total Energy          =   -5225.1456409884413006 [Eh]
    Molecular point group: c1

    Geometry (in Angstrom), charge = 0, multiplicity = 1:

       Center              X                  Y                   Z               Mass
    ------------   -----------------  -----------------  -----------------  -----------------
         BR          -3.556458234788    -0.000005799616     0.000004200384    78.918337600000
         C           -5.482988234788     0.000004200384     0.000004200384    12.000000000000
         H           -5.819138234788     1.029154200384     0.000004200384     1.007825032230
         H           -5.819148234788    -0.514565799616     0.891264200384     1.007825032230
         H           -5.819148234788    -0.514565799616    -0.891255799616     1.007825032230
         BR           4.194321765212     0.000004200384    -0.000005799616    78.918337600000
         C            2.268001765212     0.000004200384     0.000004200384    12.000000000000
         H            1.929811765212     1.028774200384     0.000004200384     1.007825032230
         H            1.929821765212    -0.514385799616     0.890944200384     1.007825032230
         H            1.929811765212    -0.514385799616    -0.890935799616     1.007825032230

  Charge       = 0
  Multiplicity = 1
  Basis Set: AUG-CC-PVQZ
    Blend: AUG-CC-PVQZ
  Basis Set: (AUG-CC-PVQZ AUX)
    Blend: AUG-CC-PVQZ-JKFIT

    Orbital Energies [Eh]
    ---------------------

    Doubly Occupied:

       1A   -490.017124     2A   -490.009394     3A    -65.157584
       4A    -65.149844     5A    -58.512985     6A    -58.511599
       7A    -58.511599     8A    -58.505247     9A    -58.503856
      10A    -58.503856    11A    -11.289754    12A    -11.281944
      13A     -9.830883    14A     -9.823137    15A     -7.442361
      16A     -7.435913    17A     -7.435913    18A     -7.434616
      19A     -7.428158    20A     -7.428158    21A     -3.185920
      22A     -3.182513    23A     -3.182513    24A     -3.178181
      25A     -3.174768    26A     -3.174768    27A     -3.174166
      28A     -3.174166    29A     -3.166407    30A     -3.166407
      31A     -1.068481    32A     -1.060633    33A     -0.901286
      34A     -0.893478    35A     -0.616855    36A     -0.616855
      37A     -0.608798    38A     -0.608796    39A     -0.512922
      40A     -0.505204    41A     -0.406506    42A     -0.406506
      43A     -0.398732    44A     -0.398732

  @DF-RHF Final Energy: -5224.19647475449801

   => Energetics <=

    Nuclear Repulsion Energy =            314.6147955151009796
    One-Electron Energy =               -7899.6675277927088246
    Two-Electron Energy =                2360.8562575231103438
    Total Energy =                      -5224.1964747544971033

  Dipole Moment: [D]
     X:    -4.3416      Y:     0.0000      Z:     0.0000     Total:     4.3416

  Basis Set: (AUG-CC-PVQZ AUX)
    Blend: AUG-CC-PVQZ-RI
	 Reference Energy          =   -5224.1964747544980128 [Eh]
	 Singles Energy            =      -0.0000000000000000 [Eh]
	 Same-Spin Energy          =      -0.3226120634903943 [Eh]
	 Opposite-Spin Energy      =      -0.9078246397753118 [Eh]
	 Correlation Energy        =      -1.2304367032657062 [Eh]
	 Total Energy              =   -5225.4269114577637083 [Eh]

	 ================> DF-SCS-MP2 Energies <==================
	-----------------------------------------------------------
	 SCS Same-Spin Scale       =       0.3333333333333333 [-]
	 SCS Opposite-Spin Scale   =       1.2000000000000000 [-]
	 SCS Same-Spin Energy      =      -0.1075373544967981 [Eh]
	 SCS Opposite-Spin Energy  =      -1.0893895677303742 [Eh]
	 SCS Correlation Energy    =      -1.1969269222271723 [Eh]
	 SCS Total Energy          =   -5225.3934016767252615 [Eh]
	-----------------------------------------------------------

*** Psi4 exiting successfully. Buy a developer a beer!
