                               Psi4 1.4a2.dev224

  ==> Input File <==

--------------------------------------------------------------------------
#Generated by lconvert.py for cbs job

memory 40 GB

molecule  {
0 1
 Br       -1.0195800     0.0000080     0.0000000
  C       -2.9461150     0.0000240     0.0000000
  H       -3.2822580     1.0291710    -0.0000010
  H       -3.2822710    -0.5145450     0.8912640
  H       -3.2822710    -0.5145450    -0.8912650
--
0 1
 Br        3.4066020     0.0000160    -0.0000030
  C        1.4802810     0.0000170     0.0000020
  H        1.1420970     1.0287850     0.0000030
  H        1.1420990    -0.5143680     0.8909420
  H        1.1420950    -0.5143670    -0.8909370
units angstrom
no_reorient
symmetry c1
}

set {
scf_type DF
mp2_type DF
e_convergence 7
reference rhf
}

energy('mp2/aug-cc-pv[tq]z', bsse_type='cp')
--------------------------------------------------------------------------

    Molecular point group: c1
  Charge       = 0
  Multiplicity = 1
  Basis Set: AUG-CC-PVTZ
    Blend: AUG-CC-PVTZ
  Basis Set: (AUG-CC-PVTZ AUX)
    Blend: AUG-CC-PVTZ-JKFIT
  @DF-RHF Final Energy: -2612.09289914699275
    Total Energy =                      -2612.0928991469927496
  Basis Set: (AUG-CC-PVTZ AUX)
    Blend: AUG-CC-PVTZ-RI
	 Reference Energy          =   -2612.0928991469927496 [Eh]
	 Singles Energy            =      -0.0000000000000000 [Eh]
	 Same-Spin Energy          =      -0.1267947724460457 [Eh]
	 Opposite-Spin Energy      =      -0.3643977519404876 [Eh]
	 Correlation Energy        =      -0.4911925243865333 [Eh]
	 Total Energy              =   -2612.5840916713791557 [Eh]
	 SCS Total Energy          =   -2612.5724413734701557 [Eh]
    Molecular point group: c1
  Basis Set: AUG-CC-PVQZ
    Blend: AUG-CC-PVQZ
  Basis Set: (AUG-CC-PVQZ AUX)
    Blend: AUG-CC-PVQZ-JKFIT
  @DF-RHF Final Energy: -2612.09806454975978
    Total Energy =                      -2612.0980645497597834
  Basis Set: (AUG-CC-PVQZ AUX)
  @DF-RHF Final Energy: -2612.09294366256700
    Total Energy =                      -2612.0929436625665403
  @DF-RHF Final Energy: -2612.09808065232119
    Total Energy =                      -2612.0980806523207320
  @DF-RHF Final Energy: -2612.09302724336658
    Total Energy =                      -2612.0930272433665777
  @DF-RHF Final Energy: -2612.09810142200968
    Total Energy =                      -2612.0981014220096768
  @DF-RHF Final Energy: -2612.09291206062835
    Total Energy =                      -2612.0929120606278957
  @DF-RHF Final Energy: -2612.09807717189642
    Total Energy =                      -2612.0980771718964206
  Multiplicity = 1
  @DF-RHF Final Energy: -5224.14785656953154
    Total Energy =                      -5224.1478565695306315
	 Singles Energy            =      -0.0000000000000000 [Eh]
	 Same-Spin Energy          =      -0.2636699640980039 [Eh]
	 Opposite-Spin Energy      =      -0.7428367742577618 [Eh]
	 Correlation Energy        =      -1.0065067383557658 [Eh]
	 Total Energy              =   -5225.1543633078872517 [Eh]
	 SCS Total Energy          =   -5225.1271506866733034 [Eh]
    Molecular point group: c1

    Geometry (in Angstrom), charge = 0, multiplicity = 1:

       Center              X                  Y                   Z               Mass
    ------------   -----------------  -----------------  -----------------  -----------------
         BR          -1.894158878392    -0.000005402260     0.000001100192    78.918337600000
         C           -3.820693878392     0.000010597740     0.000001100192    12.000000000000
         H           -4.156836878392     1.029157597740     0.000000100192     1.007825032230
         H           -4.156849878392    -0.514558402260     0.891265100192     1.007825032230
         H           -4.156849878392    -0.514558402260    -0.891263899808     1.007825032230
         BR           2.532023121608     0.000002597740    -0.000001899808    78.918337600000
         C            0.605702121608     0.000003597740     0.000003100192    12.000000000000
         H            0.267518121608     1.028771597740     0.000004100192     1.007825032230
         H            0.267520121608    -0.514381402260     0.890943100192     1.007825032230
         H            0.267516121608    -0.514380402260    -0.890935899808     1.007825032230

  Charge       = 0
  Multiplicity = 1
  Basis Set: AUG-CC-PVQZ
    Blend: AUG-CC-PVQZ
  Basis Set: (AUG-CC-PVQZ AUX)
    Blend: AUG-CC-PVQZ-JKFIT

    Orbital Energies [Eh]
    ---------------------

    Doubly Occupied:

       1A   -490.019721     2A   -490.002879     3A    -65.160967
       4A    -65.143439     5A    -58.516312     6A    -58.514731
       7A    -58.514731     8A    -58.498798     9A    -58.497466
      10A    -58.497466    11A    -11.285394    12A    -11.275828
      13A     -9.835273    14A     -9.816820    15A     -7.447093
      16A     -7.439869    17A     -7.439869    18A     -7.428179
      19A     -7.421941    20A     -7.421941    21A     -3.190668
      22A     -3.186900    23A     -3.186900    24A     -3.177890
      25A     -3.177890    26A     -3.171661    27A     -3.168358
      28A     -3.168358    29A     -3.160307    30A     -3.160307
      31A     -1.082694    32A     -1.054154    33A     -0.930767
      34A     -0.873611    35A     -0.620274    36A     -0.620274
      37A     -0.610246    38A     -0.610246    39A     -0.550986
      40A     -0.460582    41A     -0.417798    42A     -0.417798
      43A     -0.388319    44A     -0.388319

  @DF-RHF Final Energy: -5224.15810416186650

   => Energetics <=

    Nuclear Repulsion Energy =            428.8040408329176216
    One-Electron Energy =               -8128.0162464536888365
    Two-Electron Energy =                2475.0541014589043698
    Total Energy =                      -5224.1581041618665040

  Dipole Moment: [D]
     X:    -4.2058      Y:     0.0000      Z:     0.0000     Total:     4.2058

  Basis Set: (AUG-CC-PVQZ AUX)
    Blend: AUG-CC-PVQZ-RI
	 Reference Energy          =   -5224.1581041618665040 [Eh]
	 Singles Energy            =      -0.0000000000000000 [Eh]
	 Same-Spin Energy          =      -0.3320914212894280 [Eh]
	 Opposite-Spin Energy      =      -0.9202617749193377 [Eh]
	 Correlation Energy        =      -1.2523531962087657 [Eh]
	 Total Energy              =   -5225.4104573580752913 [Eh]

	 ================> DF-SCS-MP2 Energies <==================
	-----------------------------------------------------------
	 SCS Same-Spin Scale       =       0.3333333333333333 [-]
	 SCS Opposite-Spin Scale   =       1.2000000000000000 [-]
	 SCS Same-Spin Energy      =      -0.1106971404298093 [Eh]
	 SCS Opposite-Spin Energy  =      -1.1043141299032051 [Eh]
	 SCS Correlation Energy    =      -1.2150112703330145 [Eh]
	 SCS Total Energy          =   -5225.3731154321994836 [Eh]
	-----------------------------------------------------------

*** Psi4 exiting successfully. Buy a developer a beer!
