                               Psi4 1.4a2.dev224

  ==> Input File <==

--------------------------------------------------------------------------
#Generated by lconvert.py for cbs job

memory 20 GB

molecule  {
0 1
 Br      -1.019580    0.000010    0.000000
  C      -2.946110    0.000020    0.000000
  H      -3.282260    1.029170   -0.000000
  H      -3.282270   -0.514550    0.891260
  H      -3.282270   -0.514550   -0.891260
--
0 1
 Br       7.851830    0.000020   -0.000010
  C       5.925510    0.000020   -0.000010
  H       5.587320    1.028790   -0.000010
  H       5.587320   -0.514370    0.890930
  H       5.587320   -0.514370   -0.890950
units angstrom
no_reorient
symmetry c1
}

set {
scf_type DF
mp2_type DF
e_convergence 7
reference rhf
}

energy('mp2/aug-cc-pv[tq]z', bsse_type='cp')
--------------------------------------------------------------------------

    Molecular point group: c1
  Charge       = 0
  Multiplicity = 1
  Basis Set: AUG-CC-PVTZ
    Blend: AUG-CC-PVTZ
  Basis Set: (AUG-CC-PVTZ AUX)
    Blend: AUG-CC-PVTZ-JKFIT
  @DF-RHF Final Energy: -2612.09289899296800
    Total Energy =                      -2612.0928989929680029
  Basis Set: (AUG-CC-PVTZ AUX)
    Blend: AUG-CC-PVTZ-RI
	 Reference Energy          =   -2612.0928989929680029 [Eh]
	 Singles Energy            =      -0.0000000000000000 [Eh]
	 Same-Spin Energy          =      -0.1267947816744149 [Eh]
	 Opposite-Spin Energy      =      -0.3643978405177868 [Eh]
	 Correlation Energy        =      -0.4911926221922017 [Eh]
	 Total Energy              =   -2612.5840916151601050 [Eh]
	 SCS Total Energy          =   -2612.5724413288139658 [Eh]
    Molecular point group: c1
  Basis Set: AUG-CC-PVQZ
    Blend: AUG-CC-PVQZ
  Basis Set: (AUG-CC-PVQZ AUX)
    Blend: AUG-CC-PVQZ-JKFIT
  @DF-RHF Final Energy: -2612.09806438925443
    Total Energy =                      -2612.0980643892544322
  Basis Set: (AUG-CC-PVQZ AUX)
  @DF-RHF Final Energy: -2612.09289967722498
    Total Energy =                      -2612.0928996772249775
  @DF-RHF Final Energy: -2612.09806509661394
    Total Energy =                      -2612.0980650966139365
  @DF-RHF Final Energy: -2612.09291497118966
    Total Energy =                      -2612.0929149711892023
  @DF-RHF Final Energy: -2612.09807766836093
    Total Energy =                      -2612.0980776683609292
  @DF-RHF Final Energy: -2612.09291199698828
    Total Energy =                      -2612.0929119969887324
  @DF-RHF Final Energy: -2612.09807711607345
    Total Energy =                      -2612.0980771160734548
  Multiplicity = 1
  @DF-RHF Final Energy: -5224.18605143352579
    Total Energy =                      -5224.1860514335257903
	 Singles Energy            =      -0.0000000000000000 [Eh]
	 Same-Spin Energy          =      -0.2536445690660136 [Eh]
	 Opposite-Spin Energy      =      -0.7288647745156729 [Eh]
	 Correlation Energy        =      -0.9825093435816865 [Eh]
	 Total Energy              =   -5225.1685607771078139 [Eh]
	 SCS Total Energy          =   -5225.1452373526335577 [Eh]
    Molecular point group: c1

    Geometry (in Angstrom), charge = 0, multiplicity = 1:

       Center              X                  Y                   Z               Mass
    ------------   -----------------  -----------------  -----------------  -----------------
         BR          -4.116773181147    -0.000005799616     0.000005000000    78.918337600000
         C           -6.043303181147     0.000004200384     0.000005000000    12.000000000000
         H           -6.379453181147     1.029154200384     0.000005000000     1.007825032230
         H           -6.379463181147    -0.514565799616     0.891265000000     1.007825032230
         H           -6.379463181147    -0.514565799616    -0.891255000000     1.007825032230
         BR           4.754636818853     0.000004200384    -0.000005000000    78.918337600000
         C            2.828316818853     0.000004200384    -0.000005000000    12.000000000000
         H            2.490126818853     1.028774200384    -0.000005000000     1.007825032230
         H            2.490126818853    -0.514385799616     0.890935000000     1.007825032230
         H            2.490126818853    -0.514385799616    -0.890945000000     1.007825032230

  Charge       = 0
  Multiplicity = 1
  Basis Set: AUG-CC-PVQZ
    Blend: AUG-CC-PVQZ
  Basis Set: (AUG-CC-PVQZ AUX)
    Blend: AUG-CC-PVQZ-JKFIT

    Orbital Energies [Eh]
    ---------------------

    Doubly Occupied:

       1A   -490.015946     2A   -490.010088     3A    -65.156401
       4A    -65.150537     5A    -58.511804     6A    -58.510413
       7A    -58.510413     8A    -58.505941     9A    -58.504547
      10A    -58.504547    11A    -11.288758    12A    -11.282812
      13A     -9.829696    14A     -9.823827    15A     -7.441178
      16A     -7.435311    17A     -7.434719    18A     -7.434719
      19A     -7.428845    20A     -7.428845    21A     -3.184741
      22A     -3.181329    23A     -3.181329    24A     -3.178878
      25A     -3.175461    26A     -3.175461    27A     -3.172968
      28A     -3.172968    29A     -3.167090    30A     -3.167090
      31A     -1.067388    32A     -1.061395    33A     -0.900224
      34A     -0.894289    35A     -0.615912    36A     -0.615912
      37A     -0.609672    38A     -0.609671    39A     -0.511744
      40A     -0.505970    41A     -0.405317    42A     -0.405317
      43A     -0.399412    44A     -0.399412

  @DF-RHF Final Energy: -5224.19637866436278

   => Energetics <=

    Nuclear Repulsion Energy =            296.8949862029008386
    One-Electron Energy =               -7864.2461530052951275
    Two-Electron Energy =                2343.1547881380315630
    Total Energy =                      -5224.1963786643627827

  Dipole Moment: [D]
     X:    -4.3055      Y:     0.0000      Z:     0.0000     Total:     4.3055

  Basis Set: (AUG-CC-PVQZ AUX)
    Blend: AUG-CC-PVQZ-RI
	 Reference Energy          =   -5224.1963786643627827 [Eh]
	 Singles Energy            =      -0.0000000000000000 [Eh]
	 Same-Spin Energy          =      -0.3225183539478030 [Eh]
	 Opposite-Spin Energy      =      -0.9076890688470972 [Eh]
	 Correlation Energy        =      -1.2302074227949003 [Eh]
	 Total Energy              =   -5225.4265860871573750 [Eh]

	 ================> DF-SCS-MP2 Energies <==================
	-----------------------------------------------------------
	 SCS Same-Spin Scale       =       0.3333333333333333 [-]
	 SCS Opposite-Spin Scale   =       1.2000000000000000 [-]
	 SCS Same-Spin Energy      =      -0.1075061179826010 [Eh]
	 SCS Opposite-Spin Energy  =      -1.0892268826165166 [Eh]
	 SCS Correlation Energy    =      -1.1967330005991175 [Eh]
	 SCS Total Energy          =   -5225.3931116649619071 [Eh]
	-----------------------------------------------------------

*** Psi4 exiting successfully. Buy a developer a beer!
