                               Psi4 1.4a2.dev224

  ==> Input File <==

--------------------------------------------------------------------------
#Generated by lconvert.py for cbs job

memory 20 GB

molecule  {
0 1
 Br      -1.019580    0.000010    0.000000
  C      -2.946110    0.000020    0.000000
  H      -3.282260    1.029170   -0.000000
  H      -3.282270   -0.514550    0.891260
  H      -3.282270   -0.514550   -0.891260
--
0 1
 Br       5.610570    0.000020   -0.000010
  C       3.684250    0.000020   -0.000000
  H       3.346060    1.028790    0.000000
  H       3.346070   -0.514370    0.890940
  H       3.346060   -0.514370   -0.890940
units angstrom
no_reorient
symmetry c1
}

set {
scf_type DF
mp2_type DF
e_convergence 7
reference rhf
}

energy('mp2/aug-cc-pv[tq]z', bsse_type='cp')
--------------------------------------------------------------------------

    Molecular point group: c1
  Charge       = 0
  Multiplicity = 1
  Basis Set: AUG-CC-PVTZ
    Blend: AUG-CC-PVTZ
  Basis Set: (AUG-CC-PVTZ AUX)
    Blend: AUG-CC-PVTZ-JKFIT
  @DF-RHF Final Energy: -2612.09289903032231
    Total Energy =                      -2612.0928990303218598
  Basis Set: (AUG-CC-PVTZ AUX)
    Blend: AUG-CC-PVTZ-RI
	 Reference Energy          =   -2612.0928990303223145 [Eh]
	 Singles Energy            =      -0.0000000000000000 [Eh]
	 Same-Spin Energy          =      -0.1267947857538820 [Eh]
	 Opposite-Spin Energy      =      -0.3643978226220620 [Eh]
	 Correlation Energy        =      -0.4911926083759440 [Eh]
	 Total Energy              =   -2612.5840916386982826 [Eh]
	 SCS Total Energy          =   -2612.5724413460534379 [Eh]
    Molecular point group: c1
  Basis Set: AUG-CC-PVQZ
    Blend: AUG-CC-PVQZ
  Basis Set: (AUG-CC-PVQZ AUX)
    Blend: AUG-CC-PVQZ-JKFIT
  @DF-RHF Final Energy: -2612.09806442771105
    Total Energy =                      -2612.0980644277110514
  Basis Set: (AUG-CC-PVQZ AUX)
  @DF-RHF Final Energy: -2612.09290569844779
    Total Energy =                      -2612.0929056984477938
  @DF-RHF Final Energy: -2612.09806777796166
    Total Energy =                      -2612.0980677779621146
  @DF-RHF Final Energy: -2612.09292682049909
    Total Energy =                      -2612.0929268204990876
  @DF-RHF Final Energy: -2612.09808102987517
    Total Energy =                      -2612.0980810298751749
  @DF-RHF Final Energy: -2612.09291199644258
    Total Energy =                      -2612.0929119964430356
  @DF-RHF Final Energy: -2612.09807711570147
    Total Energy =                      -2612.0980771157010167
  Multiplicity = 1
  @DF-RHF Final Energy: -5224.18629297474490
    Total Energy =                      -5224.1862929747449016
	 Singles Energy            =      -0.0000000000000000 [Eh]
	 Same-Spin Energy          =      -0.2541984414448945 [Eh]
	 Opposite-Spin Energy      =      -0.7298631598804743 [Eh]
	 Correlation Energy        =      -0.9840616013253688 [Eh]
	 Total Energy              =   -5225.1703545760701672 [Eh]
	 SCS Total Energy          =   -5225.1468615804160436 [Eh]
    Molecular point group: c1

    Geometry (in Angstrom), charge = 0, multiplicity = 1:

       Center              X                  Y                   Z               Mass
    ------------   -----------------  -----------------  -----------------  -----------------
         BR          -2.996143234788    -0.000005799616     0.000004200384    78.918337600000
         C           -4.922673234788     0.000004200384     0.000004200384    12.000000000000
         H           -5.258823234788     1.029154200384     0.000004200384     1.007825032230
         H           -5.258833234788    -0.514565799616     0.891264200384     1.007825032230
         H           -5.258833234788    -0.514565799616    -0.891255799616     1.007825032230
         BR           3.634006765212     0.000004200384    -0.000005799616    78.918337600000
         C            1.707686765212     0.000004200384     0.000004200384    12.000000000000
         H            1.369496765212     1.028774200384     0.000004200384     1.007825032230
         H            1.369506765212    -0.514385799616     0.890944200384     1.007825032230
         H            1.369496765212    -0.514385799616    -0.890935799616     1.007825032230

  Charge       = 0
  Multiplicity = 1
  Basis Set: AUG-CC-PVQZ
    Blend: AUG-CC-PVQZ
  Basis Set: (AUG-CC-PVQZ AUX)
    Blend: AUG-CC-PVQZ-JKFIT

    Orbital Energies [Eh]
    ---------------------

    Doubly Occupied:

       1A   -490.018988     2A   -490.008367     3A    -65.159458
       4A    -65.148820     5A    -58.514855     6A    -58.513476
       7A    -58.513476     8A    -58.504221     9A    -58.502833
      10A    -58.502833    11A    -11.291322    12A    -11.280616
      13A     -9.832762    14A     -9.822115    15A     -7.444235
      16A     -7.437805    17A     -7.437805    18A     -7.433588
      19A     -7.427142    20A     -7.427142    21A     -3.187786
      22A     -3.184389    23A     -3.184389    24A     -3.177150
      25A     -3.176066    26A     -3.176066    27A     -3.173743
      28A     -3.173743    29A     -3.165397    30A     -3.165397
      31A     -1.070206    32A     -1.059496    33A     -0.902975
      34A     -0.892272    35A     -0.618325    36A     -0.618324
      37A     -0.607476    38A     -0.607474    39A     -0.514955
      40A     -0.503939    41A     -0.408398    42A     -0.408398
      43A     -0.397717    44A     -0.397716

  @DF-RHF Final Energy: -5224.19660772166844

   => Energetics <=

    Nuclear Repulsion Energy =            338.8398020129430961
    One-Electron Energy =               -7948.0855390234974038
    Two-Electron Energy =                2385.0491292888850694
    Total Energy =                      -5224.1966077216693520

  Dipole Moment: [D]
     X:    -4.4022      Y:     0.0000      Z:     0.0000     Total:     4.4022

  Basis Set: (AUG-CC-PVQZ AUX)
    Blend: AUG-CC-PVQZ-RI
	 Reference Energy          =   -5224.1966077216684425 [Eh]
	 Singles Energy            =      -0.0000000000000000 [Eh]
	 Same-Spin Energy          =      -0.3228989180019329 [Eh]
	 Opposite-Spin Energy      =      -0.9082099018894081 [Eh]
	 Correlation Energy        =      -1.2311088198913409 [Eh]
	 Total Energy              =   -5225.4277165415596755 [Eh]

	 ================> DF-SCS-MP2 Energies <==================
	-----------------------------------------------------------
	 SCS Same-Spin Scale       =       0.3333333333333333 [-]
	 SCS Opposite-Spin Scale   =       1.2000000000000000 [-]
	 SCS Same-Spin Energy      =      -0.1076329726673110 [Eh]
	 SCS Opposite-Spin Energy  =      -1.0898518822672896 [Eh]
	 SCS Correlation Energy    =      -1.1974848549346007 [Eh]
	 SCS Total Energy          =   -5225.3940925766028158 [Eh]
	-----------------------------------------------------------

*** Psi4 exiting successfully. Buy a developer a beer!
