                               Psi4 1.4a2.dev224

  ==> Input File <==

--------------------------------------------------------------------------
#Generated by lconvert.py for cbs job

memory 40 GB

molecule  {
0 1
 Br       -1.0195800     0.0000080     0.0000000
  C       -2.9461150     0.0000240     0.0000000
  H       -3.2822580     1.0291710    -0.0000010
  H       -3.2822710    -0.5145450     0.8912640
  H       -3.2822710    -0.5145450    -0.8912650
--
0 1
 Br        4.1458980     0.0000170    -0.0000040
  C        2.2195770     0.0000180     0.0000010
  H        1.8813930     1.0287860     0.0000020
  H        1.8813950    -0.5143670     0.8909410
  H        1.8813910    -0.5143660    -0.8909380
units angstrom
no_reorient
symmetry c1
}

set {
scf_type DF
mp2_type DF
e_convergence 7
reference rhf
}

energy('mp2/aug-cc-pv[tq]z', bsse_type='cp')
--------------------------------------------------------------------------

    Molecular point group: c1
  Charge       = 0
  Multiplicity = 1
  Basis Set: AUG-CC-PVTZ
    Blend: AUG-CC-PVTZ
  Basis Set: (AUG-CC-PVTZ AUX)
    Blend: AUG-CC-PVTZ-JKFIT
  @DF-RHF Final Energy: -2612.09289914712008
    Total Energy =                      -2612.0928991471200789
  Basis Set: (AUG-CC-PVTZ AUX)
    Blend: AUG-CC-PVTZ-RI
	 Reference Energy          =   -2612.0928991471200789 [Eh]
	 Singles Energy            =      -0.0000000000000000 [Eh]
	 Same-Spin Energy          =      -0.1267947724470082 [Eh]
	 Opposite-Spin Energy      =      -0.3643977519429972 [Eh]
	 Correlation Energy        =      -0.4911925243900054 [Eh]
	 Total Energy              =   -2612.5840916715101230 [Eh]
	 SCS Total Energy          =   -2612.5724413736006682 [Eh]
    Molecular point group: c1
  Basis Set: AUG-CC-PVQZ
    Blend: AUG-CC-PVQZ
  Basis Set: (AUG-CC-PVQZ AUX)
    Blend: AUG-CC-PVQZ-JKFIT
  @DF-RHF Final Energy: -2612.09806454991121
    Total Energy =                      -2612.0980645499112143
  Basis Set: (AUG-CC-PVQZ AUX)
  @DF-RHF Final Energy: -2612.09292632389770
    Total Energy =                      -2612.0929263238981548
  @DF-RHF Final Energy: -2612.09807507710002
    Total Energy =                      -2612.0980750771004750
  @DF-RHF Final Energy: -2612.09297678970961
    Total Energy =                      -2612.0929767897096099
  @DF-RHF Final Energy: -2612.09809224381388
    Total Energy =                      -2612.0980922438138805
  @DF-RHF Final Energy: -2612.09291206050466
    Total Energy =                      -2612.0929120605046592
  @DF-RHF Final Energy: -2612.09807717158583
    Total Energy =                      -2612.0980771715858282
  Multiplicity = 1
  @DF-RHF Final Energy: -5224.18328312524773
    Total Energy =                      -5224.1832831252486358
	 Singles Energy            =      -0.0000000000000000 [Eh]
	 Same-Spin Energy          =      -0.2568294118042229 [Eh]
	 Opposite-Spin Energy      =      -0.7335959123051343 [Eh]
	 Correlation Energy        =      -0.9904253241093572 [Eh]
	 Total Energy              =   -5225.1737084493570364 [Eh]
	 SCS Total Energy          =   -5225.1492080239486313 [Eh]
    Molecular point group: c1

    Geometry (in Angstrom), charge = 0, multiplicity = 1:

       Center              X                  Y                   Z               Mass
    ------------   -----------------  -----------------  -----------------  -----------------
         BR          -2.263806878392    -0.000005902260     0.000001600192    78.918337600000
         C           -4.190341878392     0.000010097740     0.000001600192    12.000000000000
         H           -4.526484878392     1.029157097740     0.000000600192     1.007825032230
         H           -4.526497878392    -0.514558902260     0.891265600192     1.007825032230
         H           -4.526497878392    -0.514558902260    -0.891263399808     1.007825032230
         BR           2.901671121608     0.000003097740    -0.000002399808    78.918337600000
         C            0.975350121608     0.000004097740     0.000002600192    12.000000000000
         H            0.637166121608     1.028772097740     0.000003600192     1.007825032230
         H            0.637168121608    -0.514380902260     0.890942600192     1.007825032230
         H            0.637164121608    -0.514379902260    -0.890936399808     1.007825032230

  Charge       = 0
  Multiplicity = 1
  Basis Set: AUG-CC-PVQZ
    Blend: AUG-CC-PVQZ
  Basis Set: (AUG-CC-PVQZ AUX)
    Blend: AUG-CC-PVQZ-JKFIT

    Orbital Energies [Eh]
    ---------------------

    Doubly Occupied:

       1A   -490.022155     2A   -490.005846     3A    -65.162735
       4A    -65.146315     5A    -58.518112     6A    -58.516738
       7A    -58.516738     8A    -58.501708     9A    -58.500333
      10A    -58.500333    11A    -11.293392    12A    -11.277344
      13A     -9.836159    14A     -9.819622    15A     -7.447631
      16A     -7.441197    17A     -7.441197    18A     -7.431069
      19A     -7.424674    20A     -7.424674    21A     -3.191160
      22A     -3.187763    23A     -3.187763    24A     -3.179464
      25A     -3.179464    26A     -3.174615    27A     -3.171232
      28A     -3.171232    29A     -3.162954    30A     -3.162954
      31A     -1.073871    32A     -1.057078    33A     -0.908787
      34A     -0.888429    35A     -0.620669    36A     -0.620669
      37A     -0.605371    38A     -0.605371    39A     -0.526897
      40A     -0.493396    41A     -0.412992    42A     -0.412992
      43A     -0.394774    44A     -0.394774

  @DF-RHF Final Energy: -5224.19355617955534

   => Energetics <=

    Nuclear Repulsion Energy =            388.5802925931939740
    One-Electron Energy =               -8047.5224353339872323
    Two-Electron Energy =                2434.7485865612379712
    Total Energy =                      -5224.1935561795553440

  Dipole Moment: [D]
     X:    -4.4866      Y:     0.0000      Z:     0.0000     Total:     4.4866

  Basis Set: (AUG-CC-PVQZ AUX)
    Blend: AUG-CC-PVQZ-RI
	 Reference Energy          =   -5224.1935561795553440 [Eh]
	 Singles Energy            =      -0.0000000000000000 [Eh]
	 Same-Spin Energy          =      -0.3254685709624343 [Eh]
	 Opposite-Spin Energy      =      -0.9116291053390607 [Eh]
	 Correlation Energy        =      -1.2370976763014951 [Eh]
	 Total Energy              =   -5225.4306538558566899 [Eh]

	 ================> DF-SCS-MP2 Energies <==================
	-----------------------------------------------------------
	 SCS Same-Spin Scale       =       0.3333333333333333 [-]
	 SCS Opposite-Spin Scale   =       1.2000000000000000 [-]
	 SCS Same-Spin Energy      =      -0.1084895236541448 [Eh]
	 SCS Opposite-Spin Energy  =      -1.0939549264068729 [Eh]
	 SCS Correlation Energy    =      -1.2024444500610176 [Eh]
	 SCS Total Energy          =   -5225.3960006296165375 [Eh]
	-----------------------------------------------------------

*** Psi4 exiting successfully. Buy a developer a beer!
