                               Psi4 1.4a2.dev224

  ==> Input File <==

--------------------------------------------------------------------------
#Generated by lconvert.py for cbs job

memory 40 GB

molecule  {
0 1
 Br       -1.0195800     0.0000080     0.0000000
  C       -2.9461150     0.0000240     0.0000000
  H       -3.2822580     1.0291710    -0.0000010
  H       -3.2822710    -0.5145450     0.8912640
  H       -3.2822710    -0.5145450    -0.8912650
--
0 1
 Br        3.7801450     0.0000160    -0.0000040
  C        1.8538240     0.0000170     0.0000010
  H        1.5156400     1.0287850     0.0000020
  H        1.5156420    -0.5143680     0.8909410
  H        1.5156380    -0.5143670    -0.8909380
units angstrom
no_reorient
symmetry c1
}

set {
scf_type DF
mp2_type DF
e_convergence 7
reference rhf
}

energy('mp2/aug-cc-pv[tq]z', bsse_type='cp')
--------------------------------------------------------------------------

    Molecular point group: c1
  Charge       = 0
  Multiplicity = 1
  Basis Set: AUG-CC-PVTZ
    Blend: AUG-CC-PVTZ
  Basis Set: (AUG-CC-PVTZ AUX)
    Blend: AUG-CC-PVTZ-JKFIT
  @DF-RHF Final Energy: -2612.09289914698229
    Total Energy =                      -2612.0928991469827452
  Basis Set: (AUG-CC-PVTZ AUX)
    Blend: AUG-CC-PVTZ-RI
	 Reference Energy          =   -2612.0928991469822904 [Eh]
	 Singles Energy            =      -0.0000000000000000 [Eh]
	 Same-Spin Energy          =      -0.1267947724470529 [Eh]
	 Opposite-Spin Energy      =      -0.3643977519437881 [Eh]
	 Correlation Energy        =      -0.4911925243908409 [Eh]
	 Total Energy              =   -2612.5840916713732440 [Eh]
	 SCS Total Energy          =   -2612.5724413734637892 [Eh]
    Molecular point group: c1
  Basis Set: AUG-CC-PVQZ
    Blend: AUG-CC-PVQZ
  Basis Set: (AUG-CC-PVQZ AUX)
    Blend: AUG-CC-PVQZ-JKFIT
  @DF-RHF Final Energy: -2612.09806455012449
    Total Energy =                      -2612.0980645501244908
  Basis Set: (AUG-CC-PVQZ AUX)
  @DF-RHF Final Energy: -2612.09293329425964
    Total Energy =                      -2612.0929332942596375
  @DF-RHF Final Energy: -2612.09807759441537
    Total Energy =                      -2612.0980775944153720
  @DF-RHF Final Energy: -2612.09300142087523
    Total Energy =                      -2612.0930014208752254
  @DF-RHF Final Energy: -2612.09809603860958
    Total Energy =                      -2612.0980960386095830
  @DF-RHF Final Energy: -2612.09291206079706
    Total Energy =                      -2612.0929120607970617
  @DF-RHF Final Energy: -2612.09807717171680
    Total Energy =                      -2612.0980771717167954
  Multiplicity = 1
  @DF-RHF Final Energy: -5224.17516808587970
    Total Energy =                      -5224.1751680858787950
	 Singles Energy            =      -0.0000000000000000 [Eh]
	 Same-Spin Energy          =      -0.2591831192997720 [Eh]
	 Opposite-Spin Energy      =      -0.7368085628542018 [Eh]
	 Correlation Energy        =      -0.9959916821539738 [Eh]
	 Total Energy              =   -5225.1711597680332488 [Eh]
	 SCS Total Energy          =   -5225.1457327344051009 [Eh]
    Molecular point group: c1

    Geometry (in Angstrom), charge = 0, multiplicity = 1:

       Center              X                  Y                   Z               Mass
    ------------   -----------------  -----------------  -----------------  -----------------
         BR          -2.080930378392    -0.000005402260     0.000001600192    78.918337600000
         C           -4.007465378392     0.000010597740     0.000001600192    12.000000000000
         H           -4.343608378392     1.029157597740     0.000000600192     1.007825032230
         H           -4.343621378392    -0.514558402260     0.891265600192     1.007825032230
         H           -4.343621378392    -0.514558402260    -0.891263399808     1.007825032230
         BR           2.718794621608     0.000002597740    -0.000002399808    78.918337600000
         C            0.792473621608     0.000003597740     0.000002600192    12.000000000000
         H            0.454289621608     1.028771597740     0.000003600192     1.007825032230
         H            0.454291621608    -0.514381402260     0.890942600192     1.007825032230
         H            0.454287621608    -0.514380402260    -0.890936399808     1.007825032230

  Charge       = 0
  Multiplicity = 1
  Basis Set: AUG-CC-PVQZ
    Blend: AUG-CC-PVQZ
  Basis Set: (AUG-CC-PVQZ AUX)
    Blend: AUG-CC-PVQZ-JKFIT

    Orbital Energies [Eh]
    ---------------------

    Doubly Occupied:

       1A   -490.021809     2A   -490.004630     3A    -65.162575
       4A    -65.145125     5A    -58.517936     6A    -58.516520
       7A    -58.516520     8A    -58.500507     9A    -58.499147
      10A    -58.499147    11A    -11.291715    12A    -11.276222
      13A     -9.836227    14A     -9.818452    15A     -7.447761
      16A     -7.441167    17A     -7.441167    18A     -7.429870
      19A     -7.423528    20A     -7.423528    21A     -3.191288
      22A     -3.187819    23A     -3.187819    24A     -3.179386
      25A     -3.179386    26A     -3.173397    27A     -3.170040
      28A     -3.170040    29A     -3.161836    30A     -3.161836
      31A     -1.075623    32A     -1.056261    33A     -0.915268
      34A     -0.884081    35A     -0.620158    36A     -0.620158
      37A     -0.606545    38A     -0.606545    39A     -0.536491
      40A     -0.482362    41A     -0.414961    42A     -0.414961
      43A     -0.392681    44A     -0.392681

  @DF-RHF Final Energy: -5224.18542641192471

   => Energetics <=

    Nuclear Repulsion Energy =            406.6054394605456537
    One-Electron Energy =               -8083.5913831429379570
    Two-Electron Energy =                2452.8005172704670258
    Total Energy =                      -5224.1854264119256186

  Dipole Moment: [D]
     X:    -4.4279      Y:     0.0000      Z:     0.0000     Total:     4.4279

  Basis Set: (AUG-CC-PVQZ AUX)
    Blend: AUG-CC-PVQZ-RI
	 Reference Energy          =   -5224.1854264119247091 [Eh]
	 Singles Energy            =      -0.0000000000000000 [Eh]
	 Same-Spin Energy          =      -0.3277722339519251 [Eh]
	 Opposite-Spin Energy      =      -0.9147031287126934 [Eh]
	 Correlation Energy        =      -1.2424753626646186 [Eh]
	 Total Energy              =   -5225.4279017745893725 [Eh]

	 ================> DF-SCS-MP2 Energies <==================
	-----------------------------------------------------------
	 SCS Same-Spin Scale       =       0.3333333333333333 [-]
	 SCS Opposite-Spin Scale   =       1.2000000000000000 [-]
	 SCS Same-Spin Energy      =      -0.1092574113173083 [Eh]
	 SCS Opposite-Spin Energy  =      -1.0976437544552320 [Eh]
	 SCS Correlation Energy    =      -1.2069011657725404 [Eh]
	 SCS Total Energy          =   -5225.3923275776969604 [Eh]
	-----------------------------------------------------------

*** Psi4 exiting successfully. Buy a developer a beer!
