                               Psi4 1.4a2.dev224

  ==> Input File <==

--------------------------------------------------------------------------
#Generated by lconvert.py for cbs job

memory 40 GB

molecule  {
0 1
 Br       -1.0195800     0.0000080     0.0000000
  C       -2.9461150     0.0000240     0.0000000
  H       -3.2822580     1.0291710    -0.0000010
  H       -3.2822710    -0.5145450     0.8912640
  H       -3.2822710    -0.5145450    -0.8912650
--
0 1
 Br        4.8634840     0.0000170    -0.0000040
  C        2.9371630     0.0000180     0.0000010
  H        2.5989790     1.0287860     0.0000020
  H        2.5989810    -0.5143670     0.8909410
  H        2.5989770    -0.5143660    -0.8909380
units angstrom
no_reorient
symmetry c1
}

set {
scf_type DF
mp2_type DF
e_convergence 7
reference rhf
}

energy('mp2/aug-cc-pv[tq]z', bsse_type='cp')
--------------------------------------------------------------------------

    Molecular point group: c1
  Charge       = 0
  Multiplicity = 1
  Basis Set: AUG-CC-PVTZ
    Blend: AUG-CC-PVTZ
  Basis Set: (AUG-CC-PVTZ AUX)
    Blend: AUG-CC-PVTZ-JKFIT
  @DF-RHF Final Energy: -2612.09289914700867
    Total Energy =                      -2612.0928991470082110
  Basis Set: (AUG-CC-PVTZ AUX)
    Blend: AUG-CC-PVTZ-RI
	 Reference Energy          =   -2612.0928991470086658 [Eh]
	 Singles Energy            =      -0.0000000000000000 [Eh]
	 Same-Spin Energy          =      -0.1267947724468183 [Eh]
	 Opposite-Spin Energy      =      -0.3643977519424784 [Eh]
	 Correlation Energy        =      -0.4911925243892967 [Eh]
	 Total Energy              =   -2612.5840916713978004 [Eh]
	 SCS Total Energy          =   -2612.5724413734888003 [Eh]
    Molecular point group: c1
  Basis Set: AUG-CC-PVQZ
    Blend: AUG-CC-PVQZ
  Basis Set: (AUG-CC-PVQZ AUX)
    Blend: AUG-CC-PVQZ-JKFIT
  @DF-RHF Final Energy: -2612.09806455021635
    Total Energy =                      -2612.0980645502158950
  Basis Set: (AUG-CC-PVQZ AUX)
  @DF-RHF Final Energy: -2612.09291611125855
    Total Energy =                      -2612.0929161112580914
  @DF-RHF Final Energy: -2612.09807048091443
    Total Energy =                      -2612.0980704809144299
  @DF-RHF Final Energy: -2612.09294236756841
    Total Energy =                      -2612.0929423675684120
  @DF-RHF Final Energy: -2612.09808554117808
    Total Energy =                      -2612.0980855411785342
  @DF-RHF Final Energy: -2612.09291206115586
    Total Energy =                      -2612.0929120611558574
  @DF-RHF Final Energy: -2612.09807717192552
    Total Energy =                      -2612.0980771719255245
  Multiplicity = 1
  @DF-RHF Final Energy: -5224.18619831469641
    Total Energy =                      -5224.1861983146955026
	 Singles Energy            =      -0.0000000000000000 [Eh]
	 Same-Spin Energy          =      -0.2549163705621315 [Eh]
	 Opposite-Spin Energy      =      -0.7309134147392948 [Eh]
	 Correlation Energy        =      -0.9858297853014264 [Eh]
	 Total Energy              =   -5225.1720280999979877 [Eh]
	 SCS Total Energy          =   -5225.1482665359044404 [Eh]
    Molecular point group: c1

    Geometry (in Angstrom), charge = 0, multiplicity = 1:

       Center              X                  Y                   Z               Mass
    ------------   -----------------  -----------------  -----------------  -----------------
         BR          -2.622599878392    -0.000005902260     0.000001600192    78.918337600000
         C           -4.549134878392     0.000010097740     0.000001600192    12.000000000000
         H           -4.885277878392     1.029157097740     0.000000600192     1.007825032230
         H           -4.885290878392    -0.514558902260     0.891265600192     1.007825032230
         H           -4.885290878392    -0.514558902260    -0.891263399808     1.007825032230
         BR           3.260464121608     0.000003097740    -0.000002399808    78.918337600000
         C            1.334143121608     0.000004097740     0.000002600192    12.000000000000
         H            0.995959121608     1.028772097740     0.000003600192     1.007825032230
         H            0.995961121608    -0.514380902260     0.890942600192     1.007825032230
         H            0.995957121608    -0.514379902260    -0.890936399808     1.007825032230

  Charge       = 0
  Multiplicity = 1
  Basis Set: AUG-CC-PVQZ
    Blend: AUG-CC-PVQZ
  Basis Set: (AUG-CC-PVQZ AUX)
    Blend: AUG-CC-PVQZ-JKFIT

    Orbital Energies [Eh]
    ---------------------

    Doubly Occupied:

       1A   -490.020746     2A   -490.007357     3A    -65.161232
       4A    -65.147813     5A    -58.516624     6A    -58.515253
       7A    -58.515253     8A    -58.503212     9A    -58.501828
      10A    -58.501828    11A    -11.292751    12A    -11.279261
      13A     -9.834549    14A     -9.821111    15A     -7.446016
      16A     -7.439604    17A     -7.439604    18A     -7.432577
      19A     -7.426145    20A     -7.426145    21A     -3.189557
      22A     -3.186170    23A     -3.186170    24A     -3.177874
      25A     -3.177874    26A     -3.176135    27A     -3.172734
      28A     -3.172734    29A     -3.164406    30A     -3.164406
      31A     -1.071880    32A     -1.058407    33A     -0.904763
      34A     -0.891074    35A     -0.619686    36A     -0.619686
      37A     -0.606238    38A     -0.606238    39A     -0.518036
      40A     -0.501703    41A     -0.410318    42A     -0.410318
      43A     -0.396671    44A     -0.396671

  @DF-RHF Final Energy: -5224.19649540551563

   => Energetics <=

    Nuclear Repulsion Energy =            360.7037966055254401
    One-Electron Energy =               -7991.7832949993580769
    Two-Electron Energy =                2406.8830029883165480
    Total Energy =                      -5224.1964954055156340

  Dipole Moment: [D]
     X:    -4.4591      Y:     0.0000      Z:     0.0000     Total:     4.4591

  Basis Set: (AUG-CC-PVQZ AUX)
    Blend: AUG-CC-PVQZ-RI
	 Reference Energy          =   -5224.1964954055156340 [Eh]
	 Singles Energy            =      -0.0000000000000000 [Eh]
	 Same-Spin Energy          =      -0.3235691533591970 [Eh]
	 Opposite-Spin Energy      =      -0.9091110550009773 [Eh]
	 Correlation Energy        =      -1.2326802083601742 [Eh]
	 Total Energy              =   -5225.4291756138754863 [Eh]

	 ================> DF-SCS-MP2 Energies <==================
	-----------------------------------------------------------
	 SCS Same-Spin Scale       =       0.3333333333333333 [-]
	 SCS Opposite-Spin Scale   =       1.2000000000000000 [-]
	 SCS Same-Spin Energy      =      -0.1078563844530657 [Eh]
	 SCS Opposite-Spin Energy  =      -1.0909332660011728 [Eh]
	 SCS Correlation Energy    =      -1.1987896504542386 [Eh]
	 SCS Total Energy          =   -5225.3952850559699073 [Eh]
	-----------------------------------------------------------

*** Psi4 exiting successfully. Buy a developer a beer!
