                               Psi4 1.4a2.dev224

  ==> Input File <==

--------------------------------------------------------------------------
#Generated by lconvert.py for cbs job

memory 40 GB

molecule  {
0 1
 Br       -1.0195800     0.0000080     0.0000000
  C       -2.9461150     0.0000240     0.0000000
  H       -3.2822580     1.0291710    -0.0000010
  H       -3.2822710    -0.5145450     0.8912640
  H       -3.2822710    -0.5145450    -0.8912650
--
0 1
 Br        4.3267540     0.0000170    -0.0000040
  C        2.4004330     0.0000180     0.0000010
  H        2.0622490     1.0287860     0.0000020
  H        2.0622510    -0.5143670     0.8909410
  H        2.0622470    -0.5143660    -0.8909380
units angstrom
no_reorient
symmetry c1
}

set {
scf_type DF
mp2_type DF
e_convergence 7
reference rhf
}

energy('mp2/aug-cc-pv[tq]z', bsse_type='cp')
--------------------------------------------------------------------------

    Molecular point group: c1
  Charge       = 0
  Multiplicity = 1
  Basis Set: AUG-CC-PVTZ
    Blend: AUG-CC-PVTZ
  Basis Set: (AUG-CC-PVTZ AUX)
    Blend: AUG-CC-PVTZ-JKFIT
  @DF-RHF Final Energy: -2612.09289914695046
    Total Energy =                      -2612.0928991469509128
  Basis Set: (AUG-CC-PVTZ AUX)
    Blend: AUG-CC-PVTZ-RI
	 Reference Energy          =   -2612.0928991469504581 [Eh]
	 Singles Energy            =      -0.0000000000000000 [Eh]
	 Same-Spin Energy          =      -0.1267947724460453 [Eh]
	 Opposite-Spin Energy      =      -0.3643977519411035 [Eh]
	 Correlation Energy        =      -0.4911925243871488 [Eh]
	 Total Energy              =   -2612.5840916713377737 [Eh]
	 SCS Total Energy          =   -2612.5724413734283189 [Eh]
    Molecular point group: c1
  Basis Set: AUG-CC-PVQZ
    Blend: AUG-CC-PVQZ
  Basis Set: (AUG-CC-PVQZ AUX)
    Blend: AUG-CC-PVQZ-JKFIT
  @DF-RHF Final Energy: -2612.09806455030775
    Total Energy =                      -2612.0980645503077540
  Basis Set: (AUG-CC-PVQZ AUX)
  @DF-RHF Final Energy: -2612.09292405669930
    Total Energy =                      -2612.0929240566993030
  @DF-RHF Final Energy: -2612.09807367776466
    Total Energy =                      -2612.0980736777646598
  @DF-RHF Final Energy: -2612.09296331306223
    Total Energy =                      -2612.0929633130617731
  @DF-RHF Final Energy: -2612.09809005132138
    Total Energy =                      -2612.0980900513213783
  @DF-RHF Final Energy: -2612.09291206083799
    Total Energy =                      -2612.0929120608379890
  @DF-RHF Final Energy: -2612.09807717167587
    Total Energy =                      -2612.0980771716758682
  Multiplicity = 1
  @DF-RHF Final Energy: -5224.18479778081291
    Total Energy =                      -5224.1847977808138239
	 Singles Energy            =      -0.0000000000000000 [Eh]
	 Same-Spin Energy          =      -0.2561181410735530 [Eh]
	 Opposite-Spin Energy      =      -0.7326111496746051 [Eh]
	 Correlation Energy        =      -0.9887292907481580 [Eh]
	 Total Energy              =   -5225.1735270715607840 [Eh]
	 SCS Total Energy          =   -5225.1493038741136843 [Eh]
    Molecular point group: c1

    Geometry (in Angstrom), charge = 0, multiplicity = 1:

       Center              X                  Y                   Z               Mass
    ------------   -----------------  -----------------  -----------------  -----------------
         BR          -2.354234878392    -0.000005902260     0.000001600192    78.918337600000
         C           -4.280769878392     0.000010097740     0.000001600192    12.000000000000
         H           -4.616912878392     1.029157097740     0.000000600192     1.007825032230
         H           -4.616925878392    -0.514558902260     0.891265600192     1.007825032230
         H           -4.616925878392    -0.514558902260    -0.891263399808     1.007825032230
         BR           2.992099121608     0.000003097740    -0.000002399808    78.918337600000
         C            1.065778121608     0.000004097740     0.000002600192    12.000000000000
         H            0.727594121608     1.028772097740     0.000003600192     1.007825032230
         H            0.727596121608    -0.514380902260     0.890942600192     1.007825032230
         H            0.727592121608    -0.514379902260    -0.890936399808     1.007825032230

  Charge       = 0
  Multiplicity = 1
  Basis Set: AUG-CC-PVQZ
    Blend: AUG-CC-PVQZ
  Basis Set: (AUG-CC-PVQZ AUX)
    Blend: AUG-CC-PVQZ-JKFIT

    Orbital Energies [Eh]
    ---------------------

    Doubly Occupied:

       1A   -490.021945     2A   -490.006309     3A    -65.162482
       4A    -65.146773     5A    -58.517865     6A    -58.516496
       7A    -58.516496     8A    -58.502168     9A    -58.500790
      10A    -58.500790    11A    -11.293485    12A    -11.277891
      13A     -9.835856    14A     -9.820076    15A     -7.447321
      16A     -7.440907    17A     -7.440907    18A     -7.431530
      19A     -7.425121    20A     -7.425121    21A     -3.190853
      22A     -3.187466    23A     -3.187466    24A     -3.179180
      25A     -3.179180    26A     -3.175081    27A     -3.171691
      28A     -3.171691    29A     -3.163394    30A     -3.163394
      31A     -1.073322    32A     -1.057432    33A     -0.907201
      34A     -0.889480    35A     -0.620562    36A     -0.620561
      37A     -0.605418    38A     -0.605418    39A     -0.523660
      40A     -0.496656    41A     -0.412208    42A     -0.412208
      43A     -0.395422    44A     -0.395422

  @DF-RHF Final Energy: -5224.19507931966655

   => Energetics <=

    Nuclear Repulsion Energy =            380.7359988523581933
    One-Electron Energy =               -8031.8327956293260286
    Two-Electron Energy =                2426.9017174573009470
    Total Energy =                      -5224.1950793196665472

  Dipole Moment: [D]
     X:    -4.4891      Y:     0.0000      Z:     0.0000     Total:     4.4891

  Basis Set: (AUG-CC-PVQZ AUX)
    Blend: AUG-CC-PVQZ-RI
	 Reference Energy          =   -5224.1950793196665472 [Eh]
	 Singles Energy            =      -0.0000000000000000 [Eh]
	 Same-Spin Energy          =      -0.3247545184547787 [Eh]
	 Opposite-Spin Energy      =      -0.9106691399809592 [Eh]
	 Correlation Energy        =      -1.2354236584357379 [Eh]
	 Total Energy              =   -5225.4305029781025951 [Eh]

	 ================> DF-SCS-MP2 Energies <==================
	-----------------------------------------------------------
	 SCS Same-Spin Scale       =       0.3333333333333333 [-]
	 SCS Opposite-Spin Scale   =       1.2000000000000000 [-]
	 SCS Same-Spin Energy      =      -0.1082515061515929 [Eh]
	 SCS Opposite-Spin Energy  =      -1.0928029679771509 [Eh]
	 SCS Correlation Energy    =      -1.2010544741287439 [Eh]
	 SCS Total Energy          =   -5225.3961337937953431 [Eh]
	-----------------------------------------------------------

*** Psi4 exiting successfully. Buy a developer a beer!
