                               Psi4 1.4a2.dev224

  ==> Input File <==

--------------------------------------------------------------------------
#Generated by lconvert.py for cbs job

memory 40 GB

molecule  {
0 1
 Br       -1.0195800     0.0000080     0.0000000
  C       -2.9461150     0.0000240     0.0000000
  H       -3.2822580     1.0291710    -0.0000010
  H       -3.2822710    -0.5145450     0.8912640
  H       -3.2822710    -0.5145450    -0.8912650
--
0 1
 Br        4.5065060     0.0000170    -0.0000040
  C        2.5801850     0.0000180     0.0000010
  H        2.2420010     1.0287860     0.0000020
  H        2.2420030    -0.5143670     0.8909410
  H        2.2419990    -0.5143660    -0.8909380
units angstrom
no_reorient
symmetry c1
}

set {
scf_type DF
mp2_type DF
e_convergence 7
reference rhf
}

energy('mp2/aug-cc-pv[tq]z', bsse_type='cp')
--------------------------------------------------------------------------

    Molecular point group: c1
  Charge       = 0
  Multiplicity = 1
  Basis Set: AUG-CC-PVTZ
    Blend: AUG-CC-PVTZ
  Basis Set: (AUG-CC-PVTZ AUX)
    Blend: AUG-CC-PVTZ-JKFIT
  @DF-RHF Final Energy: -2612.09289914708188
    Total Energy =                      -2612.0928991470814253
  Basis Set: (AUG-CC-PVTZ AUX)
    Blend: AUG-CC-PVTZ-RI
	 Reference Energy          =   -2612.0928991470818801 [Eh]
	 Singles Energy            =      -0.0000000000000000 [Eh]
	 Same-Spin Energy          =      -0.1267947724468201 [Eh]
	 Opposite-Spin Energy      =      -0.3643977519423905 [Eh]
	 Correlation Energy        =      -0.4911925243892107 [Eh]
	 Total Energy              =   -2612.5840916714710147 [Eh]
	 SCS Total Energy          =   -2612.5724413735615599 [Eh]
    Molecular point group: c1
  Basis Set: AUG-CC-PVQZ
    Blend: AUG-CC-PVQZ
  Basis Set: (AUG-CC-PVQZ AUX)
    Blend: AUG-CC-PVQZ-JKFIT
  @DF-RHF Final Energy: -2612.09806454997306
    Total Energy =                      -2612.0980645499730599
  Basis Set: (AUG-CC-PVQZ AUX)
  @DF-RHF Final Energy: -2612.09292203262339
    Total Energy =                      -2612.0929220326233917
  @DF-RHF Final Energy: -2612.09807225726854
    Total Energy =                      -2612.0980722572685409
  @DF-RHF Final Energy: -2612.09295277164574
    Total Energy =                      -2612.0929527716461962
  @DF-RHF Final Energy: -2612.09808829875465
    Total Energy =                      -2612.0980882987551013
  @DF-RHF Final Energy: -2612.09291206077160
    Total Energy =                      -2612.0929120607715959
  @DF-RHF Final Energy: -2612.09807717155627
    Total Energy =                      -2612.0980771715558149
  Multiplicity = 1
  @DF-RHF Final Energy: -5224.18559202734559
    Total Energy =                      -5224.1855920273465017
	 Singles Energy            =      -0.0000000000000000 [Eh]
	 Same-Spin Energy          =      -0.2555983557069920 [Eh]
	 Opposite-Spin Energy      =      -0.7318803703847738 [Eh]
	 Correlation Energy        =      -0.9874787260917658 [Eh]
	 Total Energy              =   -5225.1730707534370595 [Eh]
	 SCS Total Energy          =   -5225.1490479237099862 [Eh]
    Molecular point group: c1

    Geometry (in Angstrom), charge = 0, multiplicity = 1:

       Center              X                  Y                   Z               Mass
    ------------   -----------------  -----------------  -----------------  -----------------
         BR          -2.444110878392    -0.000005902260     0.000001600192    78.918337600000
         C           -4.370645878392     0.000010097740     0.000001600192    12.000000000000
         H           -4.706788878392     1.029157097740     0.000000600192     1.007825032230
         H           -4.706801878392    -0.514558902260     0.891265600192     1.007825032230
         H           -4.706801878392    -0.514558902260    -0.891263399808     1.007825032230
         BR           3.081975121608     0.000003097740    -0.000002399808    78.918337600000
         C            1.155654121608     0.000004097740     0.000002600192    12.000000000000
         H            0.817470121608     1.028772097740     0.000003600192     1.007825032230
         H            0.817472121608    -0.514380902260     0.890942600192     1.007825032230
         H            0.817468121608    -0.514379902260    -0.890936399808     1.007825032230

  Charge       = 0
  Multiplicity = 1
  Basis Set: AUG-CC-PVQZ
    Blend: AUG-CC-PVQZ
  Basis Set: (AUG-CC-PVQZ AUX)
    Blend: AUG-CC-PVQZ-JKFIT

    Orbital Energies [Eh]
    ---------------------

    Doubly Occupied:

       1A   -490.021602     2A   -490.006706     3A    -65.162114
       4A    -65.147166     5A    -58.517501     6A    -58.516132
       7A    -58.516132     8A    -58.502563     9A    -58.501182
      10A    -58.501182    11A    -11.293344    12A    -11.278394
      13A     -9.835458    14A     -9.820466    15A     -7.446922
      16A     -7.440514    17A     -7.440514    18A     -7.431926
      19A     -7.425506    20A     -7.425506    21A     -3.190456
      22A     -3.187073    23A     -3.187073    24A     -3.178787
      25A     -3.178787    26A     -3.175480    27A     -3.172085
      28A     -3.172085    29A     -3.163774    30A     -3.163774
      31A     -1.072820    32A     -1.057773    33A     -0.906139
      34A     -0.890177    35A     -0.620326    36A     -0.620325
      37A     -0.605632    38A     -0.605632    39A     -0.521220
      40A     -0.498956    41A     -0.411512    42A     -0.411512
      43A     -0.395924    44A     -0.395924

  @DF-RHF Final Energy: -5224.19588051943174

   => Energetics <=

    Nuclear Repulsion Energy =            373.5286094465270139
    One-Electron Energy =               -8017.4208595716754644
    Two-Electron Energy =                2419.6963696057164270
    Total Energy =                      -5224.1958805194317392

  Dipole Moment: [D]
     X:    -4.4830      Y:     0.0000      Z:     0.0000     Total:     4.4830

  Basis Set: (AUG-CC-PVQZ AUX)
    Blend: AUG-CC-PVQZ-RI
	 Reference Energy          =   -5224.1958805194317392 [Eh]
	 Singles Energy            =      -0.0000000000000000 [Eh]
	 Same-Spin Energy          =      -0.3242391955441833 [Eh]
	 Opposite-Spin Energy      =      -0.9099875215067105 [Eh]
	 Correlation Energy        =      -1.2342267170508938 [Eh]
	 Total Energy              =   -5225.4301072364823995 [Eh]

	 ================> DF-SCS-MP2 Energies <==================
	-----------------------------------------------------------
	 SCS Same-Spin Scale       =       0.3333333333333333 [-]
	 SCS Opposite-Spin Scale   =       1.2000000000000000 [-]
	 SCS Same-Spin Energy      =      -0.1080797318480611 [Eh]
	 SCS Opposite-Spin Energy  =      -1.0919850258080526 [Eh]
	 SCS Correlation Energy    =      -1.2000647576561136 [Eh]
	 SCS Total Energy          =   -5225.3959452770877760 [Eh]
	-----------------------------------------------------------

*** Psi4 exiting successfully. Buy a developer a beer!
