                               Psi4 1.4a2.dev224

  ==> Input File <==

--------------------------------------------------------------------------
#Generated by lconvert.py for cbs job

memory 40 GB

molecule  {
0 1
  F        1.8654390    -0.0370790    -0.0002270
  C        0.5153080    -0.0220130    -0.0001050
  C       -0.1371250     1.2001480    -0.0001600
  C       -0.1642150    -1.2293140     0.0000630
  C       -1.5303250     1.2070050    -0.0000410
  C       -1.5572190    -1.2050940     0.0001800
  C       -2.2415440     0.0087370     0.0001280
  H        0.4381760     2.1142970    -0.0002860
  H        0.3905970    -2.1560310     0.0000990
  H       -2.0566140     2.1511550    -0.0000790
  H       -2.1044390    -2.1372690     0.0003130
  H       -3.3219480     0.0207840     0.0002210
--
0 1
  O        4.3994690     0.0244330     0.0011130
  H        3.7966380     0.0061050     0.7471400
  H        3.8020890     0.0080070    -0.7493250
units angstrom
no_reorient
symmetry c1
}

set {
scf_type DF
mp2_type DF
e_convergence 7
reference rhf
}

energy('mp2/aug-cc-pv[tq]z', bsse_type='cp')
--------------------------------------------------------------------------

    Molecular point group: c1
  Charge       = 0
  Multiplicity = 1
  Basis Set: AUG-CC-PVTZ
    Blend: AUG-CC-PVTZ
  Basis Set: (AUG-CC-PVTZ AUX)
    Blend: AUG-CC-PVTZ-JKFIT
  @DF-RHF Final Energy:   -76.06023150495882
    Total Energy =                        -76.0602315049588213
  Basis Set: (AUG-CC-PVTZ AUX)
    Blend: AUG-CC-PVTZ-RI
	 Reference Energy          =     -76.0602315049588213 [Eh]
	 Singles Energy            =      -0.0000000000000000 [Eh]
	 Same-Spin Energy          =      -0.0684139157835471 [Eh]
	 Opposite-Spin Energy      =      -0.2153737409730455 [Eh]
	 Correlation Energy        =      -0.2837876567565926 [Eh]
	 Total Energy              =     -76.3440191617154085 [Eh]
	 SCS Total Energy          =     -76.3414846327209915 [Eh]
    Molecular point group: c1
  Basis Set: AUG-CC-PVQZ
    Blend: AUG-CC-PVQZ
  Basis Set: (AUG-CC-PVQZ AUX)
    Blend: AUG-CC-PVQZ-JKFIT
  @DF-RHF Final Energy:   -76.06561662711560
    Total Energy =                        -76.0656166271155882
  Basis Set: (AUG-CC-PVQZ AUX)
  @DF-RHF Final Energy:   -76.06028864021498
    Total Energy =                        -76.0602886402149778
  @DF-RHF Final Energy:   -76.06564267885082
    Total Energy =                        -76.0656426788508213
  @DF-RHF Final Energy:  -329.67267811711577
    Total Energy =                       -329.6726781171157654
  @DF-RHF Final Energy:  -329.69260383130103
    Total Energy =                       -329.6926038313010281
  @DF-RHF Final Energy:  -329.67248812628725
    Total Energy =                       -329.6724881262872486
  @DF-RHF Final Energy:  -329.69255687133608
    Total Energy =                       -329.6925568713360803
  Multiplicity = 1
  @DF-RHF Final Energy:  -405.72917758202124
    Total Energy =                       -405.7291775820212365
	 Singles Energy            =      -0.0000000000000000 [Eh]
	 Same-Spin Energy          =      -0.3982071817241623 [Eh]
	 Opposite-Spin Energy      =      -1.2244613867063381 [Eh]
	 Correlation Energy        =      -1.6226685684305004 [Eh]
	 Total Energy              =    -407.3518461504517632 [Eh]
	 SCS Total Energy          =    -407.3312669733102211 [Eh]
    Molecular point group: c1

    Geometry (in Angstrom), charge = 0, multiplicity = 1:

       Center              X                  Y                   Z               Mass
    ------------   -----------------  -----------------  -----------------  -----------------
         F            1.467537187158    -0.030126609388    -0.000335179817    18.998403162730
         C            0.117406187158    -0.015060609388    -0.000213179817    12.000000000000
         C           -0.535026812842     1.207100390612    -0.000268179817    12.000000000000
         C           -0.562116812842    -1.222361609388    -0.000045179817    12.000000000000
         C           -1.928226812842     1.213957390612    -0.000149179817    12.000000000000
         C           -1.955120812842    -1.198141609388     0.000071820183    12.000000000000
         C           -2.639445812842     0.015689390612     0.000019820183    12.000000000000
         H            0.040274187158     2.121249390612    -0.000394179817     1.007825032230
         H           -0.007304812842    -2.149078609388    -0.000009179817     1.007825032230
         H           -2.454515812842     2.158107390612    -0.000187179817     1.007825032230
         H           -2.502340812842    -2.130316609388     0.000204820183     1.007825032230
         H           -3.719849812842     0.027736390612     0.000112820183     1.007825032230
         O            4.001567187158     0.031385390612     0.001004820183    15.994914619570
         H            3.398736187158     0.013057390612     0.747031820183     1.007825032230
         H            3.404187187158     0.014959390612    -0.749433179817     1.007825032230

  Charge       = 0
  Multiplicity = 1
  Basis Set: AUG-CC-PVQZ
    Blend: AUG-CC-PVQZ
  Basis Set: (AUG-CC-PVQZ AUX)
    Blend: AUG-CC-PVQZ-JKFIT

    Orbital Energies [Eh]
    ---------------------

    Doubly Occupied:

       1A    -26.326364     2A    -20.536792     3A    -11.340322
       4A    -11.259238     5A    -11.259177     6A    -11.254512
       7A    -11.254491     8A    -11.249448     9A     -1.648359
      10A     -1.327767    11A     -1.175787    12A     -1.043497
      13A     -1.035117    14A     -0.867631    15A     -0.858418
      16A     -0.764058    17A     -0.720602    18A     -0.718055
      19A     -0.701093    20A     -0.683716    21A     -0.636201
      22A     -0.618751    23A     -0.609248    24A     -0.560974
      25A     -0.540214    26A     -0.521620    27A     -0.519410
      28A     -0.484507    29A     -0.362021    30A     -0.352890

  @DF-RHF Final Energy:  -405.75448200212264

   => Energetics <=

    Nuclear Repulsion Energy =            340.8679974199835669
    One-Electron Energy =               -1230.7843968720933390
    Two-Electron Energy =                 484.1619174499871292
    Total Energy =                       -405.7544820021226428

  Dipole Moment: [D]
     X:    -4.4791      Y:    -0.0407      Z:    -0.0072     Total:     4.4793

  Basis Set: (AUG-CC-PVQZ AUX)
    Blend: AUG-CC-PVQZ-RI
	 Reference Energy          =    -405.7544820021226428 [Eh]
	 Singles Energy            =      -0.0000000000000000 [Eh]
	 Same-Spin Energy          =      -0.4225924823373568 [Eh]
	 Opposite-Spin Energy      =      -1.3841797027257441 [Eh]
	 Correlation Energy        =      -1.8067721850631009 [Eh]
	 Total Energy              =    -407.5612541871857388 [Eh]

	 ================> DF-SCS-MP2 Energies <==================
	-----------------------------------------------------------
	 SCS Same-Spin Scale       =       0.3333333333333333 [-]
	 SCS Opposite-Spin Scale   =       1.2000000000000000 [-]
	 SCS Same-Spin Energy      =      -0.1408641607791189 [Eh]
	 SCS Opposite-Spin Energy  =      -1.6610156432708929 [Eh]
	 SCS Correlation Energy    =      -1.8018798040500119 [Eh]
	 SCS Total Energy          =    -407.5563618061726743 [Eh]
	-----------------------------------------------------------

*** Psi4 exiting successfully. Buy a developer a beer!
