                               Psi4 1.4a2.dev224

  ==> Input File <==

--------------------------------------------------------------------------
#Generated by lconvert.py for cbs job

memory 20 GB

molecule  {
0 1
  F       1.865440   -0.037080   -0.000230
  C       0.515310   -0.022010   -0.000110
  C      -0.137120    1.200150   -0.000160
  C      -0.164210   -1.229310    0.000060
  C      -1.530320    1.207010   -0.000040
  C      -1.557220   -1.205090    0.000180
  C      -2.241540    0.008740    0.000130
  H       0.438180    2.114300   -0.000290
  H       0.390600   -2.156030    0.000100
  H      -2.056610    2.151160   -0.000080
  H      -2.104440   -2.137270    0.000310
  H      -3.321950    0.020780    0.000220
--
0 1
  O       6.933500    0.085940    0.002450
  H       6.330670    0.067620    0.748480
  H       6.336120    0.069520   -0.747990
units angstrom
no_reorient
symmetry c1
}

set {
scf_type DF
mp2_type DF
e_convergence 7
reference rhf
}

energy('mp2/aug-cc-pv[tq]z', bsse_type='cp')
--------------------------------------------------------------------------

    Molecular point group: c1
  Charge       = 0
  Multiplicity = 1
  Basis Set: AUG-CC-PVTZ
    Blend: AUG-CC-PVTZ
  Basis Set: (AUG-CC-PVTZ AUX)
    Blend: AUG-CC-PVTZ-JKFIT
  @DF-RHF Final Energy:   -76.06023144349149
    Total Energy =                        -76.0602314434914746
  Basis Set: (AUG-CC-PVTZ AUX)
    Blend: AUG-CC-PVTZ-RI
	 Reference Energy          =     -76.0602314434914888 [Eh]
	 Singles Energy            =      -0.0000000000000000 [Eh]
	 Same-Spin Energy          =      -0.0684139361362679 [Eh]
	 Opposite-Spin Energy      =      -0.2153738059180902 [Eh]
	 Correlation Energy        =      -0.2837877420543581 [Eh]
	 Total Energy              =     -76.3440191855458465 [Eh]
	 SCS Total Energy          =     -76.3414846559719535 [Eh]
    Molecular point group: c1
  Basis Set: AUG-CC-PVQZ
    Blend: AUG-CC-PVQZ
  Basis Set: (AUG-CC-PVQZ AUX)
    Blend: AUG-CC-PVQZ-JKFIT
  @DF-RHF Final Energy:   -76.06561655759863
    Total Energy =                        -76.0656165575986165
  Basis Set: (AUG-CC-PVQZ AUX)
  @DF-RHF Final Energy:   -76.06023625527024
    Total Energy =                        -76.0602362552702402
  @DF-RHF Final Energy:   -76.06561902483878
    Total Energy =                        -76.0656190248387816
  @DF-RHF Final Energy:  -329.67249790241027
    Total Energy =                       -329.6724979024102709
  @DF-RHF Final Energy:  -329.69255950545215
    Total Energy =                       -329.6925595054521523
  @DF-RHF Final Energy:  -329.67248803354948
    Total Energy =                       -329.6724880335494845
  @DF-RHF Final Energy:  -329.69255677520101
    Total Energy =                       -329.6925567752010124
  Multiplicity = 1
  @DF-RHF Final Energy:  -405.73354355120824
    Total Energy =                       -405.7335435512082427
	 Singles Energy            =      -0.0000000000000000 [Eh]
	 Same-Spin Energy          =      -0.3967604877520789 [Eh]
	 Opposite-Spin Energy      =      -1.2224312640085384 [Eh]
	 Correlation Energy        =      -1.6191917517606174 [Eh]
	 Total Energy              =    -407.3527353029688811 [Eh]
	 SCS Total Energy          =    -407.3327145639358378 [Eh]
    Molecular point group: c1

    Geometry (in Angstrom), charge = 0, multiplicity = 1:

       Center              X                  Y                   Z               Mass
    ------------   -----------------  -----------------  -----------------  -----------------
         F            1.067359665080    -0.039843045352    -0.000548232212    18.998403162730
         C           -0.282770334920    -0.024773045352    -0.000428232212    12.000000000000
         C           -0.935200334920     1.197386954648    -0.000478232212    12.000000000000
         C           -0.962290334920    -1.232073045352    -0.000258232212    12.000000000000
         C           -2.328400334920     1.204246954648    -0.000358232212    12.000000000000
         C           -2.355300334920    -1.207853045352    -0.000138232212    12.000000000000
         C           -3.039620334920     0.005976954648    -0.000188232212    12.000000000000
         H           -0.359900334920     2.111536954648    -0.000608232212     1.007825032230
         H           -0.407480334920    -2.158793045352    -0.000218232212     1.007825032230
         H           -2.854690334920     2.148396954648    -0.000398232212     1.007825032230
         H           -2.902520334920    -2.140033045352    -0.000008232212     1.007825032230
         H           -4.120030334920     0.018016954648    -0.000098232212     1.007825032230
         O            6.135419665080     0.083176954648     0.002131767788    15.994914619570
         H            5.532589665080     0.064856954648     0.748161767788     1.007825032230
         H            5.538039665080     0.066756954648    -0.748308232212     1.007825032230

  Charge       = 0
  Multiplicity = 1
  Basis Set: AUG-CC-PVQZ
    Blend: AUG-CC-PVQZ
  Basis Set: (AUG-CC-PVQZ AUX)
    Blend: AUG-CC-PVQZ-JKFIT

    Orbital Energies [Eh]
    ---------------------

    Doubly Occupied:

       1A    -26.311473     2A    -20.559894     3A    -11.333061
       4A    -11.254025     5A    -11.253966     6A    -11.248006
       7A    -11.247984     8A    -11.243784     9A     -1.630102
      10A     -1.347218    11A     -1.169479    12A     -1.037631
      13A     -1.027611    14A     -0.860811    15A     -0.846891
      16A     -0.750670    17A     -0.706776    18A     -0.705605
      19A     -0.698940    20A     -0.692880    21A     -0.629305
      22A     -0.611542    23A     -0.600796    24A     -0.582703
      25A     -0.536261    26A     -0.515009    27A     -0.513182
      28A     -0.504998    29A     -0.356642    30A     -0.345757

  @DF-RHF Final Energy:  -405.75898390730930

   => Energetics <=

    Nuclear Repulsion Energy =            316.7113073977741351
    One-Electron Energy =               -1182.6945768210521237
    Two-Electron Energy =                 460.2242855159686883
    Total Energy =                       -405.7589839073093003

  Dipole Moment: [D]
     X:    -3.9326      Y:    -0.0394      Z:    -0.0072     Total:     3.9328

  Basis Set: (AUG-CC-PVQZ AUX)
    Blend: AUG-CC-PVQZ-RI
	 Reference Energy          =    -405.7589839073093003 [Eh]
	 Singles Energy            =      -0.0000000000000000 [Eh]
	 Same-Spin Energy          =      -0.4211163945036682 [Eh]
	 Opposite-Spin Energy      =      -1.3825948285826608 [Eh]
	 Correlation Energy        =      -1.8037112230863290 [Eh]
	 Total Energy              =    -407.5626951303956389 [Eh]

	 ================> DF-SCS-MP2 Energies <==================
	-----------------------------------------------------------
	 SCS Same-Spin Scale       =       0.3333333333333333 [-]
	 SCS Opposite-Spin Scale   =       1.2000000000000000 [-]
	 SCS Same-Spin Energy      =      -0.1403721315012227 [Eh]
	 SCS Opposite-Spin Energy  =      -1.6591137942991929 [Eh]
	 SCS Correlation Energy    =      -1.7994859258004157 [Eh]
	 SCS Total Energy          =    -407.5584698331097115 [Eh]
	-----------------------------------------------------------

*** Psi4 exiting successfully. Buy a developer a beer!
