                               Psi4 1.4a2.dev224

  ==> Input File <==

--------------------------------------------------------------------------
#Generated by lconvert.py for cbs job

memory 40 GB

molecule  {
0 1
  F        1.8654390    -0.0370790    -0.0002270
  C        0.5153080    -0.0220130    -0.0001050
  C       -0.1371250     1.2001480    -0.0001600
  C       -0.1642150    -1.2293140     0.0000630
  C       -1.5303250     1.2070050    -0.0000410
  C       -1.5572190    -1.2050940     0.0001800
  C       -2.2415440     0.0087370     0.0001280
  H        0.4381760     2.1142970    -0.0002860
  H        0.3905970    -2.1560310     0.0000990
  H       -2.0566140     2.1511550    -0.0000790
  H       -2.1044390    -2.1372690     0.0003130
  H       -3.3219480     0.0207840     0.0002210
--
0 1
  O        5.3497300     0.0475000     0.0016150
  H        4.7468990     0.0291720     0.7476420
  H        4.7523500     0.0310740    -0.7488220
units angstrom
no_reorient
symmetry c1
}

set {
scf_type DF
mp2_type DF
e_convergence 7
reference rhf
}

energy('mp2/aug-cc-pv[tq]z', bsse_type='cp')
--------------------------------------------------------------------------

    Molecular point group: c1
  Charge       = 0
  Multiplicity = 1
  Basis Set: AUG-CC-PVTZ
    Blend: AUG-CC-PVTZ
  Basis Set: (AUG-CC-PVTZ AUX)
    Blend: AUG-CC-PVTZ-JKFIT
  @DF-RHF Final Energy:   -76.06023152568126
    Total Energy =                        -76.0602315256812744
  Basis Set: (AUG-CC-PVTZ AUX)
    Blend: AUG-CC-PVTZ-RI
	 Reference Energy          =     -76.0602315256812602 [Eh]
	 Singles Energy            =      -0.0000000000000000 [Eh]
	 Same-Spin Energy          =      -0.0684139098240616 [Eh]
	 Opposite-Spin Energy      =      -0.2153737223861543 [Eh]
	 Correlation Energy        =      -0.2837876322102159 [Eh]
	 Total Energy              =     -76.3440191578914806 [Eh]
	 SCS Total Energy          =     -76.3414846291526601 [Eh]
    Molecular point group: c1
  Basis Set: AUG-CC-PVQZ
    Blend: AUG-CC-PVQZ
  Basis Set: (AUG-CC-PVQZ AUX)
    Blend: AUG-CC-PVQZ-JKFIT
  @DF-RHF Final Energy:   -76.06561664989437
    Total Energy =                        -76.0656166498943662
  Basis Set: (AUG-CC-PVQZ AUX)
  @DF-RHF Final Energy:   -76.06025710848664
    Total Energy =                        -76.0602571084866383
  @DF-RHF Final Energy:   -76.06562810452913
    Total Energy =                        -76.0656281045291252
  @DF-RHF Final Energy:  -329.67253037887383
    Total Energy =                       -329.6725303788738302
  @DF-RHF Final Energy:  -329.69257481688692
    Total Energy =                       -329.6925748168869177
  @DF-RHF Final Energy:  -329.67248812741542
    Total Energy =                       -329.6724881274154200
  @DF-RHF Final Energy:  -329.69255687835096
    Total Energy =                       -329.6925568783509561
  Multiplicity = 1
  @DF-RHF Final Energy:  -405.73474825307397
    Total Energy =                       -405.7347482530739740
	 Singles Energy            =      -0.0000000000000000 [Eh]
	 Same-Spin Energy          =      -0.3969926933208672 [Eh]
	 Opposite-Spin Energy      =      -1.2228779532926399 [Eh]
	 Correlation Energy        =      -1.6198706466135071 [Eh]
	 Total Energy              =    -407.3546188996874662 [Eh]
	 SCS Total Energy          =    -407.3345326947987814 [Eh]
    Molecular point group: c1

    Geometry (in Angstrom), charge = 0, multiplicity = 1:

       Center              X                  Y                   Z               Mass
    ------------   -----------------  -----------------  -----------------  -----------------
         F            1.317471221513    -0.033769368198    -0.000414464890    18.998403162730
         C           -0.032659778487    -0.018703368198    -0.000292464890    12.000000000000
         C           -0.685092778487     1.203457631802    -0.000347464890    12.000000000000
         C           -0.712182778487    -1.226004368198    -0.000124464890    12.000000000000
         C           -2.078292778487     1.210314631802    -0.000228464890    12.000000000000
         C           -2.105186778487    -1.201784368198    -0.000007464890    12.000000000000
         C           -2.789511778487     0.012046631802    -0.000059464890    12.000000000000
         H           -0.109791778487     2.117606631802    -0.000473464890     1.007825032230
         H           -0.157370778487    -2.152721368198    -0.000088464890     1.007825032230
         H           -2.604581778487     2.154464631802    -0.000266464890     1.007825032230
         H           -2.652406778487    -2.133959368198     0.000125535110     1.007825032230
         H           -3.869915778487     0.024093631802     0.000033535110     1.007825032230
         O            4.801762221513     0.050809631802     0.001427535110    15.994914619570
         H            4.198931221513     0.032481631802     0.747454535110     1.007825032230
         H            4.204382221513     0.034383631802    -0.749009464890     1.007825032230

  Charge       = 0
  Multiplicity = 1
  Basis Set: AUG-CC-PVQZ
    Blend: AUG-CC-PVQZ
  Basis Set: (AUG-CC-PVQZ AUX)
    Blend: AUG-CC-PVQZ-JKFIT

    Orbital Energies [Eh]
    ---------------------

    Doubly Occupied:

       1A    -26.317719     2A    -20.552946     3A    -11.336353
       4A    -11.256324     5A    -11.256265     6A    -11.250815
       7A    -11.250798     8A    -11.246206     9A     -1.636604
      10A     -1.340454    11A     -1.172175    12A     -1.040188
      13A     -1.030629    14A     -0.863702    15A     -0.850837
      16A     -0.755078    17A     -0.710347    18A     -0.705700
      19A     -0.699920    20A     -0.696015    21A     -0.631986
      22A     -0.614447    23A     -0.604345    24A     -0.576228
      25A     -0.538776    26A     -0.517821    27A     -0.515837
      28A     -0.498449    29A     -0.359014    30A     -0.348753

  @DF-RHF Final Energy:  -405.76015390800222

   => Energetics <=

    Nuclear Repulsion Energy =            328.6581661483213566
    One-Electron Energy =               -1206.4871709359849774
    Two-Electron Energy =                 472.0688508796613974
    Total Energy =                       -405.7601539080022235

  Dipole Moment: [D]
     X:    -4.1181      Y:    -0.0397      Z:    -0.0072     Total:     4.1183

  Basis Set: (AUG-CC-PVQZ AUX)
    Blend: AUG-CC-PVQZ-RI
	 Reference Energy          =    -405.7601539080022235 [Eh]
	 Singles Energy            =      -0.0000000000000000 [Eh]
	 Same-Spin Energy          =      -0.4213420445657686 [Eh]
	 Opposite-Spin Energy      =      -1.3828369244592049 [Eh]
	 Correlation Energy        =      -1.8041789690249734 [Eh]
	 Total Energy              =    -407.5643328770271978 [Eh]

	 ================> DF-SCS-MP2 Energies <==================
	-----------------------------------------------------------
	 SCS Same-Spin Scale       =       0.3333333333333333 [-]
	 SCS Opposite-Spin Scale   =       1.2000000000000000 [-]
	 SCS Same-Spin Energy      =      -0.1404473481885895 [Eh]
	 SCS Opposite-Spin Energy  =      -1.6594043093510458 [Eh]
	 SCS Correlation Energy    =      -1.7998516575396353 [Eh]
	 SCS Total Energy          =    -407.5600055655418714 [Eh]
	-----------------------------------------------------------

*** Psi4 exiting successfully. Buy a developer a beer!
