                               Psi4 1.4a2.dev224

  ==> Input File <==

--------------------------------------------------------------------------
#Generated by lconvert.py for cbs job

memory 20 GB

molecule  {
0 1
  F       1.865440   -0.037080   -0.000230
  C       0.515310   -0.022010   -0.000110
  C      -0.137120    1.200150   -0.000160
  C      -0.164210   -1.229310    0.000060
  C      -1.530320    1.207010   -0.000040
  C      -1.557220   -1.205090    0.000180
  C      -2.241540    0.008740    0.000130
  H       0.438180    2.114300   -0.000290
  H       0.390600   -2.156030    0.000100
  H      -2.056610    2.151160   -0.000080
  H      -2.104440   -2.137270    0.000310
  H      -3.321950    0.020780    0.000220
--
0 1
  O       5.983240    0.062880    0.001950
  H       5.380410    0.044550    0.747980
  H       5.385860    0.046450   -0.748490
units angstrom
no_reorient
symmetry c1
}

set {
scf_type DF
mp2_type DF
e_convergence 7
reference rhf
}

energy('mp2/aug-cc-pv[tq]z', bsse_type='cp')
--------------------------------------------------------------------------

    Molecular point group: c1
  Charge       = 0
  Multiplicity = 1
  Basis Set: AUG-CC-PVTZ
    Blend: AUG-CC-PVTZ
  Basis Set: (AUG-CC-PVTZ AUX)
    Blend: AUG-CC-PVTZ-JKFIT
  @DF-RHF Final Energy:   -76.06023142644811
    Total Energy =                        -76.0602314264481265
  Basis Set: (AUG-CC-PVTZ AUX)
    Blend: AUG-CC-PVTZ-RI
	 Reference Energy          =     -76.0602314264481123 [Eh]
	 Singles Energy            =      -0.0000000000000000 [Eh]
	 Same-Spin Energy          =      -0.0684139399529126 [Eh]
	 Opposite-Spin Energy      =      -0.2153738172265181 [Eh]
	 Correlation Energy        =      -0.2837877571794307 [Eh]
	 Total Energy              =     -76.3440191836275375 [Eh]
	 SCS Total Energy          =     -76.3414846537709053 [Eh]
    Molecular point group: c1
  Basis Set: AUG-CC-PVQZ
    Blend: AUG-CC-PVQZ
  Basis Set: (AUG-CC-PVQZ AUX)
    Blend: AUG-CC-PVQZ-JKFIT
  @DF-RHF Final Energy:   -76.06561653967434
    Total Energy =                        -76.0656165396743376
  Basis Set: (AUG-CC-PVQZ AUX)
  @DF-RHF Final Energy:   -76.06024364723575
    Total Energy =                        -76.0602436472357510
  @DF-RHF Final Energy:   -76.06562386659937
    Total Energy =                        -76.0656238665993669
  @DF-RHF Final Energy:  -329.67251181740573
    Total Energy =                       -329.6725118174057343
  @DF-RHF Final Energy:  -329.69256633499282
    Total Energy =                       -329.6925663349928186
  @DF-RHF Final Energy:  -329.67248803237948
    Total Energy =                       -329.6724880323794764
  @DF-RHF Final Energy:  -329.69255677059317
    Total Energy =                       -329.6925567705931712
  Multiplicity = 1
  @DF-RHF Final Energy:  -405.73414770513432
    Total Energy =                       -405.7341477051343190
	 Singles Energy            =      -0.0000000000000000 [Eh]
	 Same-Spin Energy          =      -0.3968245154376360 [Eh]
	 Opposite-Spin Energy      =      -1.2225840370723930 [Eh]
	 Correlation Energy        =      -1.6194085525100290 [Eh]
	 Total Energy              =    -407.3535562576443567 [Eh]
	 SCS Total Energy          =    -407.3335233881003887 [Eh]
    Molecular point group: c1

    Geometry (in Angstrom), charge = 0, multiplicity = 1:

       Center              X                  Y                   Z               Mass
    ------------   -----------------  -----------------  -----------------  -----------------
         F            1.217425472805    -0.036201215251    -0.000469271818    18.998403162730
         C           -0.132704527195    -0.021131215251    -0.000349271818    12.000000000000
         C           -0.785134527195     1.201028784749    -0.000399271818    12.000000000000
         C           -0.812224527195    -1.228431215251    -0.000179271818    12.000000000000
         C           -2.178334527195     1.207888784749    -0.000279271818    12.000000000000
         C           -2.205234527195    -1.204211215251    -0.000059271818    12.000000000000
         C           -2.889554527195     0.009618784749    -0.000109271818    12.000000000000
         H           -0.209834527195     2.115178784749    -0.000529271818     1.007825032230
         H           -0.257414527195    -2.155151215251    -0.000139271818     1.007825032230
         H           -2.704624527195     2.152038784749    -0.000319271818     1.007825032230
         H           -2.752454527195    -2.136391215251     0.000070728182     1.007825032230
         H           -3.969964527195     0.021658784749    -0.000019271818     1.007825032230
         O            5.335225472805     0.063758784749     0.001710728182    15.994914619570
         H            4.732395472805     0.045428784749     0.747740728182     1.007825032230
         H            4.737845472805     0.047328784749    -0.748729271818     1.007825032230

  Charge       = 0
  Multiplicity = 1
  Basis Set: AUG-CC-PVQZ
    Blend: AUG-CC-PVQZ
  Basis Set: (AUG-CC-PVQZ AUX)
    Blend: AUG-CC-PVQZ-JKFIT

    Orbital Energies [Eh]
    ---------------------

    Doubly Occupied:

       1A    -26.314423     2A    -20.556796     3A    -11.334675
       4A    -11.255177     5A    -11.255119     6A    -11.249397
       7A    -11.249377     8A    -11.244982     9A     -1.633133
      10A     -1.344162    11A     -1.170811    12A     -1.038904
      13A     -1.029081    14A     -0.862235    15A     -0.848748
      16A     -0.752726    17A     -0.707854    18A     -0.703827
      19A     -0.701935    20A     -0.694398    21A     -0.630617
      22A     -0.612961    23A     -0.602532    24A     -0.579798
      25A     -0.537521    26A     -0.516393    27A     -0.514499
      28A     -0.502052    29A     -0.357831    30A     -0.347224

  @DF-RHF Final Energy:  -405.75957534308492

   => Energetics <=

    Nuclear Repulsion Energy =            323.0263032240662824
    One-Electron Energy =               -1195.2733780337532608
    Two-Electron Energy =                 466.4874994666020598
    Total Energy =                       -405.7595753430849186

  Dipole Moment: [D]
     X:    -4.0156      Y:    -0.0396      Z:    -0.0072     Total:     4.0158

  Basis Set: (AUG-CC-PVQZ AUX)
    Blend: AUG-CC-PVQZ-RI
	 Reference Energy          =    -405.7595753430849186 [Eh]
	 Singles Energy            =      -0.0000000000000000 [Eh]
	 Same-Spin Energy          =      -0.4211783094947492 [Eh]
	 Opposite-Spin Energy      =      -1.3826605202196232 [Eh]
	 Correlation Energy        =      -1.8038388297143724 [Eh]
	 Total Energy              =    -407.5634141727992983 [Eh]

	 ================> DF-SCS-MP2 Energies <==================
	-----------------------------------------------------------
	 SCS Same-Spin Scale       =       0.3333333333333333 [-]
	 SCS Opposite-Spin Scale   =       1.2000000000000000 [-]
	 SCS Same-Spin Energy      =      -0.1403927698315831 [Eh]
	 SCS Opposite-Spin Energy  =      -1.6591926242635477 [Eh]
	 SCS Correlation Energy    =      -1.7995853940951307 [Eh]
	 SCS Total Energy          =    -407.5591607371800364 [Eh]
	-----------------------------------------------------------

*** Psi4 exiting successfully. Buy a developer a beer!
