                               Psi4 1.4a2.dev224

  ==> Input File <==

--------------------------------------------------------------------------
#Generated by lconvert.py for cbs job

memory 40 GB

molecule  {
0 1
  F        1.8654390    -0.0370790    -0.0002270
  C        0.5153080    -0.0220130    -0.0001050
  C       -0.1371250     1.2001480    -0.0001600
  C       -0.1642150    -1.2293140     0.0000630
  C       -1.5303250     1.2070050    -0.0000410
  C       -1.5572190    -1.2050940     0.0001800
  C       -2.2415440     0.0087370     0.0001280
  H        0.4381760     2.1142970    -0.0002860
  H        0.3905970    -2.1560310     0.0000990
  H       -2.0566140     2.1511550    -0.0000790
  H       -2.1044390    -2.1372690     0.0003130
  H       -3.3219480     0.0207840     0.0002210
--
0 1
  O        4.0827150     0.0167440     0.0009460
  H        3.4798840    -0.0015840     0.7469730
  H        3.4853350     0.0003180    -0.7494930
units angstrom
no_reorient
symmetry c1
}

set {
scf_type DF
mp2_type DF
e_convergence 7
reference rhf
}

energy('mp2/aug-cc-pv[tq]z', bsse_type='cp')
--------------------------------------------------------------------------

    Molecular point group: c1
  Charge       = 0
  Multiplicity = 1
  Basis Set: AUG-CC-PVTZ
    Blend: AUG-CC-PVTZ
  Basis Set: (AUG-CC-PVTZ AUX)
    Blend: AUG-CC-PVTZ-JKFIT
  @DF-RHF Final Energy:   -76.06023148423586
    Total Energy =                        -76.0602314842358425
  Basis Set: (AUG-CC-PVTZ AUX)
    Blend: AUG-CC-PVTZ-RI
	 Reference Energy          =     -76.0602314842358567 [Eh]
	 Singles Energy            =      -0.0000000000000000 [Eh]
	 Same-Spin Energy          =      -0.0684139217430297 [Eh]
	 Opposite-Spin Energy      =      -0.2153737595598492 [Eh]
	 Correlation Energy        =      -0.2837876813028788 [Eh]
	 Total Energy              =     -76.3440191655387395 [Eh]
	 SCS Total Energy          =     -76.3414846362886834 [Eh]
    Molecular point group: c1
  Basis Set: AUG-CC-PVQZ
    Blend: AUG-CC-PVQZ
  Basis Set: (AUG-CC-PVQZ AUX)
    Blend: AUG-CC-PVQZ-JKFIT
  @DF-RHF Final Energy:   -76.06561660433471
    Total Energy =                        -76.0656166043347071
  Basis Set: (AUG-CC-PVQZ AUX)
  @DF-RHF Final Energy:   -76.06030639866842
    Total Energy =                        -76.0603063986684163
  @DF-RHF Final Energy:   -76.06564926860180
    Total Energy =                        -76.0656492686018026
  @DF-RHF Final Energy:  -329.67272659937504
    Total Energy =                       -329.6727265993750393
  @DF-RHF Final Energy:  -329.69262611573799
    Total Energy =                       -329.6926261157379940
  @DF-RHF Final Energy:  -329.67248812770089
    Total Energy =                       -329.6724881277008876
  @DF-RHF Final Energy:  -329.69255687188144
    Total Energy =                       -329.6925568718814361
  Multiplicity = 1
  @DF-RHF Final Energy:  -405.71110546709713
    Total Energy =                       -405.7111054670971271
	 Singles Energy            =      -0.0000000000000000 [Eh]
	 Same-Spin Energy          =      -0.3995946555504771 [Eh]
	 Opposite-Spin Energy      =      -1.2262170389784655 [Eh]
	 Correlation Energy        =      -1.6258116945289425 [Eh]
	 Total Energy              =    -407.3369171616260473 [Eh]
	 SCS Total Energy          =    -407.3157641323880966 [Eh]
    Molecular point group: c1

    Geometry (in Angstrom), charge = 0, multiplicity = 1:

       Center              X                  Y                   Z               Mass
    ------------   -----------------  -----------------  -----------------  -----------------
         F            1.517559228346    -0.028912356451    -0.000308798209    18.998403162730
         C            0.167428228346    -0.013846356451    -0.000186798209    12.000000000000
         C           -0.485004771654     1.208314643549    -0.000241798209    12.000000000000
         C           -0.512094771654    -1.221147356451    -0.000018798209    12.000000000000
         C           -1.878204771654     1.215171643549    -0.000122798209    12.000000000000
         C           -1.905098771654    -1.196927356451     0.000098201791    12.000000000000
         C           -2.589423771654     0.016903643549     0.000046201791    12.000000000000
         H            0.090296228346     2.122463643549    -0.000367798209     1.007825032230
         H            0.042717228346    -2.147864356451     0.000017201791     1.007825032230
         H           -2.404493771654     2.159321643549    -0.000160798209     1.007825032230
         H           -2.452318771654    -2.129102356451     0.000231201791     1.007825032230
         H           -3.669827771654     0.028950643549     0.000139201791     1.007825032230
         O            3.734835228346     0.024910643549     0.000864201791    15.994914619570
         H            3.132004228346     0.006582643549     0.746891201791     1.007825032230
         H            3.137455228346     0.008484643549    -0.749574798209     1.007825032230

  Charge       = 0
  Multiplicity = 1
  Basis Set: AUG-CC-PVQZ
    Blend: AUG-CC-PVQZ
  Basis Set: (AUG-CC-PVQZ AUX)
    Blend: AUG-CC-PVQZ-JKFIT

    Orbital Energies [Eh]
    ---------------------

    Doubly Occupied:

       1A    -26.330185     2A    -20.522577     3A    -11.341592
       4A    -11.260750     5A    -11.260688     6A    -11.256441
       7A    -11.256420     8A    -11.251201     9A     -1.658354
      10A     -1.320570    11A     -1.177649    12A     -1.045230
      13A     -1.037823    14A     -0.869853    15A     -0.864727
      16A     -0.771309    17A     -0.735708    18A     -0.723667
      19A     -0.704350    20A     -0.669339    21A     -0.638813
      22A     -0.621664    23A     -0.612007    24A     -0.552179
      25A     -0.532076    26A     -0.523585    27A     -0.521418
      28A     -0.473599    29A     -0.363591    30A     -0.355144

  @DF-RHF Final Energy:  -405.73645811252038

   => Energetics <=

    Nuclear Repulsion Energy =            346.6105737892044090
    One-Electron Energy =               -1242.1890389075467738
    Two-Electron Energy =                 489.8420070058219835
    Total Energy =                       -405.7364581125203813

  Dipole Moment: [D]
     X:    -4.7201      Y:    -0.0424      Z:    -0.0071     Total:     4.7203

  Basis Set: (AUG-CC-PVQZ AUX)
    Blend: AUG-CC-PVQZ-RI
	 Reference Energy          =    -405.7364581125203813 [Eh]
	 Singles Energy            =      -0.0000000000000000 [Eh]
	 Same-Spin Energy          =      -0.4240173731142969 [Eh]
	 Opposite-Spin Energy      =      -1.3857191022087243 [Eh]
	 Correlation Energy        =      -1.8097364753230212 [Eh]
	 Total Energy              =    -407.5461945878433880 [Eh]

	 ================> DF-SCS-MP2 Energies <==================
	-----------------------------------------------------------
	 SCS Same-Spin Scale       =       0.3333333333333333 [-]
	 SCS Opposite-Spin Scale   =       1.2000000000000000 [-]
	 SCS Same-Spin Energy      =      -0.1413391243714323 [Eh]
	 SCS Opposite-Spin Energy  =      -1.6628629226504692 [Eh]
	 SCS Correlation Energy    =      -1.8042020470219016 [Eh]
	 SCS Total Energy          =    -407.5406601595422558 [Eh]
	-----------------------------------------------------------

*** Psi4 exiting successfully. Buy a developer a beer!
