                               Psi4 1.4a2.dev224

  ==> Input File <==

--------------------------------------------------------------------------
#Generated by lconvert.py for cbs job

memory 40 GB

molecule  {
0 1
  F        1.8654390    -0.0370790    -0.0002270
  C        0.5153080    -0.0220130    -0.0001050
  C       -0.1371250     1.2001480    -0.0001600
  C       -0.1642150    -1.2293140     0.0000630
  C       -1.5303250     1.2070050    -0.0000410
  C       -1.5572190    -1.2050940     0.0001800
  C       -2.2415440     0.0087370     0.0001280
  H        0.4381760     2.1142970    -0.0002860
  H        0.3905970    -2.1560310     0.0000990
  H       -2.0566140     2.1511550    -0.0000790
  H       -2.1044390    -2.1372690     0.0003130
  H       -3.3219480     0.0207840     0.0002210
--
0 1
  O        5.1913530     0.0436550     0.0015320
  H        4.5885220     0.0253270     0.7475590
  H        4.5939730     0.0272300    -0.7489060
units angstrom
no_reorient
symmetry c1
}

set {
scf_type DF
mp2_type DF
e_convergence 7
reference rhf
}

energy('mp2/aug-cc-pv[tq]z', bsse_type='cp')
--------------------------------------------------------------------------

    Molecular point group: c1
  Charge       = 0
  Multiplicity = 1
  Basis Set: AUG-CC-PVTZ
    Blend: AUG-CC-PVTZ
  Basis Set: (AUG-CC-PVTZ AUX)
    Blend: AUG-CC-PVTZ-JKFIT
  @DF-RHF Final Energy:   -76.06023150578226
    Total Energy =                        -76.0602315057822551
  Basis Set: (AUG-CC-PVTZ AUX)
    Blend: AUG-CC-PVTZ-RI
	 Reference Energy          =     -76.0602315057822551 [Eh]
	 Singles Energy            =      -0.0000000000000000 [Eh]
	 Same-Spin Energy          =      -0.0684139156002542 [Eh]
	 Opposite-Spin Energy      =      -0.2153737404310626 [Eh]
	 Correlation Energy        =      -0.2837876560313167 [Eh]
	 Total Energy              =     -76.3440191618135771 [Eh]
	 SCS Total Energy          =     -76.3414846328329446 [Eh]
    Molecular point group: c1
  Basis Set: AUG-CC-PVQZ
    Blend: AUG-CC-PVQZ
  Basis Set: (AUG-CC-PVQZ AUX)
    Blend: AUG-CC-PVQZ-JKFIT
  @DF-RHF Final Energy:   -76.06561662799004
    Total Energy =                        -76.0656166279900390
  Basis Set: (AUG-CC-PVQZ AUX)
  @DF-RHF Final Energy:   -76.06026127627250
    Total Energy =                        -76.0602612762724988
  @DF-RHF Final Energy:   -76.06562966240718
    Total Energy =                        -76.0656296624071757
  @DF-RHF Final Energy:  -329.67254533081262
    Total Energy =                       -329.6725453308126248
  @DF-RHF Final Energy:  -329.69257823117471
    Total Energy =                       -329.6925782311747071
  @DF-RHF Final Energy:  -329.67248812376516
    Total Energy =                       -329.6724881237651630
  @DF-RHF Final Energy:  -329.69255687476624
    Total Energy =                       -329.6925568747662396
  Multiplicity = 1
  @DF-RHF Final Energy:  -405.73485596856023
    Total Energy =                       -405.7348559685602254
	 Singles Energy            =      -0.0000000000000000 [Eh]
	 Same-Spin Energy          =      -0.3970747175530395 [Eh]
	 Opposite-Spin Energy      =      -1.2230081095124183 [Eh]
	 Correlation Energy        =      -1.6200828270654579 [Eh]
	 Total Energy              =    -407.3549387956256851 [Eh]
	 SCS Total Energy          =    -407.3348239391594916 [Eh]
    Molecular point group: c1

    Geometry (in Angstrom), charge = 0, multiplicity = 1:

       Center              X                  Y                   Z               Mass
    ------------   -----------------  -----------------  -----------------  -----------------
         F            1.342482242107    -0.033162171606    -0.000401348627    18.998403162730
         C           -0.007648757893    -0.018096171606    -0.000279348627    12.000000000000
         C           -0.660081757893     1.204064828394    -0.000334348627    12.000000000000
         C           -0.687171757893    -1.225397171606    -0.000111348627    12.000000000000
         C           -2.053281757893     1.210921828394    -0.000215348627    12.000000000000
         C           -2.080175757893    -1.201177171606     0.000005651373    12.000000000000
         C           -2.764500757893     0.012653828394    -0.000046348627    12.000000000000
         H           -0.084780757893     2.118213828394    -0.000460348627     1.007825032230
         H           -0.132359757893    -2.152114171606    -0.000075348627     1.007825032230
         H           -2.579570757893     2.155071828394    -0.000253348627     1.007825032230
         H           -2.627395757893    -2.133352171606     0.000138651373     1.007825032230
         H           -3.844904757893     0.024700828394     0.000046651373     1.007825032230
         O            4.668396242107     0.047571828394     0.001357651373    15.994914619570
         H            4.065565242107     0.029243828394     0.747384651373     1.007825032230
         H            4.071016242107     0.031146828394    -0.749080348627     1.007825032230

  Charge       = 0
  Multiplicity = 1
  Basis Set: AUG-CC-PVQZ
    Blend: AUG-CC-PVQZ
  Basis Set: (AUG-CC-PVQZ AUX)
    Blend: AUG-CC-PVQZ-JKFIT

    Orbital Energies [Eh]
    ---------------------

    Doubly Occupied:

       1A    -26.318807     2A    -20.551517     3A    -11.336887
       4A    -11.256685     5A    -11.256626     6A    -11.251268
       7A    -11.251251     8A    -11.246599     9A     -1.637797
      10A     -1.339127    11A     -1.172612    12A     -1.040596
      13A     -1.031138    14A     -0.864173    15A     -0.851564
      16A     -0.755912    17A     -0.711185    18A     -0.706999
      19A     -0.698516    20A     -0.696556    21A     -0.632441
      22A     -0.614934    23A     -0.604930    24A     -0.574905
      25A     -0.539156    26A     -0.518281    27A     -0.516266
      28A     -0.497135    29A     -0.359386    30A     -0.349248

  @DF-RHF Final Energy:  -405.76024686900405

   => Energetics <=

    Nuclear Repulsion Energy =            330.3180495256075915
    One-Electron Energy =               -1209.7915938189782992
    Two-Electron Energy =                 473.7132974243666013
    Total Energy =                       -405.7602468690040496

  Dipole Moment: [D]
     X:    -4.1549      Y:    -0.0397      Z:    -0.0072     Total:     4.1551

  Basis Set: (AUG-CC-PVQZ AUX)
    Blend: AUG-CC-PVQZ-RI
	 Reference Energy          =    -405.7602468690040496 [Eh]
	 Singles Energy            =      -0.0000000000000000 [Eh]
	 Same-Spin Energy          =      -0.4214236365575793 [Eh]
	 Opposite-Spin Energy      =      -1.3829230243040405 [Eh]
	 Correlation Energy        =      -1.8043466608616199 [Eh]
	 Total Energy              =    -407.5645935298656468 [Eh]

	 ================> DF-SCS-MP2 Energies <==================
	-----------------------------------------------------------
	 SCS Same-Spin Scale       =       0.3333333333333333 [-]
	 SCS Opposite-Spin Scale   =       1.2000000000000000 [-]
	 SCS Same-Spin Energy      =      -0.1404745455191931 [Eh]
	 SCS Opposite-Spin Energy  =      -1.6595076291648485 [Eh]
	 SCS Correlation Energy    =      -1.7999821746840416 [Eh]
	 SCS Total Energy          =    -407.5602290436880821 [Eh]
	-----------------------------------------------------------

*** Psi4 exiting successfully. Buy a developer a beer!
