                               Psi4 1.4a2.dev224

  ==> Input File <==

--------------------------------------------------------------------------
#Generated by lconvert.py for cbs job

memory 40 GB

molecule  {
0 1
  F        1.8654390    -0.0370790    -0.0002270
  C        0.5153080    -0.0220130    -0.0001050
  C       -0.1371250     1.2001480    -0.0001600
  C       -0.1642150    -1.2293140     0.0000630
  C       -1.5303250     1.2070050    -0.0000410
  C       -1.5572190    -1.2050940     0.0001800
  C       -2.2415440     0.0087370     0.0001280
  H        0.4381760     2.1142970    -0.0002860
  H        0.3905970    -2.1560310     0.0000990
  H       -2.0566140     2.1511550    -0.0000790
  H       -2.1044390    -2.1372690     0.0003130
  H       -3.3219480     0.0207840     0.0002210
--
0 1
  O        4.7162220     0.0321220     0.0012800
  H        4.1133910     0.0137940     0.7473080
  H        4.1188420     0.0156960    -0.7491580
units angstrom
no_reorient
symmetry c1
}

set {
scf_type DF
mp2_type DF
e_convergence 7
reference rhf
}

energy('mp2/aug-cc-pv[tq]z', bsse_type='cp')
--------------------------------------------------------------------------

    Molecular point group: c1
  Charge       = 0
  Multiplicity = 1
  Basis Set: AUG-CC-PVTZ
    Blend: AUG-CC-PVTZ
  Basis Set: (AUG-CC-PVTZ AUX)
    Blend: AUG-CC-PVTZ-JKFIT
  @DF-RHF Final Energy:   -76.06023148443994
    Total Energy =                        -76.0602314844399388
  Basis Set: (AUG-CC-PVTZ AUX)
    Blend: AUG-CC-PVTZ-RI
	 Reference Energy          =     -76.0602314844399388 [Eh]
	 Singles Energy            =      -0.0000000000000000 [Eh]
	 Same-Spin Energy          =      -0.0684139216945092 [Eh]
	 Opposite-Spin Energy      =      -0.2153737594162909 [Eh]
	 Correlation Energy        =      -0.2837876811108002 [Eh]
	 Total Energy              =     -76.3440191655507334 [Eh]
	 SCS Total Energy          =     -76.3414846363043296 [Eh]
    Molecular point group: c1
  Basis Set: AUG-CC-PVQZ
    Blend: AUG-CC-PVQZ
  Basis Set: (AUG-CC-PVQZ AUX)
    Blend: AUG-CC-PVQZ-JKFIT
  @DF-RHF Final Energy:   -76.06561660457660
    Total Energy =                        -76.0656166045766042
  Basis Set: (AUG-CC-PVQZ AUX)
  @DF-RHF Final Energy:   -76.06027799895914
    Total Energy =                        -76.0602779989591369
  @DF-RHF Final Energy:   -76.06563649975209
    Total Energy =                        -76.0656364997520882
  @DF-RHF Final Energy:  -329.67261690253611
    Total Energy =                       -329.6726169025361060
  @DF-RHF Final Energy:  -329.69258746142896
    Total Energy =                       -329.6925874614289569
  @DF-RHF Final Energy:  -329.67248812506972
    Total Energy =                       -329.6724881250697194
  @DF-RHF Final Energy:  -329.69255687078578
    Total Energy =                       -329.6925568707857792
  Multiplicity = 1
  @DF-RHF Final Energy:  -405.73395609469577
    Total Energy =                       -405.7339560946957704
	 Singles Energy            =      -0.0000000000000000 [Eh]
	 Same-Spin Energy          =      -0.3975331674582795 [Eh]
	 Opposite-Spin Energy      =      -1.2236302111352633 [Eh]
	 Correlation Energy        =      -1.6211633785935429 [Eh]
	 Total Energy              =    -407.3551194732893350 [Eh]
	 SCS Total Energy          =    -407.3348234038775217 [Eh]
    Molecular point group: c1

    Geometry (in Angstrom), charge = 0, multiplicity = 1:

       Center              X                  Y                   Z               Mass
    ------------   -----------------  -----------------  -----------------  -----------------
         F            1.417515303890    -0.031340862325    -0.000361561426    18.998403162730
         C            0.067384303890    -0.016274862325    -0.000239561426    12.000000000000
         C           -0.585048696110     1.205886137675    -0.000294561426    12.000000000000
         C           -0.612138696110    -1.223575862325    -0.000071561426    12.000000000000
         C           -1.978248696110     1.212743137675    -0.000175561426    12.000000000000
         C           -2.005142696110    -1.199355862325     0.000045438574    12.000000000000
         C           -2.689467696110     0.014475137675    -0.000006561426    12.000000000000
         H           -0.009747696110     2.120035137675    -0.000420561426     1.007825032230
         H           -0.057326696110    -2.150292862325    -0.000035561426     1.007825032230
         H           -2.504537696110     2.156893137675    -0.000213561426     1.007825032230
         H           -2.552362696110    -2.131530862325     0.000178438574     1.007825032230
         H           -3.769871696110     0.026522137675     0.000086438574     1.007825032230
         O            4.268298303890     0.037860137675     0.001145438574    15.994914619570
         H            3.665467303890     0.019532137675     0.747173438574     1.007825032230
         H            3.670918303890     0.021434137675    -0.749292561426     1.007825032230

  Charge       = 0
  Multiplicity = 1
  Basis Set: AUG-CC-PVQZ
    Blend: AUG-CC-PVQZ
  Basis Set: (AUG-CC-PVQZ AUX)
    Blend: AUG-CC-PVQZ-JKFIT

    Orbital Energies [Eh]
    ---------------------

    Doubly Occupied:

       1A    -26.322908     2A    -20.544892     3A    -11.338823
       4A    -11.258037     5A    -11.257977     6A    -11.252979
       7A    -11.252961     8A    -11.248091     9A     -1.642801
      10A     -1.333482    11A     -1.174278    12A     -1.042127
      13A     -1.033150    14A     -0.865973    15A     -0.854729
      16A     -0.759636    17A     -0.714569    18A     -0.712973
      19A     -0.698785    20A     -0.691905    21A     -0.634302
      22A     -0.616851    23A     -0.607170    24A     -0.568663
      25A     -0.540315    26A     -0.520034    27A     -0.517900
      28A     -0.491251    29A     -0.360780    30A     -0.351147

  @DF-RHF Final Energy:  -405.75927685688907

   => Energetics <=

    Nuclear Repulsion Energy =            336.1162580385159799
    One-Electron Energy =               -1221.3320893891673222
    Two-Electron Energy =                 479.4565544937622690
    Total Energy =                       -405.7592768568890733

  Dipole Moment: [D]
     X:    -4.3129      Y:    -0.0401      Z:    -0.0072     Total:     4.3131

  Basis Set: (AUG-CC-PVQZ AUX)
    Blend: AUG-CC-PVQZ-RI
	 Reference Energy          =    -405.7592768568890733 [Eh]
	 Singles Energy            =      -0.0000000000000000 [Eh]
	 Same-Spin Energy          =      -0.4218944376406963 [Eh]
	 Opposite-Spin Energy      =      -1.3834283062098520 [Eh]
	 Correlation Energy        =      -1.8053227438505484 [Eh]
	 Total Energy              =    -407.5645996007395979 [Eh]

	 ================> DF-SCS-MP2 Energies <==================
	-----------------------------------------------------------
	 SCS Same-Spin Scale       =       0.3333333333333333 [-]
	 SCS Opposite-Spin Scale   =       1.2000000000000000 [-]
	 SCS Same-Spin Energy      =      -0.1406314792135654 [Eh]
	 SCS Opposite-Spin Energy  =      -1.6601139674518224 [Eh]
	 SCS Correlation Energy    =      -1.8007454466653878 [Eh]
	 SCS Total Energy          =    -407.5600223035544332 [Eh]
	-----------------------------------------------------------

*** Psi4 exiting successfully. Buy a developer a beer!
