                               Psi4 1.4a2.dev224

  ==> Input File <==

--------------------------------------------------------------------------
#Generated by lconvert.py for cbs job

memory 40 GB

molecule  {
0 1
  F        1.8654390    -0.0370790    -0.0002270
  C        0.5153080    -0.0220130    -0.0001050
  C       -0.1371250     1.2001480    -0.0001600
  C       -0.1642150    -1.2293140     0.0000630
  C       -1.5303250     1.2070050    -0.0000410
  C       -1.5572190    -1.2050940     0.0001800
  C       -2.2415440     0.0087370     0.0001280
  H        0.4381760     2.1142970    -0.0002860
  H        0.3905970    -2.1560310     0.0000990
  H       -2.0566140     2.1511550    -0.0000790
  H       -2.1044390    -2.1372690     0.0003130
  H       -3.3219480     0.0207840     0.0002210
--
0 1
  O        4.0827150     0.0167440     0.0009460
  H        3.4798840    -0.0015840     0.7469730
  H        3.4853350     0.0003180    -0.7494930
units angstrom
no_reorient
symmetry c1
}

set {
scf_type DF
mp2_type DF
e_convergence 7
reference rhf
}

energy('mp2/aug-cc-pv[tq]z', bsse_type='cp')
--------------------------------------------------------------------------

    Molecular point group: c1
  Charge       = 0
  Multiplicity = 1
  Basis Set: AUG-CC-PVTZ
    Blend: AUG-CC-PVTZ
  Basis Set: (AUG-CC-PVTZ AUX)
    Blend: AUG-CC-PVTZ-JKFIT
  @DF-RHF Final Energy:   -76.06023148423586
    Total Energy =                        -76.0602314842358425
  Basis Set: (AUG-CC-PVTZ AUX)
    Blend: AUG-CC-PVTZ-RI
	 Reference Energy          =     -76.0602314842358567 [Eh]
	 Singles Energy            =      -0.0000000000000000 [Eh]
	 Same-Spin Energy          =      -0.0684139217430297 [Eh]
	 Opposite-Spin Energy      =      -0.2153737595598492 [Eh]
	 Correlation Energy        =      -0.2837876813028788 [Eh]
	 Total Energy              =     -76.3440191655387395 [Eh]
	 SCS Total Energy          =     -76.3414846362886834 [Eh]
    Molecular point group: c1
  Basis Set: AUG-CC-PVQZ
    Blend: AUG-CC-PVQZ
  Basis Set: (AUG-CC-PVQZ AUX)
    Blend: AUG-CC-PVQZ-JKFIT
  @DF-RHF Final Energy:   -76.06561660433471
    Total Energy =                        -76.0656166043347071
  Basis Set: (AUG-CC-PVQZ AUX)
  @DF-RHF Final Energy:   -76.06030639866842
    Total Energy =                        -76.0603063986684163
  @DF-RHF Final Energy:   -76.06564926860180
    Total Energy =                        -76.0656492686018026
  @DF-RHF Final Energy:  -329.67272659937504
    Total Energy =                       -329.6727265993750393
  @DF-RHF Final Energy:  -329.69262611573799
    Total Energy =                       -329.6926261157379940
  @DF-RHF Final Energy:  -329.67248812770089
    Total Energy =                       -329.6724881277008876
  @DF-RHF Final Energy:  -329.69255687188144
    Total Energy =                       -329.6925568718814361
  @DF-RHF Final Energy:  -405.71110546709713
    Total Energy =                       -405.7111054670971271
  @DF-RHF Final Energy:  -405.73645811252038
    Total Energy =                       -405.7364581125203813
*** Psi4 exiting successfully. Buy a developer a beer!
                               Psi4 1.4a2.dev224
  @DF-RHF Final Energy:   -76.06023150495882
    Total Energy =                        -76.0602315049588213
  @DF-RHF Final Energy:   -76.06561662711560
    Total Energy =                        -76.0656166271155882
  @DF-RHF Final Energy:   -76.06028864021498
    Total Energy =                        -76.0602886402149778
  @DF-RHF Final Energy:   -76.06564267885082
    Total Energy =                        -76.0656426788508213
  @DF-RHF Final Energy:  -329.67267811711577
    Total Energy =                       -329.6726781171157654
  @DF-RHF Final Energy:  -329.69260383130103
    Total Energy =                       -329.6926038313010281
  @DF-RHF Final Energy:  -329.67248812628725
    Total Energy =                       -329.6724881262872486
  @DF-RHF Final Energy:  -329.69255687133608
    Total Energy =                       -329.6925568713360803
  @DF-RHF Final Energy:  -405.72917758202124
    Total Energy =                       -405.7291775820212365
  @DF-RHF Final Energy:  -405.75448200212264
    Total Energy =                       -405.7544820021226428
*** Psi4 exiting successfully. Buy a developer a beer!
                               Psi4 1.4a2.dev224
                               Psi4 1.4a2.dev224
                               Psi4 1.4a2.dev224
                               Psi4 1.4a2.dev224
                               Psi4 1.4a2.dev224
                               Psi4 1.4a2.dev224
                               Psi4 1.4a2.dev224
  @DF-RHF Final Energy:   -76.06023144349149
    Total Energy =                        -76.0602314434914746
  @DF-RHF Final Energy:   -76.06561655759863
    Total Energy =                        -76.0656165575986165
  @DF-RHF Final Energy:   -76.06023625527024
    Total Energy =                        -76.0602362552702402
  @DF-RHF Final Energy:   -76.06561902483878
    Total Energy =                        -76.0656190248387816
  @DF-RHF Final Energy:  -329.67249790241027
    Total Energy =                       -329.6724979024102709
  @DF-RHF Final Energy:  -329.69255950545215
    Total Energy =                       -329.6925595054521523
  @DF-RHF Final Energy:  -329.67248803354948
    Total Energy =                       -329.6724880335494845
  @DF-RHF Final Energy:  -329.69255677520101
    Total Energy =                       -329.6925567752010124
  @DF-RHF Final Energy:  -405.73354355120824
    Total Energy =                       -405.7335435512082427
  @DF-RHF Final Energy:  -405.75898390730930
    Total Energy =                       -405.7589839073093003
*** Psi4 exiting successfully. Buy a developer a beer!
                               Psi4 1.4a2.dev224
  @DF-RHF Final Energy:   -76.06023143471204
    Total Energy =                        -76.0602314347120370
  @DF-RHF Final Energy:   -76.06561654834897
    Total Energy =                        -76.0656165483489701
  @DF-RHF Final Energy:   -76.06023410082061
    Total Energy =                        -76.0602341008206224
  @DF-RHF Final Energy:   -76.06561739392473
    Total Energy =                        -76.0656173939247253
  @DF-RHF Final Energy:  -329.67249172379769
    Total Energy =                       -329.6724917237976911
  @DF-RHF Final Energy:  -329.69255812682024
    Total Energy =                       -329.6925581268202450
  @DF-RHF Final Energy:  -329.67248803449849
    Total Energy =                       -329.6724880344984854
  @DF-RHF Final Energy:  -329.69255677123869
    Total Energy =                       -329.6925567712386851
  Multiplicity = 1
  @DF-RHF Final Energy:  -405.73323276431807
    Total Energy =                       -405.7332327643180747
	 Singles Energy            =      -0.0000000000000000 [Eh]
	 Same-Spin Energy          =      -0.3967474633939649 [Eh]
	 Opposite-Spin Energy      =      -1.2223656079247478 [Eh]
	 Correlation Energy        =      -1.6191130713187127 [Eh]
	 Total Energy              =    -407.3523458356368110 [Eh]
	 SCS Total Energy          =    -407.3323206482924093 [Eh]
    Molecular point group: c1

    Geometry (in Angstrom), charge = 0, multiplicity = 1:

       Center              X                  Y                   Z               Mass
    ------------   -----------------  -----------------  -----------------  -----------------
         F            0.917293857356    -0.043486189556    -0.000627192605    18.998403162730
         C           -0.432836142644    -0.028416189556    -0.000507192605    12.000000000000
         C           -1.085266142644     1.193743810444    -0.000557192605    12.000000000000
         C           -1.112356142644    -1.235716189556    -0.000337192605    12.000000000000
         C           -2.478466142644     1.200603810444    -0.000437192605    12.000000000000
         C           -2.505366142644    -1.211496189556    -0.000217192605    12.000000000000
         C           -3.189686142644     0.002333810444    -0.000267192605    12.000000000000
         H           -0.509966142644     2.107893810444    -0.000687192605     1.007825032230
         H           -0.557546142644    -2.162436189556    -0.000297192605     1.007825032230
         H           -3.004756142644     2.144753810444    -0.000477192605     1.007825032230
         H           -3.052586142644    -2.143676189556    -0.000087192605     1.007825032230
         H           -4.270096142644     0.014373810444    -0.000177192605     1.007825032230
         O            6.935613857356     0.102603810444     0.002552807395    15.994914619570
         H            6.332783857356     0.084273810444     0.748582807395     1.007825032230
         H            6.338233857356     0.086183810444    -0.747887192605     1.007825032230

  Charge       = 0
  Multiplicity = 1
  Basis Set: AUG-CC-PVQZ
    Blend: AUG-CC-PVQZ
  Basis Set: (AUG-CC-PVQZ AUX)
    Blend: AUG-CC-PVQZ-JKFIT

    Orbital Energies [Eh]
    ---------------------

    Doubly Occupied:

       1A    -26.309747     2A    -20.561621     3A    -11.332039
       4A    -11.253255     5A    -11.253196     6A    -11.247099
       7A    -11.247078     8A    -11.243001     9A     -1.628336
      10A     -1.348926    11A     -1.168612    12A     -1.036791
      13A     -1.026676    14A     -0.859891    15A     -0.845761
      16A     -0.749435    17A     -0.708456    18A     -0.704253
      19A     -0.697173    20A     -0.691915    21A     -0.628453
      22A     -0.610632    23A     -0.599699    24A     -0.584332
      25A     -0.535436    26A     -0.514115    27A     -0.512320
      28A     -0.506655    29A     -0.355847    30A     -0.344820

  @DF-RHF Final Energy:  -405.75868010071406

   => Energetics <=

    Nuclear Repulsion Energy =            312.0278450148788352
    One-Electron Energy =               -1173.3619017522748891
    Two-Electron Energy =                 455.5753766366819946
    Total Energy =                       -405.7586801007140593

  Dipole Moment: [D]
     X:    -3.8875      Y:    -0.0393      Z:    -0.0072     Total:     3.8877

  Basis Set: (AUG-CC-PVQZ AUX)
    Blend: AUG-CC-PVQZ-RI
	 Reference Energy          =    -405.7586801007140593 [Eh]
	 Singles Energy            =      -0.0000000000000000 [Eh]
	 Same-Spin Energy          =      -0.4211059982314979 [Eh]
	 Opposite-Spin Energy      =      -1.3825900361358769 [Eh]
	 Correlation Energy        =      -1.8036960343673747 [Eh]
	 Total Energy              =    -407.5623761350814220 [Eh]

	 ================> DF-SCS-MP2 Energies <==================
	-----------------------------------------------------------
	 SCS Same-Spin Scale       =       0.3333333333333333 [-]
	 SCS Opposite-Spin Scale   =       1.2000000000000000 [-]
	 SCS Same-Spin Energy      =      -0.1403686660771659 [Eh]
	 SCS Opposite-Spin Energy  =      -1.6591080433630523 [Eh]
	 SCS Correlation Energy    =      -1.7994767094402182 [Eh]
	 SCS Total Energy          =    -407.5581568101542871 [Eh]
	-----------------------------------------------------------

*** Psi4 exiting successfully. Buy a developer a beer!
