                               Psi4 1.4a2.dev224

  ==> Input File <==

--------------------------------------------------------------------------
#Generated by lconvert.py for cbs job

memory 40 GB

molecule  {
0 1
  F        1.8654390    -0.0370790    -0.0002270
  C        0.5153080    -0.0220130    -0.0001050
  C       -0.1371250     1.2001480    -0.0001600
  C       -0.1642150    -1.2293140     0.0000630
  C       -1.5303250     1.2070050    -0.0000410
  C       -1.5572190    -1.2050940     0.0001800
  C       -2.2415440     0.0087370     0.0001280
  H        0.4381760     2.1142970    -0.0002860
  H        0.3905970    -2.1560310     0.0000990
  H       -2.0566140     2.1511550    -0.0000790
  H       -2.1044390    -2.1372690     0.0003130
  H       -3.3219480     0.0207840     0.0002210
--
0 1
  O        5.0329760     0.0398110     0.0014480
  H        4.4301450     0.0214830     0.7474750
  H        4.4355960     0.0233850    -0.7489900
units angstrom
no_reorient
symmetry c1
}

set {
scf_type DF
mp2_type DF
e_convergence 7
reference rhf
}

energy('mp2/aug-cc-pv[tq]z', bsse_type='cp')
--------------------------------------------------------------------------

    Molecular point group: c1
  Charge       = 0
  Multiplicity = 1
  Basis Set: AUG-CC-PVTZ
    Blend: AUG-CC-PVTZ
  Basis Set: (AUG-CC-PVTZ AUX)
    Blend: AUG-CC-PVTZ-JKFIT
  @DF-RHF Final Energy:   -76.06023150495302
    Total Energy =                        -76.0602315049530233
  Basis Set: (AUG-CC-PVTZ AUX)
    Blend: AUG-CC-PVTZ-RI
	 Reference Energy          =     -76.0602315049530233 [Eh]
	 Singles Energy            =      -0.0000000000000000 [Eh]
	 Same-Spin Energy          =      -0.0684139157835592 [Eh]
	 Opposite-Spin Energy      =      -0.2153737409730543 [Eh]
	 Correlation Energy        =      -0.2837876567566135 [Eh]
	 Total Energy              =     -76.3440191617096389 [Eh]
	 SCS Total Energy          =     -76.3414846327152077 [Eh]
    Molecular point group: c1
  Basis Set: AUG-CC-PVQZ
    Blend: AUG-CC-PVQZ
  Basis Set: (AUG-CC-PVQZ AUX)
    Blend: AUG-CC-PVQZ-JKFIT
  @DF-RHF Final Energy:   -76.06561662713955
    Total Energy =                        -76.0656166271395620
  Basis Set: (AUG-CC-PVQZ AUX)
  @DF-RHF Final Energy:   -76.06026582660824
    Total Energy =                        -76.0602658266082443
  @DF-RHF Final Energy:   -76.06563185240597
    Total Energy =                        -76.0656318524059714
  @DF-RHF Final Energy:  -329.67256632334124
    Total Energy =                       -329.6725663233412433
  @DF-RHF Final Energy:  -329.69258079788904
    Total Energy =                       -329.6925807978890361
  @DF-RHF Final Energy:  -329.67248812564350
    Total Energy =                       -329.6724881256434969
  @DF-RHF Final Energy:  -329.69255687445678
    Total Energy =                       -329.6925568744567840
  Multiplicity = 1
  @DF-RHF Final Energy:  -405.73486028146442
    Total Energy =                       -405.7348602814644210
	 Singles Energy            =      -0.0000000000000000 [Eh]
	 Same-Spin Energy          =      -0.3971842298294238 [Eh]
	 Opposite-Spin Energy      =      -1.2231692485634551 [Eh]
	 Correlation Energy        =      -1.6203534783928788 [Eh]
	 Total Energy              =    -407.3552137598572926 [Eh]
	 SCS Total Energy          =    -407.3350581230170633 [Eh]
    Molecular point group: c1

    Geometry (in Angstrom), charge = 0, multiplicity = 1:

       Center              X                  Y                   Z               Mass
    ------------   -----------------  -----------------  -----------------  -----------------
         F            1.367493262701    -0.032555115261    -0.000388083281    18.998403162730
         C            0.017362262701    -0.017489115261    -0.000266083281    12.000000000000
         C           -0.635070737299     1.204671884739    -0.000321083281    12.000000000000
         C           -0.662160737299    -1.224790115261    -0.000098083281    12.000000000000
         C           -2.028270737299     1.211528884739    -0.000202083281    12.000000000000
         C           -2.055164737299    -1.200570115261     0.000018916719    12.000000000000
         C           -2.739489737299     0.013260884739    -0.000033083281    12.000000000000
         H           -0.059769737299     2.118820884739    -0.000447083281     1.007825032230
         H           -0.107348737299    -2.151507115261    -0.000062083281     1.007825032230
         H           -2.554559737299     2.155678884739    -0.000240083281     1.007825032230
         H           -2.602384737299    -2.132745115261     0.000151916719     1.007825032230
         H           -3.819893737299     0.025307884739     0.000059916719     1.007825032230
         O            4.535030262701     0.044334884739     0.001286916719    15.994914619570
         H            3.932199262701     0.026006884739     0.747313916719     1.007825032230
         H            3.937650262701     0.027908884739    -0.749151083281     1.007825032230

  Charge       = 0
  Multiplicity = 1
  Basis Set: AUG-CC-PVQZ
    Blend: AUG-CC-PVQZ
  Basis Set: (AUG-CC-PVQZ AUX)
    Blend: AUG-CC-PVQZ-JKFIT

    Orbital Energies [Eh]
    ---------------------

    Doubly Occupied:

       1A    -26.320028     2A    -20.549777     3A    -11.337476
       4A    -11.257087     5A    -11.257027     6A    -11.251774
       7A    -11.251757     8A    -11.247038     9A     -1.639186
      10A     -1.337561    11A     -1.173102    12A     -1.041049
      13A     -1.031717    14A     -0.864701    15A     -0.852422
      16A     -0.756907    17A     -0.712146    18A     -0.708568
      19A     -0.697182    20A     -0.696792    21A     -0.632965
      22A     -0.615486    23A     -0.605586    24A     -0.573286
      25A     -0.539555    26A     -0.518797    27A     -0.516745
      28A     -0.495556    29A     -0.359800    30A     -0.349805

  @DF-RHF Final Energy:  -405.76022962987560

   => Energetics <=

    Nuclear Repulsion Energy =            332.1031358187885303
    One-Electron Energy =               -1213.3449687161742077
    Two-Electron Energy =                 475.4816032675100246
    Total Energy =                       -405.7602296298755959

  Dipole Moment: [D]
     X:    -4.1985      Y:    -0.0398      Z:    -0.0072     Total:     4.1987

  Basis Set: (AUG-CC-PVQZ AUX)
    Blend: AUG-CC-PVQZ-RI
	 Reference Energy          =    -405.7602296298755959 [Eh]
	 Singles Energy            =      -0.0000000000000000 [Eh]
	 Same-Spin Energy          =      -0.4215344095150382 [Eh]
	 Opposite-Spin Energy      =      -1.3830407432347136 [Eh]
	 Correlation Energy        =      -1.8045751527497518 [Eh]
	 Total Energy              =    -407.5648047826253446 [Eh]

	 ================> DF-SCS-MP2 Energies <==================
	-----------------------------------------------------------
	 SCS Same-Spin Scale       =       0.3333333333333333 [-]
	 SCS Opposite-Spin Scale   =       1.2000000000000000 [-]
	 SCS Same-Spin Energy      =      -0.1405114698383461 [Eh]
	 SCS Opposite-Spin Energy  =      -1.6596488918816563 [Eh]
	 SCS Correlation Energy    =      -1.8001603617200024 [Eh]
	 SCS Total Energy          =    -407.5603899915955708 [Eh]
	-----------------------------------------------------------

*** Psi4 exiting successfully. Buy a developer a beer!
