                               Psi4 1.4a2.dev224

  ==> Input File <==

--------------------------------------------------------------------------
#Generated by lconvert.py for cbs job

memory 40 GB

molecule  {
0 1
  F        1.8654390    -0.0370790    -0.0002270
  C        0.5153080    -0.0220130    -0.0001050
  C       -0.1371250     1.2001480    -0.0001600
  C       -0.1642150    -1.2293140     0.0000630
  C       -1.5303250     1.2070050    -0.0000410
  C       -1.5572190    -1.2050940     0.0001800
  C       -2.2415440     0.0087370     0.0001280
  H        0.4381760     2.1142970    -0.0002860
  H        0.3905970    -2.1560310     0.0000990
  H       -2.0566140     2.1511550    -0.0000790
  H       -2.1044390    -2.1372690     0.0003130
  H       -3.3219480     0.0207840     0.0002210
--
0 1
  O        4.8745990     0.0359660     0.0013640
  H        4.2717680     0.0176390     0.7473910
  H        4.2772190     0.0195400    -0.7490740
units angstrom
no_reorient
symmetry c1
}

set {
scf_type DF
mp2_type DF
e_convergence 7
reference rhf
}

energy('mp2/aug-cc-pv[tq]z', bsse_type='cp')
--------------------------------------------------------------------------

    Molecular point group: c1
  Charge       = 0
  Multiplicity = 1
  Basis Set: AUG-CC-PVTZ
    Blend: AUG-CC-PVTZ
  Basis Set: (AUG-CC-PVTZ AUX)
    Blend: AUG-CC-PVTZ-JKFIT
  @DF-RHF Final Energy:   -76.06023150583643
    Total Energy =                        -76.0602315058364269
  Basis Set: (AUG-CC-PVTZ AUX)
    Blend: AUG-CC-PVTZ-RI
	 Reference Energy          =     -76.0602315058364269 [Eh]
	 Singles Energy            =      -0.0000000000000000 [Eh]
	 Same-Spin Energy          =      -0.0684139155851567 [Eh]
	 Opposite-Spin Energy      =      -0.2153737403839981 [Eh]
	 Correlation Energy        =      -0.2837876559691547 [Eh]
	 Total Energy              =     -76.3440191618055763 [Eh]
	 SCS Total Energy          =     -76.3414846328256118 [Eh]
    Molecular point group: c1
  Basis Set: AUG-CC-PVQZ
    Blend: AUG-CC-PVQZ
  Basis Set: (AUG-CC-PVQZ AUX)
    Blend: AUG-CC-PVQZ-JKFIT
  @DF-RHF Final Energy:   -76.06561662802783
    Total Energy =                        -76.0656166280278256
  Basis Set: (AUG-CC-PVQZ AUX)
  @DF-RHF Final Energy:   -76.06027109569627
    Total Energy =                        -76.0602710956962653
  @DF-RHF Final Energy:   -76.06563426099257
    Total Energy =                        -76.0656342609925673
  @DF-RHF Final Energy:  -329.67259052483098
    Total Energy =                       -329.6725905248309800
  @DF-RHF Final Energy:  -329.69258342153796
    Total Energy =                       -329.6925834215379609
  @DF-RHF Final Energy:  -329.67248812884560
    Total Energy =                       -329.6724881288456004
  @DF-RHF Final Energy:  -329.69255687243748
    Total Energy =                       -329.6925568724374784
  Multiplicity = 1
  @DF-RHF Final Energy:  -405.73463676105763
    Total Energy =                       -405.7346367610576294
	 Singles Energy            =      -0.0000000000000000 [Eh]
	 Same-Spin Energy          =      -0.3973318037436083 [Eh]
	 Opposite-Spin Energy      =      -1.2233710493691980 [Eh]
	 Correlation Energy        =      -1.6207028531128063 [Eh]
	 Total Energy              =    -407.3553396141704184 [Eh]
	 SCS Total Energy          =    -407.3351259548818462 [Eh]
    Molecular point group: c1

    Geometry (in Angstrom), charge = 0, multiplicity = 1:

       Center              X                  Y                   Z               Mass
    ------------   -----------------  -----------------  -----------------  -----------------
         F            1.392504283296    -0.031947918669    -0.000374817935    18.998403162730
         C            0.042373283296    -0.016881918669    -0.000252817935    12.000000000000
         C           -0.610059716704     1.205279081331    -0.000307817935    12.000000000000
         C           -0.637149716704    -1.224182918669    -0.000084817935    12.000000000000
         C           -2.003259716704     1.212136081331    -0.000188817935    12.000000000000
         C           -2.030153716704    -1.199962918669     0.000032182065    12.000000000000
         C           -2.714478716704     0.013868081331    -0.000019817935    12.000000000000
         H           -0.034758716704     2.119428081331    -0.000433817935     1.007825032230
         H           -0.082337716704    -2.150899918669    -0.000048817935     1.007825032230
         H           -2.529548716704     2.156286081331    -0.000226817935     1.007825032230
         H           -2.577373716704    -2.132137918669     0.000165182065     1.007825032230
         H           -3.794882716704     0.025915081331     0.000073182065     1.007825032230
         O            4.401664283296     0.041097081331     0.001216182065    15.994914619570
         H            3.798833283296     0.022770081331     0.747243182065     1.007825032230
         H            3.804284283296     0.024671081331    -0.749221817935     1.007825032230

  Charge       = 0
  Multiplicity = 1
  Basis Set: AUG-CC-PVQZ
    Blend: AUG-CC-PVQZ
  Basis Set: (AUG-CC-PVQZ AUX)
    Blend: AUG-CC-PVQZ-JKFIT

    Orbital Energies [Eh]
    ---------------------

    Doubly Occupied:

       1A    -26.321393     2A    -20.547619     3A    -11.338122
       4A    -11.257535     5A    -11.257475     6A    -11.252341
       7A    -11.252324     8A    -11.247532     9A     -1.640826
      10A     -1.335700    11A     -1.173654    12A     -1.041557
      13A     -1.032380    14A     -0.865297    15A     -0.853455
      16A     -0.758121    17A     -0.713260    18A     -0.710508
      19A     -0.697914    20A     -0.694642    21A     -0.633577
      22A     -0.616118    23A     -0.606327    24A     -0.571260
      25A     -0.539957    26A     -0.519377    27A     -0.517286
      28A     -0.493631    29A     -0.360262    30A     -0.350434

  @DF-RHF Final Energy:  -405.75998154409893

   => Energetics <=

    Nuclear Repulsion Energy =            334.0294926196891652
    One-Electron Energy =               -1217.1791793538795901
    Two-Electron Energy =                 477.3897051900915471
    Total Energy =                       -405.7599815440989346

  Dipole Moment: [D]
     X:    -4.2505      Y:    -0.0399      Z:    -0.0072     Total:     4.2507

  Basis Set: (AUG-CC-PVQZ AUX)
    Blend: AUG-CC-PVQZ-RI
	 Reference Energy          =    -405.7599815440989346 [Eh]
	 Singles Energy            =      -0.0000000000000000 [Eh]
	 Same-Spin Energy          =      -0.4216858337234422 [Eh]
	 Opposite-Spin Energy      =      -1.3832032672258556 [Eh]
	 Correlation Energy        =      -1.8048891009492978 [Eh]
	 Total Energy              =    -407.5648706450482450 [Eh]

	 ================> DF-SCS-MP2 Energies <==================
	-----------------------------------------------------------
	 SCS Same-Spin Scale       =       0.3333333333333333 [-]
	 SCS Opposite-Spin Scale   =       1.2000000000000000 [-]
	 SCS Same-Spin Energy      =      -0.1405619445744807 [Eh]
	 SCS Opposite-Spin Energy  =      -1.6598439206710267 [Eh]
	 SCS Correlation Energy    =      -1.8004058652455075 [Eh]
	 SCS Total Energy          =    -407.5603874093444574 [Eh]
	-----------------------------------------------------------

*** Psi4 exiting successfully. Buy a developer a beer!
