                               Psi4 1.4a2.dev224

  ==> Input File <==

--------------------------------------------------------------------------
#Generated by lconvert.py for cbs job

memory 40 GB

molecule  {
0 1
 Cl        2.0129150    -0.1411090     0.0000460
  C        0.2808090    -0.0721020     0.0000070
  C       -0.3578450     1.1655420    -0.0000280
  C       -0.4510000    -1.2570420     0.0000120
  C       -1.7498190     1.2121640    -0.0000570
  C       -1.8423560    -1.1962090    -0.0000170
  C       -2.4949320     0.0348750    -0.0000520
  H        0.2311970     2.0711410    -0.0000330
  H        0.0672090    -2.2049560     0.0000410
  H       -2.2500010     2.1708700    -0.0000860
  H       -2.4146820    -2.1136480    -0.0000150
  H       -3.5750080     0.0764250    -0.0000780
--
0 1
  O        5.3395380    -0.2704030     0.0001050
  H        5.5993960     0.2622380     0.7541670
  H        5.5993850     0.2622210    -0.7539760
units angstrom
no_reorient
symmetry c1
}

set {
scf_type DF
mp2_type DF
e_convergence 7
reference rhf
}

energy('mp2/aug-cc-pv[tq]z', bsse_type='cp')
--------------------------------------------------------------------------

    Molecular point group: c1
  Charge       = 0
  Multiplicity = 1
  Basis Set: AUG-CC-PVTZ
    Blend: AUG-CC-PVTZ
  Basis Set: (AUG-CC-PVTZ AUX)
    Blend: AUG-CC-PVTZ-JKFIT
  @DF-RHF Final Energy:   -76.06040674464298
    Total Energy =                        -76.0604067446429752
  Basis Set: (AUG-CC-PVTZ AUX)
    Blend: AUG-CC-PVTZ-RI
	 Reference Energy          =     -76.0604067446429752 [Eh]
	 Singles Energy            =      -0.0000000000000000 [Eh]
	 Same-Spin Energy          =      -0.0683837916033354 [Eh]
	 Opposite-Spin Energy      =      -0.2152929284761293 [Eh]
	 Correlation Energy        =      -0.2836767200794647 [Eh]
	 Total Energy              =     -76.3440834647224449 [Eh]
	 SCS Total Energy          =     -76.3415528560154399 [Eh]
    Molecular point group: c1
  Basis Set: AUG-CC-PVQZ
    Blend: AUG-CC-PVQZ
  Basis Set: (AUG-CC-PVQZ AUX)
    Blend: AUG-CC-PVQZ-JKFIT
  @DF-RHF Final Energy:   -76.06579158543272
    Total Energy =                        -76.0657915854327200
  Basis Set: (AUG-CC-PVQZ AUX)
  @DF-RHF Final Energy:   -76.06044812013138
    Total Energy =                        -76.0604481201313831
  @DF-RHF Final Energy:   -76.06581024265512
    Total Energy =                        -76.0658102426551181
  @DF-RHF Final Energy:  -689.71665014969744
    Total Energy =                       -689.7166501496974433
  @DF-RHF Final Energy:  -689.73346550087524
    Total Energy =                       -689.7334655008752407
  @DF-RHF Final Energy:  -689.71662925085604
    Total Energy =                       -689.7166292508560446
  @DF-RHF Final Energy:  -689.73346237060241
    Total Energy =                       -689.7334623706024104
  Multiplicity = 1
  @DF-RHF Final Energy:  -765.77669575330958
    Total Energy =                       -765.7766957533095820
	 Singles Energy            =      -0.0000000000000000 [Eh]
	 Same-Spin Energy          =      -0.3897769030467690 [Eh]
	 Opposite-Spin Energy      =      -1.1970955085176640 [Eh]
	 Correlation Energy        =      -1.5868724115644330 [Eh]
	 Total Energy              =    -767.3635681648739819 [Eh]
	 SCS Total Energy          =    -767.3431359978796991 [Eh]
    Molecular point group: c1

    Geometry (in Angstrom), charge = 0, multiplicity = 1:

       Center              X                  Y                   Z               Mass
    ------------   -----------------  -----------------  -----------------  -----------------
         CL           1.399955871429    -0.063548038763     0.000033015777    34.968852682000
         C           -0.332150128571     0.005458961237    -0.000005984223    12.000000000000
         C           -0.970804128571     1.243102961237    -0.000040984223    12.000000000000
         C           -1.063959128571    -1.179481038763    -0.000000984223    12.000000000000
         C           -2.362778128571     1.289724961237    -0.000069984223    12.000000000000
         C           -2.455315128571    -1.118648038763    -0.000029984223    12.000000000000
         C           -3.107891128571     0.112435961237    -0.000064984223    12.000000000000
         H           -0.381762128571     2.148701961237    -0.000045984223     1.007825032230
         H           -0.545750128571    -2.127395038763     0.000028015777     1.007825032230
         H           -2.862960128571     2.248430961237    -0.000098984223     1.007825032230
         H           -3.027641128571    -2.036087038763    -0.000027984223     1.007825032230
         H           -4.187967128571     0.153985961237    -0.000090984223     1.007825032230
         O            4.726578871429    -0.192842038763     0.000092015777    15.994914619570
         H            4.986436871429     0.339798961237     0.754154015777     1.007825032230
         H            4.986425871429     0.339781961237    -0.753988984223     1.007825032230

  Charge       = 0
  Multiplicity = 1
  Basis Set: AUG-CC-PVQZ
    Blend: AUG-CC-PVQZ
  Basis Set: (AUG-CC-PVQZ AUX)
    Blend: AUG-CC-PVQZ-JKFIT

    Orbital Energies [Eh]
    ---------------------

    Doubly Occupied:

       1A   -104.830820     2A    -20.561938     3A    -11.296935
       4A    -11.245602     5A    -11.245271     6A    -11.244255
       7A    -11.243810     8A    -11.240501     9A    -10.556228
      10A     -8.023349    11A     -8.021527    12A     -8.021486
      13A     -1.349515    14A     -1.185406    15A     -1.113971
      16A     -1.027670    17A     -0.991405    18A     -0.842217
      19A     -0.815618    20A     -0.711961    21A     -0.707863
      22A     -0.644639    23A     -0.643283    24A     -0.599840
      25A     -0.587650    26A     -0.580617    27A     -0.539942
      28A     -0.513200    29A     -0.512696    30A     -0.501266
      31A     -0.463886    32A     -0.446662    33A     -0.348233
      34A     -0.331064

  @DF-RHF Final Energy:  -765.79888308075522

   => Energetics <=

    Nuclear Repulsion Energy =            385.1654542216176083
    One-Electron Energy =               -1815.9479903568571899
    Two-Electron Energy =                 664.9836530544843072
    Total Energy =                       -765.7988830807552176

  Dipole Moment: [D]
     X:    -0.6565      Y:     1.7492      Z:    -0.0001     Total:     1.8683

  Basis Set: (AUG-CC-PVQZ AUX)
    Blend: AUG-CC-PVQZ-RI
	 Reference Energy          =    -765.7988830807552176 [Eh]
	 Singles Energy            =      -0.0000000000000000 [Eh]
	 Same-Spin Energy          =      -0.4183671313321734 [Eh]
	 Opposite-Spin Energy      =      -1.3580917985358361 [Eh]
	 Correlation Energy        =      -1.7764589298680096 [Eh]
	 Total Energy              =    -767.5753420106232170 [Eh]

	 ================> DF-SCS-MP2 Energies <==================
	-----------------------------------------------------------
	 SCS Same-Spin Scale       =       0.3333333333333333 [-]
	 SCS Opposite-Spin Scale   =       1.2000000000000000 [-]
	 SCS Same-Spin Energy      =      -0.1394557104440578 [Eh]
	 SCS Opposite-Spin Energy  =      -1.6297101582430031 [Eh]
	 SCS Correlation Energy    =      -1.7691658686870610 [Eh]
	 SCS Total Energy          =    -767.5680489494423000 [Eh]
	-----------------------------------------------------------

*** Psi4 exiting successfully. Buy a developer a beer!
