                               Psi4 1.4a2.dev224

  ==> Input File <==

--------------------------------------------------------------------------
#Generated by lconvert.py for cbs job

memory 20 GB

molecule  {
0 1
 Cl       2.012920   -0.141110    0.000050
  C       0.280810   -0.072100    0.000010
  C      -0.357850    1.165540   -0.000030
  C      -0.451000   -1.257040    0.000010
  C      -1.749820    1.212160   -0.000060
  C      -1.842360   -1.196210   -0.000020
  C      -2.494930    0.034880   -0.000050
  H       0.231200    2.071140   -0.000030
  H       0.067210   -2.204960    0.000040
  H      -2.250000    2.170870   -0.000090
  H      -2.414680   -2.113650   -0.000020
  H      -3.575010    0.076430   -0.000080
--
0 1
  O       7.335510   -0.347980    0.000140
  H       7.595370    0.184660    0.754200
  H       7.595360    0.184650   -0.753940
units angstrom
no_reorient
symmetry c1
}

set {
scf_type DF
mp2_type DF
e_convergence 7
reference rhf
}

energy('mp2/aug-cc-pv[tq]z', bsse_type='cp')
--------------------------------------------------------------------------

    Molecular point group: c1
  Charge       = 0
  Multiplicity = 1
  Basis Set: AUG-CC-PVTZ
    Blend: AUG-CC-PVTZ
  Basis Set: (AUG-CC-PVTZ AUX)
    Blend: AUG-CC-PVTZ-JKFIT
  @DF-RHF Final Energy:   -76.06040663706393
    Total Energy =                        -76.0604066370639487
  Basis Set: (AUG-CC-PVTZ AUX)
    Blend: AUG-CC-PVTZ-RI
	 Reference Energy          =     -76.0604066370639345 [Eh]
	 Singles Energy            =      -0.0000000000000000 [Eh]
	 Same-Spin Energy          =      -0.0683838160419109 [Eh]
	 Opposite-Spin Energy      =      -0.2152929998478732 [Eh]
	 Correlation Energy        =      -0.2836768158897841 [Eh]
	 Total Energy              =     -76.3440834529537256 [Eh]
	 SCS Total Energy          =     -76.3415528422286798 [Eh]
    Molecular point group: c1
  Basis Set: AUG-CC-PVQZ
    Blend: AUG-CC-PVQZ
  Basis Set: (AUG-CC-PVQZ AUX)
    Blend: AUG-CC-PVQZ-JKFIT
  @DF-RHF Final Energy:   -76.06579147387539
    Total Energy =                        -76.0657914738753931
  Basis Set: (AUG-CC-PVQZ AUX)
  @DF-RHF Final Energy:   -76.06040908134520
    Total Energy =                        -76.0604090813451990
  @DF-RHF Final Energy:   -76.06579381528218
    Total Energy =                        -76.0657938152821771
  @DF-RHF Final Energy:  -689.71663127737975
    Total Energy =                       -689.7166312773797472
  @DF-RHF Final Energy:  -689.73346281351633
    Total Energy =                       -689.7334628135163257
  @DF-RHF Final Energy:  -689.71662923083943
    Total Energy =                       -689.7166292308394304
  @DF-RHF Final Energy:  -689.73346233787890
    Total Energy =                       -689.7334623378789047
  Multiplicity = 1
  @DF-RHF Final Energy:  -765.77688151442430
    Total Energy =                       -765.7768815144243035
	 Singles Energy            =      -0.0000000000000000 [Eh]
	 Same-Spin Energy          =      -0.3890451228347427 [Eh]
	 Opposite-Spin Energy      =      -1.1960594479306050 [Eh]
	 Correlation Energy        =      -1.5851045707653477 [Eh]
	 Total Energy              =    -767.3619860851896419 [Eh]
	 SCS Total Energy          =    -767.3418345595525807 [Eh]
    Molecular point group: c1

    Geometry (in Angstrom), charge = 0, multiplicity = 1:

       Center              X                  Y                   Z               Mass
    ------------   -----------------  -----------------  -----------------  -----------------
         CL           1.123471971944    -0.052802775233     0.000031630646    34.968852682000
         C           -0.608638028056     0.016207224767    -0.000008369354    12.000000000000
         C           -1.247298028056     1.253847224767    -0.000048369354    12.000000000000
         C           -1.340448028056    -1.168732775233    -0.000008369354    12.000000000000
         C           -2.639268028056     1.300467224767    -0.000078369354    12.000000000000
         C           -2.731808028056    -1.107902775233    -0.000038369354    12.000000000000
         C           -3.384378028056     0.123187224767    -0.000068369354    12.000000000000
         H           -0.658248028056     2.159447224767    -0.000048369354     1.007825032230
         H           -0.822238028056    -2.116652775233     0.000021630646     1.007825032230
         H           -3.139448028056     2.259177224767    -0.000108369354     1.007825032230
         H           -3.304128028056    -2.025342775233    -0.000038369354     1.007825032230
         H           -4.464458028056     0.164737224767    -0.000098369354     1.007825032230
         O            6.446061971944    -0.259672775233     0.000121630646    15.994914619570
         H            6.705921971944     0.272967224767     0.754181630646     1.007825032230
         H            6.705911971944     0.272957224767    -0.753958369354     1.007825032230

  Charge       = 0
  Multiplicity = 1
  Basis Set: AUG-CC-PVQZ
    Blend: AUG-CC-PVQZ
  Basis Set: (AUG-CC-PVQZ AUX)
    Blend: AUG-CC-PVQZ-JKFIT

    Orbital Energies [Eh]
    ---------------------

    Doubly Occupied:

       1A   -104.836097     2A    -20.562320     3A    -11.301119
       4A    -11.248190     5A    -11.247964     6A    -11.246977
       7A    -11.246731     8A    -11.243074     9A    -10.561656
      10A     -8.028811    11A     -8.027045    12A     -8.026997
      13A     -1.349403    14A     -1.189097    15A     -1.117984
      16A     -1.030335    17A     -0.994857    18A     -0.844988
      19A     -0.818569    20A     -0.712026    21A     -0.710652
      22A     -0.647447    23A     -0.646205    24A     -0.602404
      25A     -0.588318    26A     -0.583130    27A     -0.543574
      28A     -0.515546    29A     -0.510816    30A     -0.507426
      31A     -0.467968    32A     -0.451965    33A     -0.350683
      34A     -0.334467

  @DF-RHF Final Energy:  -765.79910082089225

   => Energetics <=

    Nuclear Repulsion Energy =            367.4771394996778326
    One-Electron Energy =               -1780.3627713875146128
    Two-Electron Energy =                 647.0865310669445307
    Total Energy =                       -765.7991008208922494

  Dipole Moment: [D]
     X:    -0.9266      Y:     1.8205      Z:    -0.0001     Total:     2.0427

  Basis Set: (AUG-CC-PVQZ AUX)
    Blend: AUG-CC-PVQZ-RI
	 Reference Energy          =    -765.7991008208922494 [Eh]
	 Singles Energy            =      -0.0000000000000000 [Eh]
	 Same-Spin Energy          =      -0.4176451760286842 [Eh]
	 Opposite-Spin Energy      =      -1.3572212262938752 [Eh]
	 Correlation Energy        =      -1.7748664023225595 [Eh]
	 Total Energy              =    -767.5739672232148223 [Eh]

	 ================> DF-SCS-MP2 Energies <==================
	-----------------------------------------------------------
	 SCS Same-Spin Scale       =       0.3333333333333333 [-]
	 SCS Opposite-Spin Scale   =       1.2000000000000000 [-]
	 SCS Same-Spin Energy      =      -0.1392150586762281 [Eh]
	 SCS Opposite-Spin Energy  =      -1.6286654715526503 [Eh]
	 SCS Correlation Energy    =      -1.7678805302288785 [Eh]
	 SCS Total Energy          =    -767.5669813511211714 [Eh]
	-----------------------------------------------------------

*** Psi4 exiting successfully. Buy a developer a beer!
