                               Psi4 1.4a2.dev224

  ==> Input File <==

--------------------------------------------------------------------------
#Generated by lconvert.py for cbs job

memory 40 GB

molecule  {
0 1
 Cl        2.0129150    -0.1411090     0.0000460
  C        0.2808090    -0.0721020     0.0000070
  C       -0.3578450     1.1655420    -0.0000280
  C       -0.4510000    -1.2570420     0.0000120
  C       -1.7498190     1.2121640    -0.0000570
  C       -1.8423560    -1.1962090    -0.0000170
  C       -2.4949320     0.0348750    -0.0000520
  H        0.2311970     2.0711410    -0.0000330
  H        0.0672090    -2.2049560     0.0000410
  H       -2.2500010     2.1708700    -0.0000860
  H       -2.4146820    -2.1136480    -0.0000150
  H       -3.5750080     0.0764250    -0.0000780
--
0 1
  O        4.6742130    -0.2445440     0.0000930
  H        4.9340710     0.2880970     0.7541550
  H        4.9340600     0.2880800    -0.7539880
units angstrom
no_reorient
symmetry c1
}

set {
scf_type DF
mp2_type DF
e_convergence 7
reference rhf
}

energy('mp2/aug-cc-pv[tq]z', bsse_type='cp')
--------------------------------------------------------------------------

    Molecular point group: c1
  Charge       = 0
  Multiplicity = 1
  Basis Set: AUG-CC-PVTZ
    Blend: AUG-CC-PVTZ
  Basis Set: (AUG-CC-PVTZ AUX)
    Blend: AUG-CC-PVTZ-JKFIT
  @DF-RHF Final Energy:   -76.06040674464201
    Total Energy =                        -76.0604067446420089
  Basis Set: (AUG-CC-PVTZ AUX)
    Blend: AUG-CC-PVTZ-RI
	 Reference Energy          =     -76.0604067446420089 [Eh]
	 Singles Energy            =      -0.0000000000000000 [Eh]
	 Same-Spin Energy          =      -0.0683837916033410 [Eh]
	 Opposite-Spin Energy      =      -0.2152929284760823 [Eh]
	 Correlation Energy        =      -0.2836767200794232 [Eh]
	 Total Energy              =     -76.3440834647214359 [Eh]
	 SCS Total Energy          =     -76.3415528560144168 [Eh]
    Molecular point group: c1
  Basis Set: AUG-CC-PVQZ
    Blend: AUG-CC-PVQZ
  Basis Set: (AUG-CC-PVQZ AUX)
    Blend: AUG-CC-PVQZ-JKFIT
  @DF-RHF Final Energy:   -76.06579158545355
    Total Energy =                        -76.0657915854535531
  Basis Set: (AUG-CC-PVQZ AUX)
  @DF-RHF Final Energy:   -76.06050567938500
    Total Energy =                        -76.0605056793850025
  @DF-RHF Final Energy:   -76.06582587088056
    Total Energy =                        -76.0658258708805590
  @DF-RHF Final Energy:  -689.71668491167839
    Total Energy =                       -689.7166849116783851
  @DF-RHF Final Energy:  -689.73346827226078
    Total Energy =                       -689.7334682722607795
  @DF-RHF Final Energy:  -689.71662925543876
    Total Energy =                       -689.7166292554387610
  @DF-RHF Final Energy:  -689.73346237822057
    Total Energy =                       -689.7334623782205654
  Multiplicity = 1
  @DF-RHF Final Energy:  -765.77064922416139
    Total Energy =                       -765.7706492241613887
	 Singles Energy            =      -0.0000000000000000 [Eh]
	 Same-Spin Energy          =      -0.3913579197413475 [Eh]
	 Opposite-Spin Energy      =      -1.1989850024594422 [Eh]
	 Correlation Energy        =      -1.5903429222007897 [Eh]
	 Total Energy              =    -767.3609921463621504 [Eh]
	 SCS Total Energy          =    -767.3398838670265150 [Eh]
    Molecular point group: c1

    Geometry (in Angstrom), charge = 0, multiplicity = 1:

       Center              X                  Y                   Z               Mass
    ------------   -----------------  -----------------  -----------------  -----------------
         CL           1.492118717708    -0.067130106237     0.000034678053    34.968852682000
         C           -0.239987282292     0.001876893763    -0.000004321947    12.000000000000
         C           -0.878641282292     1.239520893763    -0.000039321947    12.000000000000
         C           -0.971796282292    -1.183063106237     0.000000678053    12.000000000000
         C           -2.270615282292     1.286142893763    -0.000068321947    12.000000000000
         C           -2.363152282292    -1.122230106237    -0.000028321947    12.000000000000
         C           -3.015728282292     0.108853893763    -0.000063321947    12.000000000000
         H           -0.289599282292     2.145119893763    -0.000044321947     1.007825032230
         H           -0.453587282292    -2.130977106237     0.000029678053     1.007825032230
         H           -2.770797282292     2.244848893763    -0.000097321947     1.007825032230
         H           -2.935478282292    -2.039669106237    -0.000026321947     1.007825032230
         H           -4.095804282292     0.150403893763    -0.000089321947     1.007825032230
         O            4.153416717708    -0.170565106237     0.000081678053    15.994914619570
         H            4.413274717708     0.362075893763     0.754143678053     1.007825032230
         H            4.413263717708     0.362058893763    -0.753999321947     1.007825032230

  Charge       = 0
  Multiplicity = 1
  Basis Set: AUG-CC-PVQZ
    Blend: AUG-CC-PVQZ
  Basis Set: (AUG-CC-PVQZ AUX)
    Blend: AUG-CC-PVQZ-JKFIT

    Orbital Energies [Eh]
    ---------------------

    Doubly Occupied:

       1A   -104.825356     2A    -20.563127     3A    -11.290388
       4A    -11.242665     5A    -11.242305     6A    -11.240809
       7A    -11.240211     8A    -11.237497     9A    -10.550781
      10A     -8.017841    11A     -8.015793    12A     -8.015763
      13A     -1.354228    14A     -1.181285    15A     -1.110055
      16A     -1.024512    17A     -0.987933    18A     -0.838912
      19A     -0.812631    20A     -0.715721    21A     -0.705285
      22A     -0.643236    23A     -0.639806    24A     -0.598381
      25A     -0.596819    26A     -0.575477    27A     -0.535944
      28A     -0.522271    29A     -0.509587    30A     -0.485473
      31A     -0.460203    32A     -0.441717    33A     -0.345379
      34A     -0.327406

  @DF-RHF Final Energy:  -765.79286687673186

   => Energetics <=

    Nuclear Repulsion Energy =            395.4452848988761389
    One-Electron Energy =               -1836.6866771427737604
    Two-Electron Energy =                 675.4485253671658711
    Total Energy =                       -765.7928668767318641

  Dipole Moment: [D]
     X:    -0.2541      Y:     1.6959      Z:    -0.0001     Total:     1.7148

  Basis Set: (AUG-CC-PVQZ AUX)
    Blend: AUG-CC-PVQZ-RI
	 Reference Energy          =    -765.7928668767318641 [Eh]
	 Singles Energy            =      -0.0000000000000000 [Eh]
	 Same-Spin Energy          =      -0.4199811950949015 [Eh]
	 Opposite-Spin Energy      =      -1.3599251437739901 [Eh]
	 Correlation Energy        =      -1.7799063388688916 [Eh]
	 Total Energy              =    -767.5727732156007050 [Eh]

	 ================> DF-SCS-MP2 Energies <==================
	-----------------------------------------------------------
	 SCS Same-Spin Scale       =       0.3333333333333333 [-]
	 SCS Opposite-Spin Scale   =       1.2000000000000000 [-]
	 SCS Same-Spin Energy      =      -0.1399937316983005 [Eh]
	 SCS Opposite-Spin Energy  =      -1.6319101725287881 [Eh]
	 SCS Correlation Energy    =      -1.7719039042270885 [Eh]
	 SCS Total Energy          =    -767.5647707809589519 [Eh]
	-----------------------------------------------------------

*** Psi4 exiting successfully. Buy a developer a beer!
