                               Psi4 1.4a2.dev224

  ==> Input File <==

--------------------------------------------------------------------------
#Generated by lconvert.py for cbs job

memory 20 GB

molecule  {
0 1
 Cl       2.012920   -0.141110    0.000050
  C       0.280810   -0.072100    0.000010
  C      -0.357850    1.165540   -0.000030
  C      -0.451000   -1.257040    0.000010
  C      -1.749820    1.212160   -0.000060
  C      -1.842360   -1.196210   -0.000020
  C      -2.494930    0.034880   -0.000050
  H       0.231200    2.071140   -0.000030
  H       0.067210   -2.204960    0.000040
  H      -2.250000    2.170870   -0.000090
  H      -2.414680   -2.113650   -0.000020
  H      -3.575010    0.076430   -0.000080
--
0 1
  O       8.333500   -0.386760    0.000160
  H       8.593350    0.145880    0.754220
  H       8.593340    0.145860   -0.753920
units angstrom
no_reorient
symmetry c1
}

set {
scf_type DF
mp2_type DF
e_convergence 7
reference rhf
}

energy('mp2/aug-cc-pv[tq]z', bsse_type='cp')
--------------------------------------------------------------------------

    Molecular point group: c1
  Charge       = 0
  Multiplicity = 1
  Basis Set: AUG-CC-PVTZ
    Blend: AUG-CC-PVTZ
  Basis Set: (AUG-CC-PVTZ AUX)
    Blend: AUG-CC-PVTZ-JKFIT
  @DF-RHF Final Energy:   -76.06040711194898
    Total Energy =                        -76.0604071119489618
  Basis Set: (AUG-CC-PVTZ AUX)
    Blend: AUG-CC-PVTZ-RI
	 Reference Energy          =     -76.0604071119489760 [Eh]
	 Singles Energy            =      -0.0000000000000000 [Eh]
	 Same-Spin Energy          =      -0.0683837027061507 [Eh]
	 Opposite-Spin Energy      =      -0.2152926606511991 [Eh]
	 Correlation Energy        =      -0.2836763633573498 [Eh]
	 Total Energy              =     -76.3440834753063200 [Eh]
	 SCS Total Energy          =     -76.3415528722991326 [Eh]
    Molecular point group: c1
  Basis Set: AUG-CC-PVQZ
    Blend: AUG-CC-PVQZ
  Basis Set: (AUG-CC-PVQZ AUX)
    Blend: AUG-CC-PVQZ-JKFIT
  @DF-RHF Final Energy:   -76.06579197574452
    Total Energy =                        -76.0657919757445029
  Basis Set: (AUG-CC-PVQZ AUX)
  @DF-RHF Final Energy:   -76.06040807963650
    Total Energy =                        -76.0604080796364883
  @DF-RHF Final Energy:   -76.06579256216621
    Total Energy =                        -76.0657925621662088
  @DF-RHF Final Energy:  -689.71663013433590
    Total Energy =                       -689.7166301343359009
  @DF-RHF Final Energy:  -689.73346258959702
    Total Energy =                       -689.7334625895970248
  @DF-RHF Final Energy:  -689.71662923321344
    Total Energy =                       -689.7166292332134390
  @DF-RHF Final Energy:  -689.73346233868051
    Total Energy =                       -689.7334623386805106
  Multiplicity = 1
  @DF-RHF Final Energy:  -765.77690851726265
    Total Energy =                       -765.7769085172626546
	 Singles Energy            =      -0.0000000000000000 [Eh]
	 Same-Spin Energy          =      -0.3890059593560729 [Eh]
	 Opposite-Spin Energy      =      -1.1959908488822240 [Eh]
	 Correlation Energy        =      -1.5849968082382968 [Eh]
	 Total Energy              =    -767.3619053255009703 [Eh]
	 SCS Total Energy          =    -767.3417661890399586 [Eh]
    Molecular point group: c1

    Geometry (in Angstrom), charge = 0, multiplicity = 1:

       Center              X                  Y                   Z               Mass
    ------------   -----------------  -----------------  -----------------  -----------------
         CL           0.985227511245    -0.047430773954     0.000028860185    34.968852682000
         C           -0.746882488755     0.021579226046    -0.000011139815    12.000000000000
         C           -1.385542488755     1.259219226046    -0.000051139815    12.000000000000
         C           -1.478692488755    -1.163360773954    -0.000011139815    12.000000000000
         C           -2.777512488755     1.305839226046    -0.000081139815    12.000000000000
         C           -2.870052488755    -1.102530773954    -0.000041139815    12.000000000000
         C           -3.522622488755     0.128559226046    -0.000071139815    12.000000000000
         H           -0.796492488755     2.164819226046    -0.000051139815     1.007825032230
         H           -0.960482488755    -2.111280773954     0.000018860185     1.007825032230
         H           -3.277692488755     2.264549226046    -0.000111139815     1.007825032230
         H           -3.442372488755    -2.019970773954    -0.000041139815     1.007825032230
         H           -4.602702488755     0.170109226046    -0.000101139815     1.007825032230
         O            7.305807511245    -0.293080773954     0.000138860185    15.994914619570
         H            7.565657511245     0.239559226046     0.754198860185     1.007825032230
         H            7.565647511245     0.239539226046    -0.753941139815     1.007825032230

  Charge       = 0
  Multiplicity = 1
  Basis Set: AUG-CC-PVQZ
    Blend: AUG-CC-PVQZ
  Basis Set: (AUG-CC-PVQZ AUX)
    Blend: AUG-CC-PVQZ-JKFIT

    Orbital Energies [Eh]
    ---------------------

    Doubly Occupied:

       1A   -104.837069     2A    -20.562852     3A    -11.301793
       4A    -11.248688     5A    -11.248503     6A    -11.247472
       7A    -11.247266     8A    -11.243560     9A    -10.562647
      10A     -8.029804    11A     -8.028044    12A     -8.027995
      13A     -1.349941    14A     -1.189777    15A     -1.118723
      16A     -1.030843    17A     -0.995494    18A     -0.845512
      19A     -0.819126    20A     -0.712569    21A     -0.711191
      22A     -0.648006    23A     -0.646751    24A     -0.602900
      25A     -0.589027    26A     -0.583670    27A     -0.544254
      28A     -0.516069    29A     -0.511460    30A     -0.507973
      31A     -0.468744    32A     -0.452947    33A     -0.351161
      34A     -0.335102

  @DF-RHF Final Energy:  -765.79912709991379

   => Energetics <=

    Nuclear Repulsion Energy =            362.1787185691538298
    One-Electron Energy =               -1769.7218060834227344
    Two-Electron Energy =                 641.7439604143550014
    Total Energy =                       -765.7991270999137896

  Dipole Moment: [D]
     X:    -0.9625      Y:     1.8352      Z:    -0.0001     Total:     2.0723

  Basis Set: (AUG-CC-PVQZ AUX)
    Blend: AUG-CC-PVQZ-RI
	 Reference Energy          =    -765.7991270999137896 [Eh]
	 Singles Energy            =      -0.0000000000000000 [Eh]
	 Same-Spin Energy          =      -0.4176074816964098 [Eh]
	 Opposite-Spin Energy      =      -1.3571646326124351 [Eh]
	 Correlation Energy        =      -1.7747721143088451 [Eh]
	 Total Energy              =    -767.5738992142225925 [Eh]

	 ================> DF-SCS-MP2 Energies <==================
	-----------------------------------------------------------
	 SCS Same-Spin Scale       =       0.3333333333333333 [-]
	 SCS Opposite-Spin Scale   =       1.2000000000000000 [-]
	 SCS Same-Spin Energy      =      -0.1392024938988033 [Eh]
	 SCS Opposite-Spin Energy  =      -1.6285975591349222 [Eh]
	 SCS Correlation Energy    =      -1.7678000530337254 [Eh]
	 SCS Total Energy          =    -767.5669271529475282 [Eh]
	-----------------------------------------------------------

*** Psi4 exiting successfully. Buy a developer a beer!
