                               Psi4 1.4a2.dev224

  ==> Input File <==

--------------------------------------------------------------------------
#Generated by lconvert.py for cbs job

memory 40 GB

molecule  {
0 1
 Cl        2.0129150    -0.1411090     0.0000460
  C        0.2808090    -0.0721020     0.0000070
  C       -0.3578450     1.1655420    -0.0000280
  C       -0.4510000    -1.2570420     0.0000120
  C       -1.7498190     1.2121640    -0.0000570
  C       -1.8423560    -1.1962090    -0.0000170
  C       -2.4949320     0.0348750    -0.0000520
  H        0.2311970     2.0711410    -0.0000330
  H        0.0672090    -2.2049560     0.0000410
  H       -2.2500010     2.1708700    -0.0000860
  H       -2.4146820    -2.1136480    -0.0000150
  H       -3.5750080     0.0764250    -0.0000780
--
0 1
  O        5.5058690    -0.2768680     0.0001080
  H        5.7657270     0.2557730     0.7541700
  H        5.7657160     0.2557560    -0.7539730
units angstrom
no_reorient
symmetry c1
}

set {
scf_type DF
mp2_type DF
e_convergence 7
reference rhf
}

energy('mp2/aug-cc-pv[tq]z', bsse_type='cp')
--------------------------------------------------------------------------

    Molecular point group: c1
  Charge       = 0
  Multiplicity = 1
  Basis Set: AUG-CC-PVTZ
    Blend: AUG-CC-PVTZ
  Basis Set: (AUG-CC-PVTZ AUX)
    Blend: AUG-CC-PVTZ-JKFIT
  @DF-RHF Final Energy:   -76.06040674464748
    Total Energy =                        -76.0604067446474801
  Basis Set: (AUG-CC-PVTZ AUX)
    Blend: AUG-CC-PVTZ-RI
	 Reference Energy          =     -76.0604067446474801 [Eh]
	 Singles Energy            =      -0.0000000000000000 [Eh]
	 Same-Spin Energy          =      -0.0683837916033533 [Eh]
	 Opposite-Spin Energy      =      -0.2152929284761555 [Eh]
	 Correlation Energy        =      -0.2836767200795088 [Eh]
	 Total Energy              =     -76.3440834647269924 [Eh]
	 SCS Total Energy          =     -76.3415528560199874 [Eh]
    Molecular point group: c1
  Basis Set: AUG-CC-PVQZ
    Blend: AUG-CC-PVQZ
  Basis Set: (AUG-CC-PVQZ AUX)
    Blend: AUG-CC-PVQZ-JKFIT
  @DF-RHF Final Energy:   -76.06579158544398
    Total Energy =                        -76.0657915854439608
  Basis Set: (AUG-CC-PVQZ AUX)
  @DF-RHF Final Energy:   -76.06043680416514
    Total Energy =                        -76.0604368041651355
  @DF-RHF Final Energy:   -76.06580796235342
    Total Energy =                        -76.0658079623534320
  @DF-RHF Final Energy:  -689.71664760058832
    Total Energy =                       -689.7166476005883169
  @DF-RHF Final Energy:  -689.73346502740810
    Total Energy =                       -689.7334650274081014
  @DF-RHF Final Energy:  -689.71662925438136
    Total Energy =                       -689.7166292543813597
  @DF-RHF Final Energy:  -689.73346237368742
    Total Energy =                       -689.7334623736874164
  Multiplicity = 1
  @DF-RHF Final Energy:  -765.77687900580543
    Total Energy =                       -765.7768790058054265
	 Singles Energy            =      -0.0000000000000000 [Eh]
	 Same-Spin Energy          =      -0.3895999834720687 [Eh]
	 Opposite-Spin Energy      =      -1.1968656180741695 [Eh]
	 Correlation Energy        =      -1.5864656015462382 [Eh]
	 Total Energy              =    -767.3633446073516780 [Eh]
	 SCS Total Energy          =    -767.3429844086517733 [Eh]
    Molecular point group: c1

    Geometry (in Angstrom), charge = 0, multiplicity = 1:

       Center              X                  Y                   Z               Mass
    ------------   -----------------  -----------------  -----------------  -----------------
         CL           1.376915194490    -0.062652487264     0.000032600208    34.968852682000
         C           -0.355190805510     0.006354512736    -0.000006399792    12.000000000000
         C           -0.993844805510     1.243998512736    -0.000041399792    12.000000000000
         C           -1.086999805510    -1.178585487264    -0.000001399792    12.000000000000
         C           -2.385818805510     1.290620512736    -0.000070399792    12.000000000000
         C           -2.478355805510    -1.117752487264    -0.000030399792    12.000000000000
         C           -3.130931805510     0.113331512736    -0.000065399792    12.000000000000
         H           -0.404802805510     2.149597512736    -0.000046399792     1.007825032230
         H           -0.568790805510    -2.126499487264     0.000027600208     1.007825032230
         H           -2.886000805510     2.249326512736    -0.000099399792     1.007825032230
         H           -3.050681805510    -2.035191487264    -0.000028399792     1.007825032230
         H           -4.211007805510     0.154881512736    -0.000091399792     1.007825032230
         O            4.869869194490    -0.198411487264     0.000094600208    15.994914619570
         H            5.129727194490     0.334229512736     0.754156600208     1.007825032230
         H            5.129716194490     0.334212512736    -0.753986399792     1.007825032230

  Charge       = 0
  Multiplicity = 1
  Basis Set: AUG-CC-PVQZ
    Blend: AUG-CC-PVQZ
  Basis Set: (AUG-CC-PVQZ AUX)
    Blend: AUG-CC-PVQZ-JKFIT

    Orbital Energies [Eh]
    ---------------------

    Doubly Occupied:

       1A   -104.831654     2A    -20.561850     3A    -11.297700
       4A    -11.246015     5A    -11.245692     6A    -11.244710
       7A    -11.244293     8A    -11.240917     9A    -10.557083
      10A     -8.024212    11A     -8.022404    12A     -8.022362
      13A     -1.349217    14A     -1.185999    15A     -1.114597
      16A     -1.028102    17A     -0.991948    18A     -0.842667
      19A     -0.816081    20A     -0.711723    21A     -0.708291
      22A     -0.645036    23A     -0.643759    24A     -0.600251
      25A     -0.586903    26A     -0.581412    27A     -0.540520
      28A     -0.513267    29A     -0.511852    30A     -0.503007
      31A     -0.464503    32A     -0.447471    33A     -0.348626
      34A     -0.331604

  @DF-RHF Final Energy:  -765.79907369064642

   => Energetics <=

    Nuclear Repulsion Energy =            383.0908995724529973
    One-Electron Energy =               -1811.7684616647402436
    Two-Electron Energy =                 662.8784884016407659
    Total Energy =                       -765.7990736906464235

  Dipole Moment: [D]
     X:    -0.7066      Y:     1.7591      Z:    -0.0001     Total:     1.8957

  Basis Set: (AUG-CC-PVQZ AUX)
    Blend: AUG-CC-PVQZ-RI
	 Reference Energy          =    -765.7990736906464235 [Eh]
	 Singles Energy            =      -0.0000000000000000 [Eh]
	 Same-Spin Energy          =      -0.4181875575526495 [Eh]
	 Opposite-Spin Energy      =      -1.3578826255933205 [Eh]
	 Correlation Energy        =      -1.7760701831459700 [Eh]
	 Total Energy              =    -767.5751438737923991 [Eh]

	 ================> DF-SCS-MP2 Energies <==================
	-----------------------------------------------------------
	 SCS Same-Spin Scale       =       0.3333333333333333 [-]
	 SCS Opposite-Spin Scale   =       1.2000000000000000 [-]
	 SCS Same-Spin Energy      =      -0.1393958525175498 [Eh]
	 SCS Opposite-Spin Energy  =      -1.6294591507119847 [Eh]
	 SCS Correlation Energy    =      -1.7688550032295345 [Eh]
	 SCS Total Energy          =    -767.5679286938759560 [Eh]
	-----------------------------------------------------------

*** Psi4 exiting successfully. Buy a developer a beer!
