                               Psi4 1.4a2.dev224

  ==> Input File <==

--------------------------------------------------------------------------
#Generated by lconvert.py for cbs job

memory 40 GB

molecule  {
0 1
 Cl        2.0129150    -0.1411090     0.0000460
  C        0.2808090    -0.0721020     0.0000070
  C       -0.3578450     1.1655420    -0.0000280
  C       -0.4510000    -1.2570420     0.0000120
  C       -1.7498190     1.2121640    -0.0000570
  C       -1.8423560    -1.1962090    -0.0000170
  C       -2.4949320     0.0348750    -0.0000520
  H        0.2311970     2.0711410    -0.0000330
  H        0.0672090    -2.2049560     0.0000410
  H       -2.2500010     2.1708700    -0.0000860
  H       -2.4146820    -2.1136480    -0.0000150
  H       -3.5750080     0.0764250    -0.0000780
--
0 1
  O        5.6722000    -0.2833320     0.0001110
  H        5.9320580     0.2493090     0.7541730
  H        5.9320470     0.2492920    -0.7539700
units angstrom
no_reorient
symmetry c1
}

set {
scf_type DF
mp2_type DF
e_convergence 7
reference rhf
}

energy('mp2/aug-cc-pv[tq]z', bsse_type='cp')
--------------------------------------------------------------------------

    Molecular point group: c1
  Charge       = 0
  Multiplicity = 1
  Basis Set: AUG-CC-PVTZ
    Blend: AUG-CC-PVTZ
  Basis Set: (AUG-CC-PVTZ AUX)
    Blend: AUG-CC-PVTZ-JKFIT
  @DF-RHF Final Energy:   -76.06040674463588
    Total Energy =                        -76.0604067446358840
  Basis Set: (AUG-CC-PVTZ AUX)
    Blend: AUG-CC-PVTZ-RI
	 Reference Energy          =     -76.0604067446358840 [Eh]
	 Singles Energy            =      -0.0000000000000000 [Eh]
	 Same-Spin Energy          =      -0.0683837916033499 [Eh]
	 Opposite-Spin Energy      =      -0.2152929284760662 [Eh]
	 Correlation Energy        =      -0.2836767200794160 [Eh]
	 Total Energy              =     -76.3440834647152968 [Eh]
	 SCS Total Energy          =     -76.3415528560082777 [Eh]
    Molecular point group: c1
  Basis Set: AUG-CC-PVQZ
    Blend: AUG-CC-PVQZ
  Basis Set: (AUG-CC-PVQZ AUX)
    Blend: AUG-CC-PVQZ-JKFIT
  @DF-RHF Final Energy:   -76.06579158545171
    Total Energy =                        -76.0657915854517057
  Basis Set: (AUG-CC-PVQZ AUX)
  @DF-RHF Final Energy:   -76.06042989415945
    Total Energy =                        -76.0604298941594550
  @DF-RHF Final Energy:   -76.06580503370196
    Total Energy =                        -76.0658050337019631
  @DF-RHF Final Energy:  -689.71664496506071
    Total Energy =                       -689.7166449650607092
  @DF-RHF Final Energy:  -689.73346458617232
    Total Energy =                       -689.7334645861723175
  @DF-RHF Final Energy:  -689.71662925391900
    Total Energy =                       -689.7166292539189953
  @DF-RHF Final Energy:  -689.73346237844055
    Total Energy =                       -689.7334623784405494
  Multiplicity = 1
  @DF-RHF Final Energy:  -765.77694720633826
    Total Energy =                       -765.7769472063382636
	 Singles Energy            =      -0.0000000000000000 [Eh]
	 Same-Spin Energy          =      -0.3894659570065846 [Eh]
	 Opposite-Spin Energy      =      -1.1966842721172442 [Eh]
	 Correlation Energy        =      -1.5861502291238287 [Eh]
	 Total Energy              =    -767.3630974354621230 [Eh]
	 SCS Total Energy          =    -767.3427903185478272 [Eh]
    Molecular point group: c1

    Geometry (in Angstrom), charge = 0, multiplicity = 1:

       Center              X                  Y                   Z               Mass
    ------------   -----------------  -----------------  -----------------  -----------------
         CL           1.353874517551    -0.061757074288     0.000032184639    34.968852682000
         C           -0.378231482449     0.007249925712    -0.000006815361    12.000000000000
         C           -1.016885482449     1.244893925712    -0.000041815361    12.000000000000
         C           -1.110040482449    -1.177690074288    -0.000001815361    12.000000000000
         C           -2.408859482449     1.291515925712    -0.000070815361    12.000000000000
         C           -2.501396482449    -1.116857074288    -0.000030815361    12.000000000000
         C           -3.153972482449     0.114226925712    -0.000065815361    12.000000000000
         H           -0.427843482449     2.150492925712    -0.000046815361     1.007825032230
         H           -0.591831482449    -2.125604074288     0.000027184639     1.007825032230
         H           -2.909041482449     2.250221925712    -0.000099815361     1.007825032230
         H           -3.073722482449    -2.034296074288    -0.000028815361     1.007825032230
         H           -4.234048482449     0.155776925712    -0.000091815361     1.007825032230
         O            5.013159517551    -0.203980074288     0.000097184639    15.994914619570
         H            5.273017517551     0.328660925712     0.754159184639     1.007825032230
         H            5.273006517551     0.328643925712    -0.753983815361     1.007825032230

  Charge       = 0
  Multiplicity = 1
  Basis Set: AUG-CC-PVQZ
    Blend: AUG-CC-PVQZ
  Basis Set: (AUG-CC-PVQZ AUX)
    Blend: AUG-CC-PVQZ-JKFIT

    Orbital Energies [Eh]
    ---------------------

    Doubly Occupied:

       1A   -104.832362     2A    -20.561796     3A    -11.298311
       4A    -11.246363     5A    -11.246048     6A    -11.245087
       7A    -11.244695     8A    -11.241265     9A    -10.557812
      10A     -8.024947    11A     -8.023150    12A     -8.023106
      13A     -1.349041    14A     -1.186499    15A     -1.115134
      16A     -1.028463    17A     -0.992412    18A     -0.843043
      19A     -0.816477    20A     -0.711585    21A     -0.708660
      22A     -0.645395    23A     -0.644157    24A     -0.600596
      25A     -0.586570    26A     -0.581940    27A     -0.541008
      28A     -0.513624    29A     -0.510999    30A     -0.504294
      31A     -0.465039    32A     -0.448173    33A     -0.348955
      34A     -0.332062

  @DF-RHF Final Energy:  -765.79914726802338

   => Energetics <=

    Nuclear Repulsion Energy =            381.1674711472189188
    One-Electron Energy =               -1807.8950654665347884
    Two-Electron Energy =                 660.9284470512924372
    Total Energy =                       -765.7991472680233755

  Dipole Moment: [D]
     X:    -0.7471      Y:     1.7679      Z:    -0.0001     Total:     1.9193

  Basis Set: (AUG-CC-PVQZ AUX)
    Blend: AUG-CC-PVQZ-RI
	 Reference Energy          =    -765.7991472680233755 [Eh]
	 Singles Energy            =      -0.0000000000000000 [Eh]
	 Same-Spin Energy          =      -0.4180529530978436 [Eh]
	 Opposite-Spin Energy      =      -1.3577246669075393 [Eh]
	 Correlation Energy        =      -1.7757776200053830 [Eh]
	 Total Energy              =    -767.5749248880287041 [Eh]

	 ================> DF-SCS-MP2 Energies <==================
	-----------------------------------------------------------
	 SCS Same-Spin Scale       =       0.3333333333333333 [-]
	 SCS Opposite-Spin Scale   =       1.2000000000000000 [-]
	 SCS Same-Spin Energy      =      -0.1393509843659479 [Eh]
	 SCS Opposite-Spin Energy  =      -1.6292696002890472 [Eh]
	 SCS Correlation Energy    =      -1.7686205846549952 [Eh]
	 SCS Total Energy          =    -767.5677678526783438 [Eh]
	-----------------------------------------------------------

*** Psi4 exiting successfully. Buy a developer a beer!
