                               Psi4 1.4a2.dev224

  ==> Input File <==

--------------------------------------------------------------------------
#Generated by lconvert.py for cbs job

memory 40 GB

molecule  {
0 1
 Cl        2.0129150    -0.1411090     0.0000460
  C        0.2808090    -0.0721020     0.0000070
  C       -0.3578450     1.1655420    -0.0000280
  C       -0.4510000    -1.2570420     0.0000120
  C       -1.7498190     1.2121640    -0.0000570
  C       -1.8423560    -1.1962090    -0.0000170
  C       -2.4949320     0.0348750    -0.0000520
  H        0.2311970     2.0711410    -0.0000330
  H        0.0672090    -2.2049560     0.0000410
  H       -2.2500010     2.1708700    -0.0000860
  H       -2.4146820    -2.1136480    -0.0000150
  H       -3.5750080     0.0764250    -0.0000780
--
0 1
  O        5.0068760    -0.2574740     0.0000990
  H        5.2667340     0.2751670     0.7541610
  H        5.2667230     0.2751500    -0.7539820
units angstrom
no_reorient
symmetry c1
}

set {
scf_type DF
mp2_type DF
e_convergence 7
reference rhf
}

energy('mp2/aug-cc-pv[tq]z', bsse_type='cp')
--------------------------------------------------------------------------

    Molecular point group: c1
  Charge       = 0
  Multiplicity = 1
  Basis Set: AUG-CC-PVTZ
    Blend: AUG-CC-PVTZ
  Basis Set: (AUG-CC-PVTZ AUX)
    Blend: AUG-CC-PVTZ-JKFIT
  @DF-RHF Final Energy:   -76.06040674464154
    Total Energy =                        -76.0604067446415399
  Basis Set: (AUG-CC-PVTZ AUX)
    Blend: AUG-CC-PVTZ-RI
	 Reference Energy          =     -76.0604067446415399 [Eh]
	 Singles Energy            =      -0.0000000000000000 [Eh]
	 Same-Spin Energy          =      -0.0683837916033281 [Eh]
	 Opposite-Spin Energy      =      -0.2152929284760725 [Eh]
	 Correlation Energy        =      -0.2836767200794005 [Eh]
	 Total Energy              =     -76.3440834647209385 [Eh]
	 SCS Total Energy          =     -76.3415528560139336 [Eh]
    Molecular point group: c1
  Basis Set: AUG-CC-PVQZ
    Blend: AUG-CC-PVQZ
  Basis Set: (AUG-CC-PVQZ AUX)
    Blend: AUG-CC-PVQZ-JKFIT
  @DF-RHF Final Energy:   -76.06579158543931
    Total Energy =                        -76.0657915854393138
  Basis Set: (AUG-CC-PVQZ AUX)
  @DF-RHF Final Energy:   -76.06048052031798
    Total Energy =                        -76.0604805203179808
  @DF-RHF Final Energy:   -76.06581580748713
    Total Energy =                        -76.0658158074871267
  @DF-RHF Final Energy:  -689.71665994868056
    Total Energy =                       -689.7166599486805580
  @DF-RHF Final Energy:  -689.73346664333656
    Total Energy =                       -689.7334666433365555
  @DF-RHF Final Energy:  -689.71662925372368
    Total Energy =                       -689.7166292537236814
  @DF-RHF Final Energy:  -689.73346237004137
    Total Energy =                       -689.7334623700413658
  Multiplicity = 1
  @DF-RHF Final Energy:  -765.77543469196439
    Total Energy =                       -765.7754346919643922
	 Singles Energy            =      -0.0000000000000000 [Eh]
	 Same-Spin Energy          =      -0.3903321243389485 [Eh]
	 Opposite-Spin Energy      =      -1.1977740167772870 [Eh]
	 Correlation Energy        =      -1.5881061411162354 [Eh]
	 Total Energy              =    -767.3635408330806058 [Eh]
	 SCS Total Energy          =    -767.3428742202100921 [Eh]
    Molecular point group: c1

    Geometry (in Angstrom), charge = 0, multiplicity = 1:

       Center              X                  Y                   Z               Mass
    ------------   -----------------  -----------------  -----------------  -----------------
         CL           1.446037225307    -0.065339003239     0.000033846915    34.968852682000
         C           -0.286068774693     0.003667996761    -0.000005153085    12.000000000000
         C           -0.924722774693     1.241311996761    -0.000040153085    12.000000000000
         C           -1.017877774693    -1.181272003239    -0.000000153085    12.000000000000
         C           -2.316696774693     1.287933996761    -0.000069153085    12.000000000000
         C           -2.409233774693    -1.120439003239    -0.000029153085    12.000000000000
         C           -3.061809774693     0.110644996761    -0.000064153085    12.000000000000
         H           -0.335680774693     2.146910996761    -0.000045153085     1.007825032230
         H           -0.499668774693    -2.129186003239     0.000028846915     1.007825032230
         H           -2.816878774693     2.246639996761    -0.000098153085     1.007825032230
         H           -2.981559774693    -2.037878003239    -0.000027153085     1.007825032230
         H           -4.141885774693     0.152194996761    -0.000090153085     1.007825032230
         O            4.439998225307    -0.181704003239     0.000086846915    15.994914619570
         H            4.699856225307     0.350936996761     0.754148846915     1.007825032230
         H            4.699845225307     0.350919996761    -0.753994153085     1.007825032230

  Charge       = 0
  Multiplicity = 1
  Basis Set: AUG-CC-PVQZ
    Blend: AUG-CC-PVQZ
  Basis Set: (AUG-CC-PVQZ AUX)
    Blend: AUG-CC-PVQZ-JKFIT

    Orbital Energies [Eh]
    ---------------------

    Doubly Occupied:

       1A   -104.828623     2A    -20.562260     3A    -11.294652
       4A    -11.244483     5A    -11.244138     6A    -11.242980
       7A    -11.242467     8A    -11.239365     9A    -10.554005
      10A     -8.021101    11A     -8.019218    12A     -8.019181
      13A     -1.350780    14A     -1.183815    15A     -1.112366
      16A     -1.026484    17A     -0.989997    18A     -0.840977
      19A     -0.814411    20A     -0.712979    21A     -0.706775
      22A     -0.643774    23A     -0.641974    24A     -0.598718
      25A     -0.590978    26A     -0.578233    27A     -0.538395
      28A     -0.516824    29A     -0.511579    30A     -0.495752
      31A     -0.462340    32A     -0.444619    33A     -0.347158
      34A     -0.329632

  @DF-RHF Final Energy:  -765.79761251128889

   => Energetics <=

    Nuclear Repulsion Energy =            389.8526194351837262
    One-Electron Energy =               -1825.3983642362370574
    Two-Electron Energy =                 669.7481322897644986
    Total Energy =                       -765.7976125112888894

  Dipole Moment: [D]
     X:    -0.5115      Y:     1.7257      Z:    -0.0001     Total:     1.7999

  Basis Set: (AUG-CC-PVQZ AUX)
    Blend: AUG-CC-PVQZ-RI
	 Reference Energy          =    -765.7976125112888894 [Eh]
	 Singles Energy            =      -0.0000000000000000 [Eh]
	 Same-Spin Energy          =      -0.4189312936212116 [Eh]
	 Opposite-Spin Energy      =      -1.3587398390965062 [Eh]
	 Correlation Energy        =      -1.7776711327177179 [Eh]
	 Total Energy              =    -767.5752836440066176 [Eh]

	 ================> DF-SCS-MP2 Energies <==================
	-----------------------------------------------------------
	 SCS Same-Spin Scale       =       0.3333333333333333 [-]
	 SCS Opposite-Spin Scale   =       1.2000000000000000 [-]
	 SCS Same-Spin Energy      =      -0.1396437645404039 [Eh]
	 SCS Opposite-Spin Energy  =      -1.6304878069158073 [Eh]
	 SCS Correlation Energy    =      -1.7701315714562111 [Eh]
	 SCS Total Energy          =    -767.5677440827450937 [Eh]
	-----------------------------------------------------------

*** Psi4 exiting successfully. Buy a developer a beer!
