                               Psi4 1.4a2.dev224

  ==> Input File <==

--------------------------------------------------------------------------
#Generated by lconvert.py for cbs job

memory 40 GB

molecule  {
0 1
 Cl        2.0129150    -0.1411090     0.0000460
  C        0.2808090    -0.0721020     0.0000070
  C       -0.3578450     1.1655420    -0.0000280
  C       -0.4510000    -1.2570420     0.0000120
  C       -1.7498190     1.2121640    -0.0000570
  C       -1.8423560    -1.1962090    -0.0000170
  C       -2.4949320     0.0348750    -0.0000520
  H        0.2311970     2.0711410    -0.0000330
  H        0.0672090    -2.2049560     0.0000410
  H       -2.2500010     2.1708700    -0.0000860
  H       -2.4146820    -2.1136480    -0.0000150
  H       -3.5750080     0.0764250    -0.0000780
--
0 1
  O        5.1732070    -0.2639380     0.0001020
  H        5.4330650     0.2687030     0.7541640
  H        5.4330540     0.2686860    -0.7539790
units angstrom
no_reorient
symmetry c1
}

set {
scf_type DF
mp2_type DF
e_convergence 7
reference rhf
}

energy('mp2/aug-cc-pv[tq]z', bsse_type='cp')
--------------------------------------------------------------------------

    Molecular point group: c1
  Charge       = 0
  Multiplicity = 1
  Basis Set: AUG-CC-PVTZ
    Blend: AUG-CC-PVTZ
  Basis Set: (AUG-CC-PVTZ AUX)
    Blend: AUG-CC-PVTZ-JKFIT
  @DF-RHF Final Energy:   -76.06040674464404
    Total Energy =                        -76.0604067446440411
  Basis Set: (AUG-CC-PVTZ AUX)
    Blend: AUG-CC-PVTZ-RI
	 Reference Energy          =     -76.0604067446440411 [Eh]
	 Singles Energy            =      -0.0000000000000000 [Eh]
	 Same-Spin Energy          =      -0.0683837916033504 [Eh]
	 Opposite-Spin Energy      =      -0.2152929284761045 [Eh]
	 Correlation Energy        =      -0.2836767200794549 [Eh]
	 Total Energy              =     -76.3440834647234965 [Eh]
	 SCS Total Energy          =     -76.3415528560164773 [Eh]
    Molecular point group: c1
  Basis Set: AUG-CC-PVQZ
    Blend: AUG-CC-PVQZ
  Basis Set: (AUG-CC-PVQZ AUX)
    Blend: AUG-CC-PVQZ-JKFIT
  @DF-RHF Final Energy:   -76.06579158543147
    Total Energy =                        -76.0657915854314695
  Basis Set: (AUG-CC-PVQZ AUX)
  @DF-RHF Final Energy:   -76.06046390121398
    Total Energy =                        -76.0604639012139785
  @DF-RHF Final Energy:   -76.06581241305578
    Total Energy =                        -76.0658124130557809
  @DF-RHF Final Energy:  -689.71665343353175
    Total Energy =                       -689.7166534335317465
  @DF-RHF Final Energy:  -689.73346603108166
    Total Energy =                       -689.7334660310816616
  @DF-RHF Final Energy:  -689.71662924943462
    Total Energy =                       -689.7166292494346180
  @DF-RHF Final Energy:  -689.73346237213468
    Total Energy =                       -689.7334623721346816
  Multiplicity = 1
  @DF-RHF Final Energy:  -765.77628384500088
    Total Energy =                       -765.7762838450008758
	 Singles Energy            =      -0.0000000000000000 [Eh]
	 Same-Spin Energy          =      -0.3900130679208140 [Eh]
	 Opposite-Spin Energy      =      -1.1973898161451606 [Eh]
	 Correlation Energy        =      -1.5874028840659746 [Eh]
	 Total Energy              =    -767.3636867290668988 [Eh]
	 SCS Total Energy          =    -767.3431559803486834 [Eh]
    Molecular point group: c1

    Geometry (in Angstrom), charge = 0, multiplicity = 1:

       Center              X                  Y                   Z               Mass
    ------------   -----------------  -----------------  -----------------  -----------------
         CL           1.422996548368    -0.064443590262     0.000033431346    34.968852682000
         C           -0.309109451632     0.004563409738    -0.000005568654    12.000000000000
         C           -0.947763451632     1.242207409738    -0.000040568654    12.000000000000
         C           -1.040918451632    -1.180376590262    -0.000000568654    12.000000000000
         C           -2.339737451632     1.288829409738    -0.000069568654    12.000000000000
         C           -2.432274451632    -1.119543590262    -0.000029568654    12.000000000000
         C           -3.084850451632     0.111540409738    -0.000064568654    12.000000000000
         H           -0.358721451632     2.147806409738    -0.000045568654     1.007825032230
         H           -0.522709451632    -2.128290590262     0.000028431346     1.007825032230
         H           -2.839919451632     2.247535409738    -0.000098568654     1.007825032230
         H           -3.004600451632    -2.036982590262    -0.000027568654     1.007825032230
         H           -4.164926451632     0.153090409738    -0.000090568654     1.007825032230
         O            4.583288548368    -0.187272590262     0.000089431346    15.994914619570
         H            4.843146548368     0.345368409738     0.754151431346     1.007825032230
         H            4.843135548368     0.345351409738    -0.753991568654     1.007825032230

  Charge       = 0
  Multiplicity = 1
  Basis Set: AUG-CC-PVQZ
    Blend: AUG-CC-PVQZ
  Basis Set: (AUG-CC-PVQZ AUX)
    Blend: AUG-CC-PVQZ-JKFIT

    Orbital Energies [Eh]
    ---------------------

    Doubly Occupied:

       1A   -104.829825     2A    -20.562067     3A    -11.295952
       4A    -11.245102     5A    -11.244764     6A    -11.243692
       7A    -11.243215     8A    -11.239995     9A    -10.555216
      10A     -8.022326    11A     -8.020480    12A     -8.020441
      13A     -1.349998    14A     -1.184692    15A     -1.113237
      16A     -1.027144    17A     -0.990763    18A     -0.841667
      19A     -0.815069    20A     -0.712350    21A     -0.707362
      22A     -0.644210    23A     -0.642702    24A     -0.599340
      25A     -0.588948    26A     -0.579546    27A     -0.539247
      28A     -0.514746    29A     -0.512242    30A     -0.498922
      31A     -0.463172    32A     -0.445722    33A     -0.347755
      34A     -0.330419

  @DF-RHF Final Energy:  -765.79846382366554

   => Energetics <=

    Nuclear Repulsion Energy =            387.4113040537442885
    One-Electron Energy =               -1820.4748451593604841
    Two-Electron Energy =                 667.2650772819506528
    Total Energy =                       -765.7984638236655428

  Dipole Moment: [D]
     X:    -0.5932      Y:     1.7381      Z:    -0.0001     Total:     1.8366

  Basis Set: (AUG-CC-PVQZ AUX)
    Blend: AUG-CC-PVQZ-RI
	 Reference Energy          =    -765.7984638236655428 [Eh]
	 Singles Energy            =      -0.0000000000000000 [Eh]
	 Same-Spin Energy          =      -0.4186074105077387 [Eh]
	 Opposite-Spin Energy      =      -1.3583693065794646 [Eh]
	 Correlation Energy        =      -1.7769767170872033 [Eh]
	 Total Energy              =    -767.5754405407527656 [Eh]

	 ================> DF-SCS-MP2 Energies <==================
	-----------------------------------------------------------
	 SCS Same-Spin Scale       =       0.3333333333333333 [-]
	 SCS Opposite-Spin Scale   =       1.2000000000000000 [-]
	 SCS Same-Spin Energy      =      -0.1395358035025795 [Eh]
	 SCS Opposite-Spin Energy  =      -1.6300431678953575 [Eh]
	 SCS Correlation Energy    =      -1.7695789713979371 [Eh]
	 SCS Total Energy          =    -767.5680427950634339 [Eh]
	-----------------------------------------------------------

*** Psi4 exiting successfully. Buy a developer a beer!
