                               Psi4 1.4a2.dev224

  ==> Input File <==

--------------------------------------------------------------------------
#Generated by lconvert.py for cbs job

memory 40 GB

molecule  {
0 1
 Cl        2.0129150    -0.1411090     0.0000460
  C        0.2808090    -0.0721020     0.0000070
  C       -0.3578450     1.1655420    -0.0000280
  C       -0.4510000    -1.2570420     0.0000120
  C       -1.7498190     1.2121640    -0.0000570
  C       -1.8423560    -1.1962090    -0.0000170
  C       -2.4949320     0.0348750    -0.0000520
  H        0.2311970     2.0711410    -0.0000330
  H        0.0672090    -2.2049560     0.0000410
  H       -2.2500010     2.1708700    -0.0000860
  H       -2.4146820    -2.1136480    -0.0000150
  H       -3.5750080     0.0764250    -0.0000780
--
0 1
  O        4.3415510    -0.2316150     0.0000870
  H        4.6014090     0.3010260     0.7541490
  H        4.6013980     0.3010090    -0.7539940
units angstrom
no_reorient
symmetry c1
}

set {
scf_type DF
mp2_type DF
e_convergence 7
reference rhf
}

energy('mp2/aug-cc-pv[tq]z', bsse_type='cp')
--------------------------------------------------------------------------

    Molecular point group: c1
  Charge       = 0
  Multiplicity = 1
  Basis Set: AUG-CC-PVTZ
    Blend: AUG-CC-PVTZ
  Basis Set: (AUG-CC-PVTZ AUX)
    Blend: AUG-CC-PVTZ-JKFIT
  @DF-RHF Final Energy:   -76.06040674464711
    Total Energy =                        -76.0604067446471248
  Basis Set: (AUG-CC-PVTZ AUX)
    Blend: AUG-CC-PVTZ-RI
	 Reference Energy          =     -76.0604067446471106 [Eh]
	 Singles Energy            =      -0.0000000000000000 [Eh]
	 Same-Spin Energy          =      -0.0683837916033459 [Eh]
	 Opposite-Spin Energy      =      -0.2152929284760861 [Eh]
	 Correlation Energy        =      -0.2836767200794319 [Eh]
	 Total Energy              =     -76.3440834647265376 [Eh]
	 SCS Total Energy          =     -76.3415528560195327 [Eh]
    Molecular point group: c1
  Basis Set: AUG-CC-PVQZ
    Blend: AUG-CC-PVQZ
  Basis Set: (AUG-CC-PVQZ AUX)
    Blend: AUG-CC-PVQZ-JKFIT
  @DF-RHF Final Energy:   -76.06579158545932
    Total Energy =                        -76.0657915854593227
  Basis Set: (AUG-CC-PVQZ AUX)
  @DF-RHF Final Energy:   -76.06052810901245
    Total Energy =                        -76.0605281090124521
  @DF-RHF Final Energy:   -76.06583292992622
    Total Energy =                        -76.0658329299262164
  @DF-RHF Final Energy:  -689.71670312993285
    Total Energy =                       -689.7167031299328528
  @DF-RHF Final Energy:  -689.73347176389620
    Total Energy =                       -689.7334717638962047
  @DF-RHF Final Energy:  -689.71662925671728
    Total Energy =                       -689.7166292567172832
  @DF-RHF Final Energy:  -689.73346237804810
    Total Energy =                       -689.7334623780481024
  Multiplicity = 1
  @DF-RHF Final Energy:  -765.75476907644770
    Total Energy =                       -765.7547690764477011
	 Singles Energy            =      -0.0000000000000000 [Eh]
	 Same-Spin Energy          =      -0.3932926284180145 [Eh]
	 Opposite-Spin Energy      =      -1.2012985919700716 [Eh]
	 Correlation Energy        =      -1.5945912203880861 [Eh]
	 Total Energy              =    -767.3493602968358118 [Eh]
	 SCS Total Energy          =    -767.3274249296177913 [Eh]
    Molecular point group: c1

    Geometry (in Angstrom), charge = 0, multiplicity = 1:

       Center              X                  Y                   Z               Mass
    ------------   -----------------  -----------------  -----------------  -----------------
         CL           1.538200071587    -0.068921070712     0.000035509192    34.968852682000
         C           -0.193905928413     0.000085929288    -0.000003490808    12.000000000000
         C           -0.832559928413     1.237729929288    -0.000038490808    12.000000000000
         C           -0.925714928413    -1.184854070712     0.000001509192    12.000000000000
         C           -2.224533928413     1.284351929288    -0.000067490808    12.000000000000
         C           -2.317070928413    -1.124021070712    -0.000027490808    12.000000000000
         C           -2.969646928413     0.107062929288    -0.000062490808    12.000000000000
         H           -0.243517928413     2.143328929288    -0.000043490808     1.007825032230
         H           -0.407505928413    -2.132768070712     0.000030509192     1.007825032230
         H           -2.724715928413     2.243057929288    -0.000096490808     1.007825032230
         H           -2.889396928413    -2.041460070712    -0.000025490808     1.007825032230
         H           -4.049722928413     0.148612929288    -0.000088490808     1.007825032230
         O            3.866836071587    -0.159427070712     0.000076509192    15.994914619570
         H            4.126694071587     0.373213929288     0.754138509192     1.007825032230
         H            4.126683071587     0.373196929288    -0.754004490808     1.007825032230

  Charge       = 0
  Multiplicity = 1
  Basis Set: AUG-CC-PVQZ
    Blend: AUG-CC-PVQZ
  Basis Set: (AUG-CC-PVQZ AUX)
    Blend: AUG-CC-PVQZ-JKFIT

    Orbital Energies [Eh]
    ---------------------

    Doubly Occupied:

       1A   -104.820637     2A    -20.566536     3A    -11.281459
       4A    -11.239318     5A    -11.238937     6A    -11.236641
       7A    -11.235937     8A    -11.234017     9A    -10.546225
      10A     -8.013284    11A     -8.010761    12A     -8.010747
      13A     -1.364527    14A     -1.176760    15A     -1.106502
      16A     -1.020796    17A     -0.984723    18A     -0.835011
      19A     -0.809915    20A     -0.723736    21A     -0.703586
      22A     -0.646178    23A     -0.635783    24A     -0.610914
      25A     -0.593389    26A     -0.576487    27A     -0.531580
      28A     -0.527562    29A     -0.505845    30A     -0.465599
      31A     -0.457097    32A     -0.437205    33A     -0.342036
      34A     -0.323534

  @DF-RHF Final Energy:  -765.77716809136336

   => Energetics <=

    Nuclear Repulsion Energy =            402.2694241209363213
    One-Electron Energy =               -1850.4666271525582033
    Two-Electron Energy =                 682.4200349402585744
    Total Energy =                       -765.7771680913633645

  Dipole Moment: [D]
     X:     0.2641      Y:     1.6577      Z:    -0.0000     Total:     1.6786

  Basis Set: (AUG-CC-PVQZ AUX)
    Blend: AUG-CC-PVQZ-RI
	 Reference Energy          =    -765.7771680913633645 [Eh]
	 Singles Energy            =      -0.0000000000000000 [Eh]
	 Same-Spin Energy          =      -0.4219912762520165 [Eh]
	 Opposite-Spin Energy      =      -1.3621890470543301 [Eh]
	 Correlation Energy        =      -1.7841803233063467 [Eh]
	 Total Energy              =    -767.5613484146697374 [Eh]

	 ================> DF-SCS-MP2 Energies <==================
	-----------------------------------------------------------
	 SCS Same-Spin Scale       =       0.3333333333333333 [-]
	 SCS Opposite-Spin Scale   =       1.2000000000000000 [-]
	 SCS Same-Spin Energy      =      -0.1406637587506722 [Eh]
	 SCS Opposite-Spin Energy  =      -1.6346268564651960 [Eh]
	 SCS Correlation Energy    =      -1.7752906152158681 [Eh]
	 SCS Total Energy          =    -767.5524587065792730 [Eh]
	-----------------------------------------------------------

*** Psi4 exiting successfully. Buy a developer a beer!
