                               Psi4 1.4a2.dev224

  ==> Input File <==

--------------------------------------------------------------------------
#Generated by lconvert.py for cbs job

memory 20 GB

molecule  {
0 1
 Cl       2.012920   -0.141110    0.000050
  C       0.280810   -0.072100    0.000010
  C      -0.357850    1.165540   -0.000030
  C      -0.451000   -1.257040    0.000010
  C      -1.749820    1.212160   -0.000060
  C      -1.842360   -1.196210   -0.000020
  C      -2.494930    0.034880   -0.000050
  H       0.231200    2.071140   -0.000030
  H       0.067210   -2.204960    0.000040
  H      -2.250000    2.170870   -0.000090
  H      -2.414680   -2.113650   -0.000020
  H      -3.575010    0.076430   -0.000080
--
0 1
  O       6.337520   -0.309190    0.000120
  H       6.597380    0.223450    0.754180
  H       6.597370    0.223430   -0.753960
units angstrom
no_reorient
symmetry c1
}

set {
scf_type DF
mp2_type DF
e_convergence 7
reference rhf
}

energy('mp2/aug-cc-pv[tq]z', bsse_type='cp')
--------------------------------------------------------------------------

    Molecular point group: c1
  Charge       = 0
  Multiplicity = 1
  Basis Set: AUG-CC-PVTZ
    Blend: AUG-CC-PVTZ
  Basis Set: (AUG-CC-PVTZ AUX)
    Blend: AUG-CC-PVTZ-JKFIT
  @DF-RHF Final Energy:   -76.06040687744959
    Total Energy =                        -76.0604068774495943
  Basis Set: (AUG-CC-PVTZ AUX)
    Blend: AUG-CC-PVTZ-RI
	 Reference Energy          =     -76.0604068774495943 [Eh]
	 Singles Energy            =      -0.0000000000000000 [Eh]
	 Same-Spin Energy          =      -0.0683837586778961 [Eh]
	 Opposite-Spin Energy      =      -0.2152928281658670 [Eh]
	 Correlation Energy        =      -0.2836765868437631 [Eh]
	 Total Energy              =     -76.3440834642933623 [Eh]
	 SCS Total Energy          =     -76.3415528574745963 [Eh]
    Molecular point group: c1
  Basis Set: AUG-CC-PVQZ
    Blend: AUG-CC-PVQZ
  Basis Set: (AUG-CC-PVQZ AUX)
    Blend: AUG-CC-PVQZ-JKFIT
  @DF-RHF Final Energy:   -76.06579172792115
    Total Energy =                        -76.0657917279211517
  Basis Set: (AUG-CC-PVQZ AUX)
  @DF-RHF Final Energy:   -76.06041740445065
    Total Energy =                        -76.0604174044506465
  @DF-RHF Final Energy:   -76.06579706321018
    Total Energy =                        -76.0657970632101836
  @DF-RHF Final Energy:  -689.71663530543515
    Total Energy =                       -689.7166353054351475
  @DF-RHF Final Energy:  -689.73346346685958
    Total Energy =                       -689.7334634668595754
  @DF-RHF Final Energy:  -689.71662923175620
    Total Energy =                       -689.7166292317562011
  @DF-RHF Final Energy:  -689.73346234714620
    Total Energy =                       -689.7334623471462010
  Multiplicity = 1
  @DF-RHF Final Energy:  -765.77691504131951
    Total Energy =                       -765.7769150413195121
	 Singles Energy            =      -0.0000000000000000 [Eh]
	 Same-Spin Energy          =      -0.3891780825533737 [Eh]
	 Opposite-Spin Energy      =      -1.1962656349471406 [Eh]
	 Correlation Energy        =      -1.5854437175005143 [Eh]
	 Total Energy              =    -767.3623587588200508 [Eh]
	 SCS Total Energy          =    -767.3421598307738805 [Eh]
    Molecular point group: c1

    Geometry (in Angstrom), charge = 0, multiplicity = 1:

       Center              X                  Y                   Z               Mass
    ------------   -----------------  -----------------  -----------------  -----------------
         CL           1.261716587670    -0.058176006714     0.000034401107    34.968852682000
         C           -0.470393412330     0.010833993286    -0.000005598893    12.000000000000
         C           -1.109053412330     1.248473993286    -0.000045598893    12.000000000000
         C           -1.202203412330    -1.174106006714    -0.000005598893    12.000000000000
         C           -2.501023412330     1.295093993286    -0.000075598893    12.000000000000
         C           -2.593563412330    -1.113276006714    -0.000035598893    12.000000000000
         C           -3.246133412330     0.117813993286    -0.000065598893    12.000000000000
         H           -0.520003412330     2.154073993286    -0.000045598893     1.007825032230
         H           -0.683993412330    -2.122026006714     0.000024401107     1.007825032230
         H           -3.001203412330     2.253803993286    -0.000105598893     1.007825032230
         H           -3.165883412330    -2.030716006714    -0.000035598893     1.007825032230
         H           -4.326213412330     0.159363993286    -0.000095598893     1.007825032230
         O            5.586316587670    -0.226256006714     0.000104401107    15.994914619570
         H            5.846176587670     0.306383993286     0.754164401107     1.007825032230
         H            5.846166587670     0.306363993286    -0.753975598893     1.007825032230

  Charge       = 0
  Multiplicity = 1
  Basis Set: AUG-CC-PVQZ
    Blend: AUG-CC-PVQZ
  Basis Set: (AUG-CC-PVQZ AUX)
    Blend: AUG-CC-PVQZ-JKFIT

    Orbital Energies [Eh]
    ---------------------

    Doubly Occupied:

       1A   -104.834381     2A    -20.561843     3A    -11.299895
       4A    -11.247345     5A    -11.247068     6A    -11.246120
       7A    -11.245806     8A    -11.242243     9A    -10.559894
      10A     -8.027043    11A     -8.025265    12A     -8.025219
      13A     -1.348941    14A     -1.187909    15A     -1.116678
      16A     -1.029473    17A     -0.993738    18A     -0.844095
      19A     -0.817606    20A     -0.711548    21A     -0.709729
      22A     -0.646485    23A     -0.645267    24A     -0.601567
      25A     -0.587112    26A     -0.582622    27A     -0.542394
      28A     -0.514658    29A     -0.509989    30A     -0.506648
      31A     -0.466610    32A     -0.450217    33A     -0.349883
      34A     -0.333363

  @DF-RHF Final Energy:  -765.79912920171319

   => Energetics <=

    Nuclear Repulsion Energy =            374.6809145364285882
    One-Electron Energy =               -1794.8427502861068206
    Two-Electron Energy =                 654.3627065479649900
    Total Energy =                       -765.7991292017131855

  Dipole Moment: [D]
     X:    -0.8519      Y:     1.7953      Z:    -0.0001     Total:     1.9872

  Basis Set: (AUG-CC-PVQZ AUX)
    Blend: AUG-CC-PVQZ-RI
	 Reference Energy          =    -765.7991292017131855 [Eh]
	 Singles Energy            =      -0.0000000000000000 [Eh]
	 Same-Spin Energy          =      -0.4177725706064528 [Eh]
	 Opposite-Spin Energy      =      -1.3573885330847908 [Eh]
	 Correlation Energy        =      -1.7751611036912436 [Eh]
	 Total Energy              =    -767.5742903054044746 [Eh]

	 ================> DF-SCS-MP2 Energies <==================
	-----------------------------------------------------------
	 SCS Same-Spin Scale       =       0.3333333333333333 [-]
	 SCS Opposite-Spin Scale   =       1.2000000000000000 [-]
	 SCS Same-Spin Energy      =      -0.1392575235354843 [Eh]
	 SCS Opposite-Spin Energy  =      -1.6288662397017488 [Eh]
	 SCS Correlation Energy    =      -1.7681237632372331 [Eh]
	 SCS Total Energy          =    -767.5672529649503986 [Eh]
	-----------------------------------------------------------

*** Psi4 exiting successfully. Buy a developer a beer!
