                               Psi4 1.4a2.dev224

  ==> Input File <==

--------------------------------------------------------------------------
#Generated by lconvert.py for cbs job

memory 40 GB

molecule  {
0 1
 Br        2.1195960    -0.1313640     0.0000500
  C        0.2381660    -0.0649990     0.0000080
  C       -0.4072490     1.1696050    -0.0000290
  C       -0.4903420    -1.2524990     0.0000140
  C       -1.7997610     1.2104450    -0.0000600
  C       -1.8823350    -1.1975750    -0.0000180
  C       -2.5405810     0.0304420    -0.0000550
  H        0.1730180     2.0809810    -0.0000330
  H        0.0263100    -2.2013810     0.0000420
  H       -2.3028230     2.1677980    -0.0000880
  H       -2.4498020    -2.1181980    -0.0000130
  H       -3.6208680     0.0675110    -0.0000790
--
0 1
  O        5.6831250    -0.2009790     0.0001050
  H        6.1101120     0.2106160     0.7541910
  H        6.1101110     0.2106170    -0.7539810
units angstrom
no_reorient
symmetry c1
}

set {
scf_type DF
mp2_type DF
e_convergence 7
reference rhf
}

energy('mp2/aug-cc-pv[tq]z', bsse_type='cp')
--------------------------------------------------------------------------

    Molecular point group: c1
  Charge       = 0
  Multiplicity = 1
  Basis Set: AUG-CC-PVTZ
    Blend: AUG-CC-PVTZ
  Basis Set: (AUG-CC-PVTZ AUX)
    Blend: AUG-CC-PVTZ-JKFIT
  @DF-RHF Final Energy:   -76.06038298289334
    Total Energy =                        -76.0603829828933442
  Basis Set: (AUG-CC-PVTZ AUX)
    Blend: AUG-CC-PVTZ-RI
	 Reference Energy          =     -76.0603829828933442 [Eh]
	 Singles Energy            =      -0.0000000000000000 [Eh]
	 Same-Spin Energy          =      -0.0683894364334540 [Eh]
	 Opposite-Spin Energy      =      -0.2153098389326925 [Eh]
	 Correlation Energy        =      -0.2836992753661466 [Eh]
	 Total Energy              =     -76.3440822582594905 [Eh]
	 SCS Total Energy          =     -76.3415512684237285 [Eh]
    Molecular point group: c1
  Basis Set: AUG-CC-PVQZ
    Blend: AUG-CC-PVQZ
  Basis Set: (AUG-CC-PVQZ AUX)
    Blend: AUG-CC-PVQZ-JKFIT
  @DF-RHF Final Energy:   -76.06576646329962
    Total Energy =                        -76.0657664632996386
  Basis Set: (AUG-CC-PVQZ AUX)
  @DF-RHF Final Energy:   -76.06040285500404
    Total Energy =                        -76.0604028550040425
  @DF-RHF Final Energy:   -76.06578070667349
    Total Energy =                        -76.0657807066734932
  @DF-RHF Final Energy: -2802.65807828031984
    Total Energy =                      -2802.6580782803198417
  @DF-RHF Final Energy: -2802.67389394920110
    Total Energy =                      -2802.6738939492006466
  @DF-RHF Final Energy: -2802.65805721809375
    Total Energy =                      -2802.6580572180937452
  @DF-RHF Final Energy: -2802.67388913135937
    Total Energy =                      -2802.6738891313593740
  Multiplicity = 1
  @DF-RHF Final Energy: -2878.71876545630357
    Total Energy =                      -2878.7187654563035721
	 Singles Energy            =      -0.0000000000000000 [Eh]
	 Same-Spin Energy          =      -0.4188869525112670 [Eh]
	 Opposite-Spin Energy      =      -1.2292166617372950 [Eh]
	 Correlation Energy        =      -1.6481036142485621 [Eh]
	 Total Energy              =   -2880.3668690705521840 [Eh]
	 SCS Total Energy          =   -2880.3334544345589165 [Eh]
    Molecular point group: c1

    Geometry (in Angstrom), charge = 0, multiplicity = 1:

       Center              X                  Y                   Z               Mass
    ------------   -----------------  -----------------  -----------------  -----------------
         BR           1.086828145908    -0.048501486513     0.000027095285    78.918337600000
         C           -0.794601854092     0.017863513487    -0.000014904715    12.000000000000
         C           -1.440016854092     1.252467513487    -0.000051904715    12.000000000000
         C           -1.523109854092    -1.169636486513    -0.000008904715    12.000000000000
         C           -2.832528854092     1.293307513487    -0.000082904715    12.000000000000
         C           -2.915102854092    -1.114712486513    -0.000040904715    12.000000000000
         C           -3.573348854092     0.113304513487    -0.000077904715    12.000000000000
         H           -0.859749854092     2.163843513487    -0.000055904715     1.007825032230
         H           -1.006457854092    -2.118518486513     0.000019095285     1.007825032230
         H           -3.335590854092     2.250660513487    -0.000110904715     1.007825032230
         H           -3.482569854092    -2.035335486513    -0.000035904715     1.007825032230
         H           -4.653635854092     0.150373513487    -0.000101904715     1.007825032230
         O            4.650357145908    -0.118116486513     0.000082095285    15.994914619570
         H            5.077344145908     0.293478513487     0.754168095285     1.007825032230
         H            5.077343145908     0.293479513487    -0.754003904715     1.007825032230

  Charge       = 0
  Multiplicity = 1
  Basis Set: AUG-CC-PVQZ
    Blend: AUG-CC-PVQZ
  Basis Set: (AUG-CC-PVQZ AUX)
    Blend: AUG-CC-PVQZ-JKFIT

    Orbital Energies [Eh]
    ---------------------

    Doubly Occupied:

       1A   -490.013883     2A    -65.154269     3A    -58.509679
       4A    -58.508245     5A    -58.508212     6A    -20.564490
       7A    -11.290991     8A    -11.245506     9A    -11.245254
      10A    -11.244123    11A    -11.243852    12A    -11.240977
      13A     -9.827729    14A     -7.439276    15A     -7.432628
      16A     -7.432568    17A     -3.183108    18A     -3.179527
      19A     -3.179292    20A     -3.170742    21A     -3.170740
      22A     -1.351657    23A     -1.169620    24A     -1.066291
      25A     -1.026821    26A     -0.966901    27A     -0.840134
      28A     -0.811828    29A     -0.714008    30A     -0.705437
      31A     -0.639282    32A     -0.639172    33A     -0.599095
      34A     -0.586904    35A     -0.568418    36A     -0.527711
      37A     -0.510816    38A     -0.509659    39A     -0.485242
      40A     -0.432191    41A     -0.406924    42A     -0.347417
      43A     -0.326845

  @DF-RHF Final Energy: -2878.73994408899034

   => Energetics <=

    Nuclear Repulsion Energy =            523.5846844629382986
    One-Electron Energy =               -5040.6143090237264914
    Two-Electron Energy =                1638.2896804717977375
    Total Energy =                      -2878.7399440889903417

  Dipole Moment: [D]
     X:    -0.0603      Y:     1.3741      Z:    -0.0000     Total:     1.3754

  Basis Set: (AUG-CC-PVQZ AUX)
    Blend: AUG-CC-PVQZ-RI
	 Reference Energy          =   -2878.7399440889903417 [Eh]
	 Singles Energy            =      -0.0000000000000000 [Eh]
	 Same-Spin Energy          =      -0.4693761257055939 [Eh]
	 Opposite-Spin Energy      =      -1.4268462635379562 [Eh]
	 Correlation Energy        =      -1.8962223892435501 [Eh]
	 Total Energy              =   -2880.6361664782339176 [Eh]

	 ================> DF-SCS-MP2 Energies <==================
	-----------------------------------------------------------
	 SCS Same-Spin Scale       =       0.3333333333333333 [-]
	 SCS Opposite-Spin Scale   =       1.2000000000000000 [-]
	 SCS Same-Spin Energy      =      -0.1564587085685313 [Eh]
	 SCS Opposite-Spin Energy  =      -1.7122155162455475 [Eh]
	 SCS Correlation Energy    =      -1.8686742248140789 [Eh]
	 SCS Total Energy          =   -2880.6086183138045271 [Eh]
	-----------------------------------------------------------

*** Psi4 exiting successfully. Buy a developer a beer!
