                               Psi4 1.4a2.dev224

  ==> Input File <==

--------------------------------------------------------------------------
#Generated by lconvert.py for cbs job

memory 40 GB

molecule  {
0 1
 Br        2.1195960    -0.1313640     0.0000500
  C        0.2381660    -0.0649990     0.0000080
  C       -0.4072490     1.1696050    -0.0000290
  C       -0.4903420    -1.2524990     0.0000140
  C       -1.7997610     1.2104450    -0.0000600
  C       -1.8823350    -1.1975750    -0.0000180
  C       -2.5405810     0.0304420    -0.0000550
  H        0.1730180     2.0809810    -0.0000330
  H        0.0263100    -2.2013810     0.0000420
  H       -2.3028230     2.1677980    -0.0000880
  H       -2.4498020    -2.1181980    -0.0000130
  H       -3.6208680     0.0675110    -0.0000790
--
0 1
  O        4.7112540    -0.1819930     0.0000900
  H        5.1382410     0.2296020     0.7541760
  H        5.1382400     0.2296030    -0.7539960
units angstrom
no_reorient
symmetry c1
}

set {
scf_type DF
mp2_type DF
e_convergence 7
reference rhf
}

energy('mp2/aug-cc-pv[tq]z', bsse_type='cp')
--------------------------------------------------------------------------

    Molecular point group: c1
  Charge       = 0
  Multiplicity = 1
  Basis Set: AUG-CC-PVTZ
    Blend: AUG-CC-PVTZ
  Basis Set: (AUG-CC-PVTZ AUX)
    Blend: AUG-CC-PVTZ-JKFIT
  @DF-RHF Final Energy:   -76.06038298288664
    Total Energy =                        -76.0603829828866367
  Basis Set: (AUG-CC-PVTZ AUX)
    Blend: AUG-CC-PVTZ-RI
	 Reference Energy          =     -76.0603829828866367 [Eh]
	 Singles Energy            =      -0.0000000000000000 [Eh]
	 Same-Spin Energy          =      -0.0683894364334529 [Eh]
	 Opposite-Spin Energy      =      -0.2153098389326903 [Eh]
	 Correlation Energy        =      -0.2836992753661432 [Eh]
	 Total Energy              =     -76.3440822582527829 [Eh]
	 SCS Total Energy          =     -76.3415512684170210 [Eh]
    Molecular point group: c1
  Basis Set: AUG-CC-PVQZ
    Blend: AUG-CC-PVQZ
  Basis Set: (AUG-CC-PVQZ AUX)
    Blend: AUG-CC-PVQZ-JKFIT
  @DF-RHF Final Energy:   -76.06576646331355
    Total Energy =                        -76.0657664633135653
  Basis Set: (AUG-CC-PVQZ AUX)
  @DF-RHF Final Energy:   -76.06047299644234
    Total Energy =                        -76.0604729964423427
  @DF-RHF Final Energy:   -76.06580028677710
    Total Energy =                        -76.0658002867771046
  @DF-RHF Final Energy: -2802.65812432819121
    Total Energy =                      -2802.6581243281907518
  @DF-RHF Final Energy: -2802.67390324938606
    Total Energy =                      -2802.6739032493860577
  @DF-RHF Final Energy: -2802.65805722129153
    Total Energy =                      -2802.6580572212915285
  @DF-RHF Final Energy: -2802.67388914052117
    Total Energy =                      -2802.6738891405211689
  Multiplicity = 1
  @DF-RHF Final Energy: -2878.70948849756405
    Total Energy =                      -2878.7094884975640525
	 Singles Energy            =      -0.0000000000000000 [Eh]
	 Same-Spin Energy          =      -0.4216842718378587 [Eh]
	 Opposite-Spin Energy      =      -1.2326958127463563 [Eh]
	 Correlation Energy        =      -1.6543800845842149 [Eh]
	 Total Energy              =   -2880.3638685821483705 [Eh]
	 SCS Total Energy          =   -2880.3292848968058024 [Eh]
    Molecular point group: c1

    Geometry (in Angstrom), charge = 0, multiplicity = 1:

       Center              X                  Y                   Z               Mass
    ------------   -----------------  -----------------  -----------------  -----------------
         BR           1.187444022095    -0.050467069420     0.000028648205    78.918337600000
         C           -0.693985977905     0.015897930580    -0.000013351795    12.000000000000
         C           -1.339400977905     1.250501930580    -0.000050351795    12.000000000000
         C           -1.422493977905    -1.171602069420    -0.000007351795    12.000000000000
         C           -2.731912977905     1.291341930580    -0.000081351795    12.000000000000
         C           -2.814486977905    -1.116678069420    -0.000039351795    12.000000000000
         C           -3.472732977905     0.111338930580    -0.000076351795    12.000000000000
         H           -0.759133977905     2.161877930580    -0.000054351795     1.007825032230
         H           -0.905841977905    -2.120484069420     0.000020648205     1.007825032230
         H           -3.234974977905     2.248694930580    -0.000109351795     1.007825032230
         H           -3.381953977905    -2.037301069420    -0.000034351795     1.007825032230
         H           -4.553019977905     0.148407930580    -0.000100351795     1.007825032230
         O            3.779102022095    -0.101096069420     0.000068648205    15.994914619570
         H            4.206089022095     0.310498930580     0.754154648205     1.007825032230
         H            4.206088022095     0.310499930580    -0.754017351795     1.007825032230

  Charge       = 0
  Multiplicity = 1
  Basis Set: AUG-CC-PVQZ
    Blend: AUG-CC-PVQZ
  Basis Set: (AUG-CC-PVQZ AUX)
    Blend: AUG-CC-PVQZ-JKFIT

    Orbital Energies [Eh]
    ---------------------

    Doubly Occupied:

       1A   -490.004995     2A    -65.145371     3A    -58.500833
       4A    -58.499168     5A    -58.499121     6A    -20.572218
       7A    -11.278186     8A    -11.239168     9A    -11.238869
      10A    -11.237714    11A    -11.237317    12A    -11.235087
      13A     -9.819065    14A     -7.430744    15A     -7.423562
      16A     -7.423435    17A     -3.174837    18A     -3.170898
      19A     -3.170589    20A     -3.161459    21A     -3.161458
      22A     -1.364672    23A     -1.162572    24A     -1.059023
      25A     -1.020554    26A     -0.960461    27A     -0.833625
      28A     -0.806105    29A     -0.725326    30A     -0.700448
      31A     -0.637238    32A     -0.632466    33A     -0.610266
      34A     -0.593153    35A     -0.559786    36A     -0.526419
      37A     -0.520593    38A     -0.503434    39A     -0.461582
      40A     -0.425639    41A     -0.398827    42A     -0.341686
      43A     -0.320063

  @DF-RHF Final Energy: -2878.73068631588148

   => Energetics <=

    Nuclear Repulsion Energy =            547.0954393923195767
    One-Electron Energy =               -5088.0761568723773962
    Two-Electron Energy =                1662.2500311641763346
    Total Energy =                      -2878.7306863158819397

  Dipole Moment: [D]
     X:     0.8231      Y:     1.3264      Z:    -0.0000     Total:     1.5611

  Basis Set: (AUG-CC-PVQZ AUX)
    Blend: AUG-CC-PVQZ-RI
	 Reference Energy          =   -2878.7306863158814849 [Eh]
	 Singles Energy            =      -0.0000000000000000 [Eh]
	 Same-Spin Energy          =      -0.4721471585889279 [Eh]
	 Opposite-Spin Energy      =      -1.4300785329456800 [Eh]
	 Correlation Energy        =      -1.9022256915346079 [Eh]
	 Total Energy              =   -2880.6329120074160528 [Eh]

	 ================> DF-SCS-MP2 Energies <==================
	-----------------------------------------------------------
	 SCS Same-Spin Scale       =       0.3333333333333333 [-]
	 SCS Opposite-Spin Scale   =       1.2000000000000000 [-]
	 SCS Same-Spin Energy      =      -0.1573823861963093 [Eh]
	 SCS Opposite-Spin Energy  =      -1.7160942395348160 [Eh]
	 SCS Correlation Energy    =      -1.8734766257311253 [Eh]
	 SCS Total Energy          =   -2880.6041629416126852 [Eh]
	-----------------------------------------------------------

*** Psi4 exiting successfully. Buy a developer a beer!
