                               Psi4 1.4a2.dev224

  ==> Input File <==

--------------------------------------------------------------------------
#Generated by lconvert.py for cbs job

memory 40 GB

molecule  {
0 1
 Br        2.1195960    -0.1313640     0.0000500
  C        0.2381660    -0.0649990     0.0000080
  C       -0.4072490     1.1696050    -0.0000290
  C       -0.4903420    -1.2524990     0.0000140
  C       -1.7997610     1.2104450    -0.0000600
  C       -1.8823350    -1.1975750    -0.0000180
  C       -2.5405810     0.0304420    -0.0000550
  H        0.1730180     2.0809810    -0.0000330
  H        0.0263100    -2.2013810     0.0000420
  H       -2.3028230     2.1677980    -0.0000880
  H       -2.4498020    -2.1181980    -0.0000130
  H       -3.6208680     0.0675110    -0.0000790
--
0 1
  O        4.3872960    -0.1756640     0.0000850
  H        4.8142830     0.2359310     0.7541710
  H        4.8142820     0.2359320    -0.7540010
units angstrom
no_reorient
symmetry c1
}

set {
scf_type DF
mp2_type DF
e_convergence 7
reference rhf
}

energy('mp2/aug-cc-pv[tq]z', bsse_type='cp')
--------------------------------------------------------------------------

    Molecular point group: c1
  Charge       = 0
  Multiplicity = 1
  Basis Set: AUG-CC-PVTZ
    Blend: AUG-CC-PVTZ
  Basis Set: (AUG-CC-PVTZ AUX)
    Blend: AUG-CC-PVTZ-JKFIT
  @DF-RHF Final Energy:   -76.06038298289542
    Total Energy =                        -76.0603829828954190
  Basis Set: (AUG-CC-PVTZ AUX)
    Blend: AUG-CC-PVTZ-RI
	 Reference Energy          =     -76.0603829828954190 [Eh]
	 Singles Energy            =      -0.0000000000000000 [Eh]
	 Same-Spin Energy          =      -0.0683894364334563 [Eh]
	 Opposite-Spin Energy      =      -0.2153098389327116 [Eh]
	 Correlation Energy        =      -0.2836992753661679 [Eh]
	 Total Energy              =     -76.3440822582615937 [Eh]
	 SCS Total Energy          =     -76.3415512684258317 [Eh]
    Molecular point group: c1
  Basis Set: AUG-CC-PVQZ
    Blend: AUG-CC-PVQZ
  Basis Set: (AUG-CC-PVQZ AUX)
    Blend: AUG-CC-PVQZ-JKFIT
  @DF-RHF Final Energy:   -76.06576646329671
    Total Energy =                        -76.0657664632967112
  Basis Set: (AUG-CC-PVQZ AUX)
  @DF-RHF Final Energy:   -76.06049480174804
    Total Energy =                        -76.0604948017480496
  @DF-RHF Final Energy:   -76.06580832034381
    Total Energy =                        -76.0658083203438196
  @DF-RHF Final Energy: -2802.65815309595882
    Total Energy =                      -2802.6581530959592783
  @DF-RHF Final Energy: -2802.67390832412457
    Total Energy =                      -2802.6739083241241133
  @DF-RHF Final Energy: -2802.65805723347330
    Total Energy =                      -2802.6580572334733006
  @DF-RHF Final Energy: -2802.67388914483263
    Total Energy =                      -2802.6738891448321738
  Multiplicity = 1
  @DF-RHF Final Energy: -2878.68756414143672
    Total Energy =                      -2878.6875641414367237
	 Singles Energy            =      -0.0000000000000000 [Eh]
	 Same-Spin Energy          =      -0.4243646415197718 [Eh]
	 Opposite-Spin Energy      =      -1.2359994326813177 [Eh]
	 Correlation Energy        =      -1.6603640742010897 [Eh]
	 Total Energy              =   -2880.3479282156376939 [Eh]
	 SCS Total Energy          =   -2880.3122183411610422 [Eh]
    Molecular point group: c1

    Geometry (in Angstrom), charge = 0, multiplicity = 1:

       Center              X                  Y                   Z               Mass
    ------------   -----------------  -----------------  -----------------  -----------------
         BR           1.220982751019    -0.051122298231     0.000029165845    78.918337600000
         C           -0.660447248981     0.015242701769    -0.000012834155    12.000000000000
         C           -1.305862248981     1.249846701769    -0.000049834155    12.000000000000
         C           -1.388955248981    -1.172257298231    -0.000006834155    12.000000000000
         C           -2.698374248981     1.290686701769    -0.000080834155    12.000000000000
         C           -2.780948248981    -1.117333298231    -0.000038834155    12.000000000000
         C           -3.439194248981     0.110683701769    -0.000075834155    12.000000000000
         H           -0.725595248981     2.161222701769    -0.000053834155     1.007825032230
         H           -0.872303248981    -2.121139298231     0.000021165845     1.007825032230
         H           -3.201436248981     2.248039701769    -0.000108834155     1.007825032230
         H           -3.348415248981    -2.037956298231    -0.000033834155     1.007825032230
         H           -4.519481248981     0.147752701769    -0.000099834155     1.007825032230
         O            3.488682751019    -0.095422298231     0.000064165845    15.994914619570
         H            3.915669751019     0.316172701769     0.754150165845     1.007825032230
         H            3.915668751019     0.316173701769    -0.754021834155     1.007825032230

  Charge       = 0
  Multiplicity = 1
  Basis Set: AUG-CC-PVQZ
    Blend: AUG-CC-PVQZ
  Basis Set: (AUG-CC-PVQZ AUX)
    Blend: AUG-CC-PVQZ-JKFIT

    Orbital Energies [Eh]
    ---------------------

    Doubly Occupied:

       1A   -490.000004     2A    -65.140411     3A    -58.495986
       4A    -58.493966     5A    -58.493907     6A    -20.582838
       7A    -11.264291     8A    -11.233818     9A    -11.233478
      10A    -11.231263    11A    -11.230736    12A    -11.229672
      13A     -9.814578    14A     -7.426693    15A     -7.418497
      16A     -7.418307    17A     -3.171239    18A     -3.166575
      19A     -3.166209    20A     -3.156021    21A     -3.156020
      22A     -1.383906    23A     -1.156043    24A     -1.053681
      25A     -1.014721    26A     -0.957584    27A     -0.827539
      28A     -0.802452    29A     -0.741235    30A     -0.699113
      31A     -0.651609    32A     -0.626133    33A     -0.618718
      34A     -0.587680    35A     -0.566652    36A     -0.531217
      37A     -0.514117    38A     -0.497594    39A     -0.436883
      40A     -0.421791    41A     -0.393743    42A     -0.336383
      43A     -0.314751

  @DF-RHF Final Energy: -2878.70886970255970

   => Energetics <=

    Nuclear Repulsion Energy =            558.6963803922551506
    One-Electron Energy =               -5111.4943743690237170
    Two-Electron Energy =                1674.0891242742084160
    Total Energy =                      -2878.7088697025601505

  Dipole Moment: [D]
     X:     1.7106      Y:     1.3008      Z:     0.0000     Total:     2.1491

  Basis Set: (AUG-CC-PVQZ AUX)
    Blend: AUG-CC-PVQZ-RI
	 Reference Energy          =   -2878.7088697025596957 [Eh]
	 Singles Energy            =      -0.0000000000000000 [Eh]
	 Same-Spin Energy          =      -0.4747452801124113 [Eh]
	 Opposite-Spin Energy      =      -1.4330128511802012 [Eh]
	 Correlation Energy        =      -1.9077581312926126 [Eh]
	 Total Energy              =   -2880.6166278338523625 [Eh]

	 ================> DF-SCS-MP2 Energies <==================
	-----------------------------------------------------------
	 SCS Same-Spin Scale       =       0.3333333333333333 [-]
	 SCS Opposite-Spin Scale   =       1.2000000000000000 [-]
	 SCS Same-Spin Energy      =      -0.1582484267041371 [Eh]
	 SCS Opposite-Spin Energy  =      -1.7196154214162414 [Eh]
	 SCS Correlation Energy    =      -1.8778638481203784 [Eh]
	 SCS Total Energy          =   -2880.5867335506800373 [Eh]
	-----------------------------------------------------------

*** Psi4 exiting successfully. Buy a developer a beer!
