                               Psi4 1.4a2.dev224

  ==> Input File <==

--------------------------------------------------------------------------
#Generated by lconvert.py for cbs job

memory 40 GB

molecule  {
0 1
 Br        2.1195960    -0.1313640     0.0000500
  C        0.2381660    -0.0649990     0.0000080
  C       -0.4072490     1.1696050    -0.0000290
  C       -0.4903420    -1.2524990     0.0000140
  C       -1.7997610     1.2104450    -0.0000600
  C       -1.8823350    -1.1975750    -0.0000180
  C       -2.5405810     0.0304420    -0.0000550
  H        0.1730180     2.0809810    -0.0000330
  H        0.0263100    -2.2013810     0.0000420
  H       -2.3028230     2.1677980    -0.0000880
  H       -2.4498020    -2.1181980    -0.0000130
  H       -3.6208680     0.0675110    -0.0000790
--
0 1
  O        5.1971890    -0.1914860     0.0000970
  H        5.6241760     0.2201090     0.7541840
  H        5.6241750     0.2201100    -0.7539880
units angstrom
no_reorient
symmetry c1
}

set {
scf_type DF
mp2_type DF
e_convergence 7
reference rhf
}

energy('mp2/aug-cc-pv[tq]z', bsse_type='cp')
--------------------------------------------------------------------------

    Molecular point group: c1
  Charge       = 0
  Multiplicity = 1
  Basis Set: AUG-CC-PVTZ
    Blend: AUG-CC-PVTZ
  Basis Set: (AUG-CC-PVTZ AUX)
    Blend: AUG-CC-PVTZ-JKFIT
  @DF-RHF Final Energy:   -76.06038298288195
    Total Energy =                        -76.0603829828819471
  Basis Set: (AUG-CC-PVTZ AUX)
    Blend: AUG-CC-PVTZ-RI
	 Reference Energy          =     -76.0603829828819471 [Eh]
	 Singles Energy            =      -0.0000000000000000 [Eh]
	 Same-Spin Energy          =      -0.0683894364334481 [Eh]
	 Opposite-Spin Energy      =      -0.2153098389326509 [Eh]
	 Correlation Energy        =      -0.2836992753660990 [Eh]
	 Total Energy              =     -76.3440822582480507 [Eh]
	 SCS Total Energy          =     -76.3415512684122746 [Eh]
    Molecular point group: c1
  Basis Set: AUG-CC-PVQZ
    Blend: AUG-CC-PVQZ
  Basis Set: (AUG-CC-PVQZ AUX)
    Blend: AUG-CC-PVQZ-JKFIT
  @DF-RHF Final Energy:   -76.06576646328610
    Total Energy =                        -76.0657664632861099
  Basis Set: (AUG-CC-PVQZ AUX)
  @DF-RHF Final Energy:   -76.06043723265985
    Total Energy =                        -76.0604372326598508
  @DF-RHF Final Energy:   -76.06578785253171
    Total Energy =                        -76.0657878525317130
  @DF-RHF Final Energy: -2802.65810142854116
    Total Energy =                      -2802.6581014285411584
  @DF-RHF Final Energy: -2802.67389794739984
    Total Energy =                      -2802.6738979473993822
  @DF-RHF Final Energy: -2802.65805723605308
    Total Energy =                      -2802.6580572360530823
  @DF-RHF Final Energy: -2802.67388913593868
    Total Energy =                      -2802.6738891359382251
  Multiplicity = 1
  @DF-RHF Final Energy: -2878.71783442636797
    Total Energy =                      -2878.7178344263679719
	 Singles Energy            =      -0.0000000000000000 [Eh]
	 Same-Spin Energy          =      -0.4197139475922818 [Eh]
	 Opposite-Spin Energy      =      -1.2302739255450457 [Eh]
	 Correlation Energy        =      -1.6499878731373274 [Eh]
	 Total Energy              =   -2880.3678222995054057 [Eh]
	 SCS Total Energy          =   -2880.3340677862192933 [Eh]
    Molecular point group: c1

    Geometry (in Angstrom), charge = 0, multiplicity = 1:

       Center              X                  Y                   Z               Mass
    ------------   -----------------  -----------------  -----------------  -----------------
         BR           1.137136135766    -0.049484277966     0.000027911923    78.918337600000
         C           -0.744293864234     0.016880722034    -0.000014088077    12.000000000000
         C           -1.389708864234     1.251484722034    -0.000051088077    12.000000000000
         C           -1.472801864234    -1.170619277966    -0.000008088077    12.000000000000
         C           -2.782220864234     1.292324722034    -0.000082088077    12.000000000000
         C           -2.864794864234    -1.115695277966    -0.000040088077    12.000000000000
         C           -3.523040864234     0.112321722034    -0.000077088077    12.000000000000
         H           -0.809441864234     2.162860722034    -0.000055088077     1.007825032230
         H           -0.956149864234    -2.119501277966     0.000019911923     1.007825032230
         H           -3.285282864234     2.249677722034    -0.000110088077     1.007825032230
         H           -3.432261864234    -2.036318277966    -0.000035088077     1.007825032230
         H           -4.603327864234     0.149390722034    -0.000101088077     1.007825032230
         O            4.214729135766    -0.109606277966     0.000074911923    15.994914619570
         H            4.641716135766     0.301988722034     0.754161911923     1.007825032230
         H            4.641715135766     0.301989722034    -0.754010088077     1.007825032230

  Charge       = 0
  Multiplicity = 1
  Basis Set: AUG-CC-PVQZ
    Blend: AUG-CC-PVQZ
  Basis Set: (AUG-CC-PVQZ AUX)
    Blend: AUG-CC-PVQZ-JKFIT

    Orbital Energies [Eh]
    ---------------------

    Doubly Occupied:

       1A   -490.010521     2A    -65.150882     3A    -58.506303
       4A    -58.504817     5A    -58.504780     6A    -20.566637
       7A    -11.287219     8A    -11.243339     9A    -11.243064
      10A    -11.242117    11A    -11.241826    12A    -11.239039
      13A     -9.824368    14A     -7.435920    15A     -7.429178
      16A     -7.429096    17A     -3.179814    18A     -3.176167
      19A     -3.175908    20A     -3.167247    21A     -3.167244
      22A     -1.354813    23A     -1.167318    24A     -1.063683
      25A     -1.024776    26A     -0.964315    27A     -0.838016
      28A     -0.809752    29A     -0.716836    30A     -0.703539
      31A     -0.637574    32A     -0.637062    33A     -0.597147
      34A     -0.593438    35A     -0.564745    36A     -0.525365
      37A     -0.515830    38A     -0.507638    39A     -0.478693
      40A     -0.429622    41A     -0.403764    42A     -0.345539
      43A     -0.324423

  @DF-RHF Final Energy: -2878.73897984089490

   => Energetics <=

    Nuclear Repulsion Energy =            533.7361483022139055
    One-Electron Energy =               -5061.0914767129979737
    Two-Electron Energy =                1648.6163485698889417
    Total Energy =                      -2878.7389798408948991

  Dipole Moment: [D]
     X:     0.2124      Y:     1.3537      Z:    -0.0000     Total:     1.3703

  Basis Set: (AUG-CC-PVQZ AUX)
    Blend: AUG-CC-PVQZ-RI
	 Reference Energy          =   -2878.7389798408948991 [Eh]
	 Singles Energy            =      -0.0000000000000000 [Eh]
	 Same-Spin Energy          =      -0.4702117916055631 [Eh]
	 Opposite-Spin Energy      =      -1.4278479104504003 [Eh]
	 Correlation Energy        =      -1.8980597020559635 [Eh]
	 Total Energy              =   -2880.6370395429507880 [Eh]

	 ================> DF-SCS-MP2 Energies <==================
	-----------------------------------------------------------
	 SCS Same-Spin Scale       =       0.3333333333333333 [-]
	 SCS Opposite-Spin Scale   =       1.2000000000000000 [-]
	 SCS Same-Spin Energy      =      -0.1567372638685210 [Eh]
	 SCS Opposite-Spin Energy  =      -1.7134174925404804 [Eh]
	 SCS Correlation Energy    =      -1.8701547564090015 [Eh]
	 SCS Total Energy          =   -2880.6091345973040916 [Eh]
	-----------------------------------------------------------

*** Psi4 exiting successfully. Buy a developer a beer!
