                               Psi4 1.4a2.dev224

  ==> Input File <==

--------------------------------------------------------------------------
#Generated by lconvert.py for cbs job

memory 20 GB

molecule  {
0 1
 Br       2.119600   -0.131360    0.000050
  C       0.238170   -0.065000    0.000010
  C      -0.407250    1.169610   -0.000030
  C      -0.490340   -1.252500    0.000010
  C      -1.799760    1.210440   -0.000060
  C      -1.882340   -1.197580   -0.000020
  C      -2.540580    0.030440   -0.000060
  H       0.173020    2.080980   -0.000030
  H       0.026310   -2.201380    0.000040
  H      -2.302820    2.167800   -0.000090
  H      -2.449800   -2.118200   -0.000010
  H      -3.620870    0.067510   -0.000080
--
0 1
  O       6.331040   -0.213640    0.000120
  H       6.758030    0.197960    0.754200
  H       6.758030    0.197960   -0.753970
units angstrom
no_reorient
symmetry c1
}

set {
scf_type DF
mp2_type DF
e_convergence 7
reference rhf
}

energy('mp2/aug-cc-pv[tq]z', bsse_type='cp')
--------------------------------------------------------------------------

    Molecular point group: c1
  Charge       = 0
  Multiplicity = 1
  Basis Set: AUG-CC-PVTZ
    Blend: AUG-CC-PVTZ
  Basis Set: (AUG-CC-PVTZ AUX)
    Blend: AUG-CC-PVTZ-JKFIT
  @DF-RHF Final Energy:   -76.06038272473160
    Total Energy =                        -76.0603827247315962
  Basis Set: (AUG-CC-PVTZ AUX)
    Blend: AUG-CC-PVTZ-RI
	 Reference Energy          =     -76.0603827247315962 [Eh]
	 Singles Energy            =      -0.0000000000000000 [Eh]
	 Same-Spin Energy          =      -0.0683894964108470 [Eh]
	 Opposite-Spin Energy      =      -0.2153100172098804 [Eh]
	 Correlation Energy        =      -0.2836995136207274 [Eh]
	 Total Energy              =     -76.3440822383523283 [Eh]
	 SCS Total Energy          =     -76.3415512441870732 [Eh]
    Molecular point group: c1
  Basis Set: AUG-CC-PVQZ
    Blend: AUG-CC-PVQZ
  Basis Set: (AUG-CC-PVQZ AUX)
    Blend: AUG-CC-PVQZ-JKFIT
  @DF-RHF Final Energy:   -76.06576619211968
    Total Energy =                        -76.0657661921196819
  Basis Set: (AUG-CC-PVQZ AUX)
  @DF-RHF Final Energy:   -76.06039384854914
    Total Energy =                        -76.0603938485491256
  @DF-RHF Final Energy:   -76.06577159410837
    Total Energy =                        -76.0657715941083552
  @DF-RHF Final Energy: -2802.65806856942436
    Total Energy =                      -2802.6580685694243584
  @DF-RHF Final Energy: -2802.67389137069313
    Total Energy =                      -2802.6738913706931271
  @DF-RHF Final Energy: -2802.65805700524834
    Total Energy =                      -2802.6580570052483381
  @DF-RHF Final Energy: -2802.67388892192685
    Total Energy =                      -2802.6738889219268458
  Multiplicity = 1
  @DF-RHF Final Energy: -2878.71856262493156
    Total Energy =                      -2878.7185626249315646
	 Singles Energy            =      -0.0000000000000000 [Eh]
	 Same-Spin Energy          =      -0.4184455887177975 [Eh]
	 Opposite-Spin Energy      =      -1.2286011086694035 [Eh]
	 Correlation Energy        =      -1.6470466973872009 [Eh]
	 Total Energy              =   -2880.3656093223189600 [Eh]
	 SCS Total Energy          =   -2880.3323658182407598 [Eh]
    Molecular point group: c1

    Geometry (in Angstrom), charge = 0, multiplicity = 1:

       Center              X                  Y                   Z               Mass
    ------------   -----------------  -----------------  -----------------  -----------------
         BR           1.019752769566    -0.047187958395     0.000026284285    78.918337600000
         C           -0.861677230434     0.019172041605    -0.000013715715    12.000000000000
         C           -1.507097230434     1.253782041605    -0.000053715715    12.000000000000
         C           -1.590187230434    -1.168327958395    -0.000013715715    12.000000000000
         C           -2.899607230434     1.294612041605    -0.000083715715    12.000000000000
         C           -2.982187230434    -1.113407958395    -0.000043715715    12.000000000000
         C           -3.640427230434     0.114612041605    -0.000083715715    12.000000000000
         H           -0.926827230434     2.165152041605    -0.000053715715     1.007825032230
         H           -1.073537230434    -2.117207958395     0.000016284285     1.007825032230
         H           -3.402667230434     2.251972041605    -0.000113715715     1.007825032230
         H           -3.549647230434    -2.034027958395    -0.000033715715     1.007825032230
         H           -4.720717230434     0.151682041605    -0.000103715715     1.007825032230
         O            5.231192769566    -0.129467958395     0.000096284285    15.994914619570
         H            5.658182769566     0.282132041605     0.754176284285     1.007825032230
         H            5.658182769566     0.282132041605    -0.753993715715     1.007825032230

  Charge       = 0
  Multiplicity = 1
  Basis Set: AUG-CC-PVQZ
    Blend: AUG-CC-PVQZ
  Basis Set: (AUG-CC-PVQZ AUX)
    Blend: AUG-CC-PVQZ-JKFIT

    Orbital Energies [Eh]
    ---------------------

    Doubly Occupied:

       1A   -490.016599     2A    -65.157018     3A    -58.512420
       4A    -58.511010     5A    -58.510980     6A    -20.563346
       7A    -11.293429     8A    -11.247133     9A    -11.246917
      10A    -11.245559    11A    -11.245296    12A    -11.242415
      13A     -9.830490    14A     -7.442039    15A     -7.435430
      16A     -7.435383    17A     -3.185838    18A     -3.182283
      19A     -3.182063    20A     -3.173566    21A     -3.173564
      22A     -1.350272    23A     -1.171308    24A     -1.068352
      25A     -1.028325    26A     -0.969065    27A     -0.841688
      28A     -0.813454    29A     -0.712733    30A     -0.706949
      31A     -0.640893    32A     -0.640612    33A     -0.600544
      34A     -0.584389    35A     -0.570795    36A     -0.529451
      37A     -0.511166    38A     -0.508600    39A     -0.488590
      40A     -0.434388    41A     -0.409634    42A     -0.348809
      43A     -0.328771

  @DF-RHF Final Energy: -2878.73975705604335

   => Energetics <=

    Nuclear Repulsion Energy =            513.2576096513411130
    One-Electron Energy =               -5019.8115801872272641
    Two-Electron Energy =                1627.8142134798424649
    Total Energy =                      -2878.7397570560433451

  Dipole Moment: [D]
     X:    -0.2395      Y:     1.3943      Z:    -0.0000     Total:     1.4147

  Basis Set: (AUG-CC-PVQZ AUX)
    Blend: AUG-CC-PVQZ-RI
	 Reference Energy          =   -2878.7397570560433451 [Eh]
	 Singles Energy            =      -0.0000000000000000 [Eh]
	 Same-Spin Energy          =      -0.4689211924323020 [Eh]
	 Opposite-Spin Energy      =      -1.4262765713610024 [Eh]
	 Correlation Energy        =      -1.8951977637933044 [Eh]
	 Total Energy              =   -2880.6349548198368211 [Eh]

	 ================> DF-SCS-MP2 Energies <==================
	-----------------------------------------------------------
	 SCS Same-Spin Scale       =       0.3333333333333333 [-]
	 SCS Opposite-Spin Scale   =       1.2000000000000000 [-]
	 SCS Same-Spin Energy      =      -0.1563070641441007 [Eh]
	 SCS Opposite-Spin Energy  =      -1.7115318856332029 [Eh]
	 SCS Correlation Energy    =      -1.8678389497773036 [Eh]
	 SCS Total Energy          =   -2880.6075960058205965 [Eh]
	-----------------------------------------------------------

*** Psi4 exiting successfully. Buy a developer a beer!
