                               Psi4 1.4a2.dev224

  ==> Input File <==

--------------------------------------------------------------------------
#Generated by lconvert.py for cbs job

memory 40 GB

molecule  {
0 1
 Br        2.1195960    -0.1313640     0.0000500
  C        0.2381660    -0.0649990     0.0000080
  C       -0.4072490     1.1696050    -0.0000290
  C       -0.4903420    -1.2524990     0.0000140
  C       -1.7997610     1.2104450    -0.0000600
  C       -1.8823350    -1.1975750    -0.0000180
  C       -2.5405810     0.0304420    -0.0000550
  H        0.1730180     2.0809810    -0.0000330
  H        0.0263100    -2.2013810     0.0000420
  H       -2.3028230     2.1677980    -0.0000880
  H       -2.4498020    -2.1181980    -0.0000130
  H       -3.6208680     0.0675110    -0.0000790
--
0 1
  O        5.0352110    -0.1883210     0.0000950
  H        5.4621980     0.2232740     0.7541810
  H        5.4621970     0.2232750    -0.7539910
units angstrom
no_reorient
symmetry c1
}

set {
scf_type DF
mp2_type DF
e_convergence 7
reference rhf
}

energy('mp2/aug-cc-pv[tq]z', bsse_type='cp')
--------------------------------------------------------------------------

    Molecular point group: c1
  Charge       = 0
  Multiplicity = 1
  Basis Set: AUG-CC-PVTZ
    Blend: AUG-CC-PVTZ
  Basis Set: (AUG-CC-PVTZ AUX)
    Blend: AUG-CC-PVTZ-JKFIT
  @DF-RHF Final Energy:   -76.06038298289157
    Total Energy =                        -76.0603829828915678
  Basis Set: (AUG-CC-PVTZ AUX)
    Blend: AUG-CC-PVTZ-RI
	 Reference Energy          =     -76.0603829828915678 [Eh]
	 Singles Energy            =      -0.0000000000000000 [Eh]
	 Same-Spin Energy          =      -0.0683894364334369 [Eh]
	 Opposite-Spin Energy      =      -0.2153098389326549 [Eh]
	 Correlation Energy        =      -0.2836992753660918 [Eh]
	 Total Energy              =     -76.3440822582576573 [Eh]
	 SCS Total Energy          =     -76.3415512684218953 [Eh]
    Molecular point group: c1
  Basis Set: AUG-CC-PVQZ
    Blend: AUG-CC-PVQZ
  Basis Set: (AUG-CC-PVQZ AUX)
    Blend: AUG-CC-PVQZ-JKFIT
  @DF-RHF Final Energy:   -76.06576646331177
    Total Energy =                        -76.0657664633117747
  Basis Set: (AUG-CC-PVQZ AUX)
  @DF-RHF Final Energy:   -76.06045091732238
    Total Energy =                        -76.0604509173223846
  @DF-RHF Final Energy:   -76.06579158307260
    Total Energy =                        -76.0657915830725955
  @DF-RHF Final Energy: -2802.65811017088572
    Total Energy =                      -2802.6581101708857204
  @DF-RHF Final Energy: -2802.67389971105831
    Total Energy =                      -2802.6738997110578566
  @DF-RHF Final Energy: -2802.65805722678215
    Total Energy =                      -2802.6580572267821481
  @DF-RHF Final Energy: -2802.67388914902949
    Total Energy =                      -2802.6738891490294918
  Multiplicity = 1
  @DF-RHF Final Energy: -2878.71654973650084
    Total Energy =                      -2878.7165497365008378
	 Singles Energy            =      -0.0000000000000000 [Eh]
	 Same-Spin Energy          =      -0.4201892149996937 [Eh]
	 Opposite-Spin Energy      =      -1.2308619510373555 [Eh]
	 Correlation Energy        =      -1.6510511660370493 [Eh]
	 Total Energy              =   -2880.3676009025380154 [Eh]
	 SCS Total Energy          =   -2880.3336471494121724 [Eh]
    Molecular point group: c1

    Geometry (in Angstrom), charge = 0, multiplicity = 1:

       Center              X                  Y                   Z               Mass
    ------------   -----------------  -----------------  -----------------  -----------------
         BR           1.153905396700    -0.049811944136     0.000028130565    78.918337600000
         C           -0.727524603300     0.016553055864    -0.000013869435    12.000000000000
         C           -1.372939603300     1.251157055864    -0.000050869435    12.000000000000
         C           -1.456032603300    -1.170946944136    -0.000007869435    12.000000000000
         C           -2.765451603300     1.291997055864    -0.000081869435    12.000000000000
         C           -2.848025603300    -1.116022944136    -0.000039869435    12.000000000000
         C           -3.506271603300     0.111994055864    -0.000076869435    12.000000000000
         H           -0.792672603300     2.162533055864    -0.000054869435     1.007825032230
         H           -0.939380603300    -2.119828944136     0.000020130565     1.007825032230
         H           -3.268513603300     2.249350055864    -0.000109869435     1.007825032230
         H           -3.415492603300    -2.036645944136    -0.000034869435     1.007825032230
         H           -4.586558603300     0.149063055864    -0.000100869435     1.007825032230
         O            4.069520396700    -0.106768944136     0.000073130565    15.994914619570
         H            4.496507396700     0.304826055864     0.754159130565     1.007825032230
         H            4.496506396700     0.304827055864    -0.754012869435     1.007825032230

  Charge       = 0
  Multiplicity = 1
  Basis Set: AUG-CC-PVQZ
    Blend: AUG-CC-PVQZ
  Basis Set: (AUG-CC-PVQZ AUX)
    Blend: AUG-CC-PVQZ-JKFIT

    Orbital Energies [Eh]
    ---------------------

    Doubly Occupied:

       1A   -490.008971     2A    -65.149330     3A    -58.504759
       4A    -58.503237     5A    -58.503197     6A    -20.567878
       7A    -11.285104     8A    -11.242263     9A    -11.241982
      10A    -11.241057    11A    -11.240747    12A    -11.238052
      13A     -9.822852    14A     -7.434419    15A     -7.427598
      16A     -7.427506    17A     -3.178353    18A     -3.174654
      19A     -3.174382    20A     -3.165634    21A     -3.165632
      22A     -1.356882    23A     -1.166138    24A     -1.062443
      25A     -1.023727    26A     -0.963182    27A     -0.836927
      28A     -0.808765    29A     -0.718651    30A     -0.702659
      31A     -0.637002    32A     -0.635923    33A     -0.597636
      34A     -0.596142    35A     -0.563005    36A     -0.524171
      37A     -0.518695    38A     -0.506596    39A     -0.474708
      40A     -0.428490    41A     -0.402373    42A     -0.344580
      43A     -0.323271

  @DF-RHF Final Energy: -2878.73769468356068

   => Energetics <=

    Nuclear Repulsion Energy =            537.7607497159420973
    One-Electron Energy =               -5069.2177158150716423
    Two-Electron Energy =                1652.7192714155685280
    Total Energy =                      -2878.7376946835606759

  Dipole Moment: [D]
     X:     0.3599      Y:     1.3456      Z:    -0.0000     Total:     1.3929

  Basis Set: (AUG-CC-PVQZ AUX)
    Blend: AUG-CC-PVQZ-RI
	 Reference Energy          =   -2878.7376946835606759 [Eh]
	 Singles Energy            =      -0.0000000000000000 [Eh]
	 Same-Spin Energy          =      -0.4706898365413772 [Eh]
	 Opposite-Spin Energy      =      -1.4284152203381586 [Eh]
	 Correlation Energy        =      -1.8991050568795358 [Eh]
	 Total Energy              =   -2880.6367997404404377 [Eh]

	 ================> DF-SCS-MP2 Energies <==================
	-----------------------------------------------------------
	 SCS Same-Spin Scale       =       0.3333333333333333 [-]
	 SCS Opposite-Spin Scale   =       1.2000000000000000 [-]
	 SCS Same-Spin Energy      =      -0.1568966121804591 [Eh]
	 SCS Opposite-Spin Energy  =      -1.7140982644057903 [Eh]
	 SCS Correlation Energy    =      -1.8709948765862494 [Eh]
	 SCS Total Energy          =   -2880.6086895601470133 [Eh]
	-----------------------------------------------------------

*** Psi4 exiting successfully. Buy a developer a beer!
