                               Psi4 1.4a2.dev224

  ==> Input File <==

--------------------------------------------------------------------------
#Generated by lconvert.py for cbs job

memory 20 GB

molecule  {
0 1
 Br       2.119600   -0.131360    0.000050
  C       0.238170   -0.065000    0.000010
  C      -0.407250    1.169610   -0.000030
  C      -0.490340   -1.252500    0.000010
  C      -1.799760    1.210440   -0.000060
  C      -1.882340   -1.197580   -0.000020
  C      -2.540580    0.030440   -0.000060
  H       0.173020    2.080980   -0.000030
  H       0.026310   -2.201380    0.000040
  H      -2.302820    2.167800   -0.000090
  H      -2.449800   -2.118200   -0.000010
  H      -3.620870    0.067510   -0.000080
--
0 1
  O       7.302910   -0.232620    0.000130
  H       7.729900    0.178970    0.754220
  H       7.729900    0.178970   -0.753960
units angstrom
no_reorient
symmetry c1
}

set {
scf_type DF
mp2_type DF
e_convergence 7
reference rhf
}

energy('mp2/aug-cc-pv[tq]z', bsse_type='cp')
--------------------------------------------------------------------------

    Molecular point group: c1
  Charge       = 0
  Multiplicity = 1
  Basis Set: AUG-CC-PVTZ
    Blend: AUG-CC-PVTZ
  Basis Set: (AUG-CC-PVTZ AUX)
    Blend: AUG-CC-PVTZ-JKFIT
  @DF-RHF Final Energy:   -76.06038286058062
    Total Energy =                        -76.0603828605806171
  Basis Set: (AUG-CC-PVTZ AUX)
    Blend: AUG-CC-PVTZ-RI
	 Reference Energy          =     -76.0603828605806171 [Eh]
	 Singles Energy            =      -0.0000000000000000 [Eh]
	 Same-Spin Energy          =      -0.0683894684489797 [Eh]
	 Opposite-Spin Energy      =      -0.2153099395637245 [Eh]
	 Correlation Energy        =      -0.2836994080127042 [Eh]
	 Total Energy              =     -76.3440822685933256 [Eh]
	 SCS Total Energy          =     -76.3415512775400771 [Eh]
    Molecular point group: c1
  Basis Set: AUG-CC-PVQZ
    Blend: AUG-CC-PVQZ
  Basis Set: (AUG-CC-PVQZ AUX)
    Blend: AUG-CC-PVQZ-JKFIT
  @DF-RHF Final Energy:   -76.06576632849693
    Total Energy =                        -76.0657663284969345
  Basis Set: (AUG-CC-PVQZ AUX)
  @DF-RHF Final Energy:   -76.06038737901646
    Total Energy =                        -76.0603873790164613
  @DF-RHF Final Energy:   -76.06576913260342
    Total Energy =                        -76.0657691326034353
  @DF-RHF Final Energy: -2802.65806153131598
    Total Energy =                      -2802.6580615313159797
  @DF-RHF Final Energy: -2802.67388995842111
    Total Energy =                      -2802.6738899584215687
  @DF-RHF Final Energy: -2802.65805700874989
    Total Energy =                      -2802.6580570087498927
  @DF-RHF Final Energy: -2802.67388892240660
    Total Energy =                      -2802.6738889224070590
  Multiplicity = 1
  @DF-RHF Final Energy: -2878.71834959187254
    Total Energy =                      -2878.7183495918725384
	 Singles Energy            =      -0.0000000000000000 [Eh]
	 Same-Spin Energy          =      -0.4182363798771732 [Eh]
	 Opposite-Spin Energy      =      -1.2282839035828359 [Eh]
	 Correlation Energy        =      -1.6465202834600090 [Eh]
	 Total Energy              =   -2880.3648698753327153 [Eh]
	 SCS Total Energy          =   -2880.3317024027978732 [Eh]
    Molecular point group: c1

    Geometry (in Angstrom), charge = 0, multiplicity = 1:

       Center              X                  Y                   Z               Mass
    ------------   -----------------  -----------------  -----------------  -----------------
         BR           0.919136996906    -0.045222880793     0.000025191073    78.918337600000
         C           -0.962293003094     0.021137119207    -0.000014808927    12.000000000000
         C           -1.607713003094     1.255747119207    -0.000054808927    12.000000000000
         C           -1.690803003094    -1.166362880793    -0.000014808927    12.000000000000
         C           -3.000223003094     1.296577119207    -0.000084808927    12.000000000000
         C           -3.082803003094    -1.111442880793    -0.000044808927    12.000000000000
         C           -3.741043003094     0.116577119207    -0.000084808927    12.000000000000
         H           -1.027443003094     2.167117119207    -0.000054808927     1.007825032230
         H           -1.174153003094    -2.115242880793     0.000015191073     1.007825032230
         H           -3.503283003094     2.253937119207    -0.000114808927     1.007825032230
         H           -3.650263003094    -2.032062880793    -0.000034808927     1.007825032230
         H           -4.821333003094     0.153647119207    -0.000104808927     1.007825032230
         O            6.102446996906    -0.146482880793     0.000105191073    15.994914619570
         H            6.529436996906     0.265107119207     0.754195191073     1.007825032230
         H            6.529436996906     0.265107119207    -0.753984808927     1.007825032230

  Charge       = 0
  Multiplicity = 1
  Basis Set: AUG-CC-PVQZ
    Blend: AUG-CC-PVQZ
  Basis Set: (AUG-CC-PVQZ AUX)
    Blend: AUG-CC-PVQZ-JKFIT

    Orbital Energies [Eh]
    ---------------------

    Doubly Occupied:

       1A   -490.018953     2A    -65.159396     3A    -58.514792
       4A    -58.513398     5A    -58.513370     6A    -20.563036
       7A    -11.295276     8A    -11.248500     9A    -11.248327
      10A    -11.246751    11A    -11.246494    12A    -11.243625
      13A     -9.832880    14A     -7.444427    15A     -7.437844
      16A     -7.437806    17A     -3.188205    18A     -3.184667
      19A     -3.184456    20A     -3.175998    21A     -3.175995
      22A     -1.349935    23A     -1.172717    24A     -1.070110
      25A     -1.029588    26A     -0.970927    27A     -0.842990
      28A     -0.814836    29A     -0.712436    30A     -0.708248
      31A     -0.642237    32A     -0.641877    33A     -0.601770
      34A     -0.583818    35A     -0.572488    36A     -0.530911
      37A     -0.512416    38A     -0.508091    39A     -0.490675
      40A     -0.436338    41A     -0.412031    42A     -0.349990
      43A     -0.330426

  @DF-RHF Final Energy: -2878.73955851065466

   => Energetics <=

    Nuclear Repulsion Energy =            502.0533588220428669
    One-Electron Energy =               -4997.2677170179340465
    Two-Electron Energy =                1616.4747996852361211
    Total Energy =                      -2878.7395585106546605

  Dipole Moment: [D]
     X:    -0.3662      Y:     1.4141      Z:    -0.0000     Total:     1.4607

  Basis Set: (AUG-CC-PVQZ AUX)
    Blend: AUG-CC-PVQZ-RI
	 Reference Energy          =   -2878.7395585106546605 [Eh]
	 Singles Energy            =      -0.0000000000000000 [Eh]
	 Same-Spin Energy          =      -0.4687277371905725 [Eh]
	 Opposite-Spin Energy      =      -1.4260263536443210 [Eh]
	 Correlation Energy        =      -1.8947540908348934 [Eh]
	 Total Energy              =   -2880.6343126014894551 [Eh]

	 ================> DF-SCS-MP2 Energies <==================
	-----------------------------------------------------------
	 SCS Same-Spin Scale       =       0.3333333333333333 [-]
	 SCS Opposite-Spin Scale   =       1.2000000000000000 [-]
	 SCS Same-Spin Energy      =      -0.1562425790635242 [Eh]
	 SCS Opposite-Spin Energy  =      -1.7112316243731851 [Eh]
	 SCS Correlation Energy    =      -1.8674742034367093 [Eh]
	 SCS Total Energy          =   -2880.6070327140914742 [Eh]
	-----------------------------------------------------------

*** Psi4 exiting successfully. Buy a developer a beer!
