                               Psi4 1.4a2.dev224

  ==> Input File <==

--------------------------------------------------------------------------
#Generated by lconvert.py for cbs job

memory 40 GB

molecule  {
0 1
 Br        2.1195960    -0.1313640     0.0000500
  C        0.2381660    -0.0649990     0.0000080
  C       -0.4072490     1.1696050    -0.0000290
  C       -0.4903420    -1.2524990     0.0000140
  C       -1.7997610     1.2104450    -0.0000600
  C       -1.8823350    -1.1975750    -0.0000180
  C       -2.5405810     0.0304420    -0.0000550
  H        0.1730180     2.0809810    -0.0000330
  H        0.0263100    -2.2013810     0.0000420
  H       -2.3028230     2.1677980    -0.0000880
  H       -2.4498020    -2.1181980    -0.0000130
  H       -3.6208680     0.0675110    -0.0000790
--
0 1
  O        5.3591680    -0.1946500     0.0001000
  H        5.7861550     0.2169450     0.7541860
  H        5.7861540     0.2169460    -0.7539860
units angstrom
no_reorient
symmetry c1
}

set {
scf_type DF
mp2_type DF
e_convergence 7
reference rhf
}

energy('mp2/aug-cc-pv[tq]z', bsse_type='cp')
--------------------------------------------------------------------------

    Molecular point group: c1
  Charge       = 0
  Multiplicity = 1
  Basis Set: AUG-CC-PVTZ
    Blend: AUG-CC-PVTZ
  Basis Set: (AUG-CC-PVTZ AUX)
    Blend: AUG-CC-PVTZ-JKFIT
  @DF-RHF Final Energy:   -76.06038298288429
    Total Energy =                        -76.0603829828842919
  Basis Set: (AUG-CC-PVTZ AUX)
    Blend: AUG-CC-PVTZ-RI
	 Reference Energy          =     -76.0603829828842919 [Eh]
	 Singles Energy            =      -0.0000000000000000 [Eh]
	 Same-Spin Energy          =      -0.0683894364334622 [Eh]
	 Opposite-Spin Energy      =      -0.2153098389326656 [Eh]
	 Correlation Energy        =      -0.2836992753661278 [Eh]
	 Total Energy              =     -76.3440822582504239 [Eh]
	 SCS Total Energy          =     -76.3415512684146478 [Eh]
    Molecular point group: c1
  Basis Set: AUG-CC-PVQZ
    Blend: AUG-CC-PVQZ
  Basis Set: (AUG-CC-PVQZ AUX)
    Blend: AUG-CC-PVQZ-JKFIT
  @DF-RHF Final Energy:   -76.06576646330151
    Total Energy =                        -76.0657664633015003
  Basis Set: (AUG-CC-PVQZ AUX)
  @DF-RHF Final Energy:   -76.06042311123528
    Total Energy =                        -76.0604231112352664
  @DF-RHF Final Energy:   -76.06578521345909
    Total Energy =                        -76.0657852134590939
  @DF-RHF Final Energy: -2802.65809240360159
    Total Energy =                      -2802.6580924036015858
  @DF-RHF Final Energy: -2802.67389628004094
    Total Energy =                      -2802.6738962800409354
  @DF-RHF Final Energy: -2802.65805723241692
    Total Energy =                      -2802.6580572324164677
  @DF-RHF Final Energy: -2802.67388913730292
    Total Energy =                      -2802.6738891373024671
  Multiplicity = 1
  @DF-RHF Final Energy: -2878.71844674327349
    Total Energy =                      -2878.7184467432734891
	 Singles Energy            =      -0.0000000000000000 [Eh]
	 Same-Spin Energy          =      -0.4193577394686599 [Eh]
	 Opposite-Spin Energy      =      -1.2298268786804014 [Eh]
	 Correlation Energy        =      -1.6491846181490613 [Eh]
	 Total Energy              =   -2880.3676313614223545 [Eh]
	 SCS Total Energy          =   -2880.3340249108459830 [Eh]
    Molecular point group: c1

    Geometry (in Angstrom), charge = 0, multiplicity = 1:

       Center              X                  Y                   Z               Mass
    ------------   -----------------  -----------------  -----------------  -----------------
         BR           1.120366771304    -0.049156715324     0.000027612925    78.918337600000
         C           -0.761063228696     0.017208284676    -0.000014387075    12.000000000000
         C           -1.406478228696     1.251812284676    -0.000051387075    12.000000000000
         C           -1.489571228696    -1.170291715324    -0.000008387075    12.000000000000
         C           -2.798990228696     1.292652284676    -0.000082387075    12.000000000000
         C           -2.881564228696    -1.115367715324    -0.000040387075    12.000000000000
         C           -3.539810228696     0.112649284676    -0.000077387075    12.000000000000
         H           -0.826211228696     2.163188284676    -0.000055387075     1.007825032230
         H           -0.972919228696    -2.119173715324     0.000019612925     1.007825032230
         H           -3.302052228696     2.250005284676    -0.000110387075     1.007825032230
         H           -3.449031228696    -2.035990715324    -0.000035387075     1.007825032230
         H           -4.620097228696     0.149718284676    -0.000101387075     1.007825032230
         O            4.359938771304    -0.112442715324     0.000077612925    15.994914619570
         H            4.786925771304     0.299152284676     0.754163612925     1.007825032230
         H            4.786924771304     0.299153284676    -0.754008387075     1.007825032230

  Charge       = 0
  Multiplicity = 1
  Basis Set: AUG-CC-PVQZ
    Blend: AUG-CC-PVQZ
  Basis Set: (AUG-CC-PVQZ AUX)
    Blend: AUG-CC-PVQZ-JKFIT

    Orbital Energies [Eh]
    ---------------------

    Doubly Occupied:

       1A   -490.011828     2A    -65.152196     3A    -58.507613
       4A    -58.506150     5A    -58.506115     6A    -20.565720
       7A    -11.288806     8A    -11.244206     9A    -11.243938
      10A    -11.242938    11A    -11.242657    12A    -11.239820
      13A     -9.825664    14A     -7.437211    15A     -7.430515
      16A     -7.430443    17A     -3.181077    18A     -3.177463
      19A     -3.177213    20A     -3.168605    21A     -3.168603
      22A     -1.353387    23A     -1.168249    24A     -1.064707
      25A     -1.025603    26A     -0.965301    27A     -0.838873
      28A     -0.810568    29A     -0.715568    30A     -0.704280
      31A     -0.638160    32A     -0.637957    33A     -0.597932
      34A     -0.590454    35A     -0.566231    36A     -0.526311
      37A     -0.513637    38A     -0.508459    39A     -0.481581
      40A     -0.430600    41A     -0.404965    42A     -0.346297
      43A     -0.325373

  @DF-RHF Final Energy: -2878.73960226666486

   => Energetics <=

    Nuclear Repulsion Energy =            530.0611365016204672
    One-Electron Energy =               -5053.6749089584818648
    Two-Electron Energy =                1644.8741701901967645
    Total Energy =                      -2878.7396022666648605

  Dipole Moment: [D]
     X:     0.0992      Y:     1.3611      Z:    -0.0000     Total:     1.3647

  Basis Set: (AUG-CC-PVQZ AUX)
    Blend: AUG-CC-PVQZ-RI
	 Reference Energy          =   -2878.7396022666648605 [Eh]
	 Singles Energy            =      -0.0000000000000000 [Eh]
	 Same-Spin Energy          =      -0.4698529986660936 [Eh]
	 Opposite-Spin Energy      =      -1.4274190459986931 [Eh]
	 Correlation Energy        =      -1.8972720446647866 [Eh]
	 Total Energy              =   -2880.6368743113298478 [Eh]

	 ================> DF-SCS-MP2 Energies <==================
	-----------------------------------------------------------
	 SCS Same-Spin Scale       =       0.3333333333333333 [-]
	 SCS Opposite-Spin Scale   =       1.2000000000000000 [-]
	 SCS Same-Spin Energy      =      -0.1566176662220312 [Eh]
	 SCS Opposite-Spin Energy  =      -1.7129028551984316 [Eh]
	 SCS Correlation Energy    =      -1.8695205214204629 [Eh]
	 SCS Total Energy          =   -2880.6091227880851875 [Eh]
	-----------------------------------------------------------

*** Psi4 exiting successfully. Buy a developer a beer!
