                               Psi4 1.4a2.dev224

  ==> Input File <==

--------------------------------------------------------------------------
#Generated by lconvert.py for cbs job

memory 40 GB

molecule  {
0 1
 Br        2.1195960    -0.1313640     0.0000500
  C        0.2381660    -0.0649990     0.0000080
  C       -0.4072490     1.1696050    -0.0000290
  C       -0.4903420    -1.2524990     0.0000140
  C       -1.7997610     1.2104450    -0.0000600
  C       -1.8823350    -1.1975750    -0.0000180
  C       -2.5405810     0.0304420    -0.0000550
  H        0.1730180     2.0809810    -0.0000330
  H        0.0263100    -2.2013810     0.0000420
  H       -2.3028230     2.1677980    -0.0000880
  H       -2.4498020    -2.1181980    -0.0000130
  H       -3.6208680     0.0675110    -0.0000790
--
0 1
  O        5.5211470    -0.1978140     0.0001020
  H        5.9481340     0.2137810     0.7541890
  H        5.9481330     0.2137820    -0.7539840
units angstrom
no_reorient
symmetry c1
}

set {
scf_type DF
mp2_type DF
e_convergence 7
reference rhf
}

energy('mp2/aug-cc-pv[tq]z', bsse_type='cp')
--------------------------------------------------------------------------

    Molecular point group: c1
  Charge       = 0
  Multiplicity = 1
  Basis Set: AUG-CC-PVTZ
    Blend: AUG-CC-PVTZ
  Basis Set: (AUG-CC-PVTZ AUX)
    Blend: AUG-CC-PVTZ-JKFIT
  @DF-RHF Final Energy:   -76.06038295878542
    Total Energy =                        -76.0603829587854250
  Basis Set: (AUG-CC-PVTZ AUX)
    Blend: AUG-CC-PVTZ-RI
	 Reference Energy          =     -76.0603829587854250 [Eh]
	 Singles Energy            =      -0.0000000000000000 [Eh]
	 Same-Spin Energy          =      -0.0683894425078571 [Eh]
	 Opposite-Spin Energy      =      -0.2153098577134308 [Eh]
	 Correlation Energy        =      -0.2836993002212879 [Eh]
	 Total Energy              =     -76.3440822590067114 [Eh]
	 SCS Total Energy          =     -76.3415512688774953 [Eh]
    Molecular point group: c1
  Basis Set: AUG-CC-PVQZ
    Blend: AUG-CC-PVQZ
  Basis Set: (AUG-CC-PVQZ AUX)
    Blend: AUG-CC-PVQZ-JKFIT
  @DF-RHF Final Energy:   -76.06576643713733
    Total Energy =                        -76.0657664371373414
  Basis Set: (AUG-CC-PVQZ AUX)
  @DF-RHF Final Energy:   -76.06041095437570
    Total Energy =                        -76.0604109543756977
  @DF-RHF Final Energy:   -76.06578309126296
    Total Energy =                        -76.0657830912629578
  @DF-RHF Final Energy: -2802.65808442923753
    Total Energy =                      -2802.6580844292375332
  @DF-RHF Final Energy: -2802.67389493395603
    Total Energy =                      -2802.6738949339560349
  @DF-RHF Final Energy: -2802.65805722651794
    Total Energy =                      -2802.6580572265179399
  @DF-RHF Final Energy: -2802.67388914167532
    Total Energy =                      -2802.6738891416753177
  Multiplicity = 1
  @DF-RHF Final Energy: -2878.71869790278743
    Total Energy =                      -2878.7186979027874258
	 Singles Energy            =      -0.0000000000000000 [Eh]
	 Same-Spin Energy          =      -0.4190898290227961 [Eh]
	 Opposite-Spin Energy      =      -1.2294836361365555 [Eh]
	 Correlation Energy        =      -1.6485734651593518 [Eh]
	 Total Energy              =   -2880.3672713679466142 [Eh]
	 SCS Total Energy          =   -2880.3337748758253838 [Eh]
    Molecular point group: c1

    Geometry (in Angstrom), charge = 0, multiplicity = 1:

       Center              X                  Y                   Z               Mass
    ------------   -----------------  -----------------  -----------------  -----------------
         BR           1.103597406842    -0.048829152682     0.000027400076    78.918337600000
         C           -0.777832593158     0.017535847318    -0.000014599924    12.000000000000
         C           -1.423247593158     1.252139847318    -0.000051599924    12.000000000000
         C           -1.506340593158    -1.169964152682    -0.000008599924    12.000000000000
         C           -2.815759593158     1.292979847318    -0.000082599924    12.000000000000
         C           -2.898333593158    -1.115040152682    -0.000040599924    12.000000000000
         C           -3.556579593158     0.112976847318    -0.000077599924    12.000000000000
         H           -0.842980593158     2.163515847318    -0.000055599924     1.007825032230
         H           -0.989688593158    -2.118846152682     0.000019400076     1.007825032230
         H           -3.318821593158     2.250332847318    -0.000110599924     1.007825032230
         H           -3.465800593158    -2.035663152682    -0.000035599924     1.007825032230
         H           -4.636866593158     0.150045847318    -0.000101599924     1.007825032230
         O            4.505148406842    -0.115279152682     0.000079400076    15.994914619570
         H            4.932135406842     0.296315847318     0.754166400076     1.007825032230
         H            4.932134406842     0.296316847318    -0.754006599924     1.007825032230

  Charge       = 0
  Multiplicity = 1
  Basis Set: AUG-CC-PVQZ
    Blend: AUG-CC-PVQZ
  Basis Set: (AUG-CC-PVQZ AUX)
    Blend: AUG-CC-PVQZ-JKFIT

    Orbital Energies [Eh]
    ---------------------

    Doubly Occupied:

       1A   -490.012936     2A    -65.153313     3A    -58.508726
       4A    -58.507280     5A    -58.507245     6A    -20.565025
       7A    -11.290027     8A    -11.244916     9A    -11.244655
      10A    -11.243590    11A    -11.243315    12A    -11.240453
      13A     -9.826774    14A     -7.438320    15A     -7.431653
      16A     -7.431587    17A     -3.182166    18A     -3.178572
      19A     -3.178331    20A     -3.169757    21A     -3.169755
      22A     -1.352380    23A     -1.169001    24A     -1.065564
      25A     -1.026270    26A     -0.966158    27A     -0.839564
      28A     -0.811251    29A     -0.714663    30A     -0.704905
      31A     -0.638716    32A     -0.638663    33A     -0.598568
      34A     -0.588360    35A     -0.567444    36A     -0.527077
      37A     -0.512004    38A     -0.509119    39A     -0.483687
      40A     -0.431449    41A     -0.406010    42A     -0.346910
      43A     -0.326169

  @DF-RHF Final Energy: -2878.73986624980353

   => Energetics <=

    Nuclear Repulsion Energy =            526.6899437678420099
    One-Electron Energy =               -5046.8749437598962686
    Two-Electron Energy =                1641.4451337422506185
    Total Energy =                      -2878.7398662498035264

  Dipole Moment: [D]
     X:     0.0105      Y:     1.3679      Z:    -0.0000     Total:     1.3679

  Basis Set: (AUG-CC-PVQZ AUX)
    Blend: AUG-CC-PVQZ-RI
	 Reference Energy          =   -2878.7398662498035264 [Eh]
	 Singles Energy            =      -0.0000000000000000 [Eh]
	 Same-Spin Energy          =      -0.4695827352432586 [Eh]
	 Opposite-Spin Energy      =      -1.4270954562704214 [Eh]
	 Correlation Energy        =      -1.8966781915136801 [Eh]
	 Total Energy              =   -2880.6365444413172554 [Eh]

	 ================> DF-SCS-MP2 Energies <==================
	-----------------------------------------------------------
	 SCS Same-Spin Scale       =       0.3333333333333333 [-]
	 SCS Opposite-Spin Scale   =       1.2000000000000000 [-]
	 SCS Same-Spin Energy      =      -0.1565275784144195 [Eh]
	 SCS Opposite-Spin Energy  =      -1.7125145475245056 [Eh]
	 SCS Correlation Energy    =      -1.8690421259389252 [Eh]
	 SCS Total Energy          =   -2880.6089083757424305 [Eh]
	-----------------------------------------------------------

*** Psi4 exiting successfully. Buy a developer a beer!
