                               Psi4 1.4a2.dev224

  ==> Input File <==

--------------------------------------------------------------------------
#Generated by lconvert.py for cbs job

memory 40 GB

molecule  {
0 1
 Br        2.1195960    -0.1313640     0.0000500
  C        0.2381660    -0.0649990     0.0000080
  C       -0.4072490     1.1696050    -0.0000290
  C       -0.4903420    -1.2524990     0.0000140
  C       -1.7997610     1.2104450    -0.0000600
  C       -1.8823350    -1.1975750    -0.0000180
  C       -2.5405810     0.0304420    -0.0000550
  H        0.1730180     2.0809810    -0.0000330
  H        0.0263100    -2.2013810     0.0000420
  H       -2.3028230     2.1677980    -0.0000880
  H       -2.4498020    -2.1181980    -0.0000130
  H       -3.6208680     0.0675110    -0.0000790
--
0 1
  O        4.3872960    -0.1756640     0.0000850
  H        4.8142830     0.2359310     0.7541710
  H        4.8142820     0.2359320    -0.7540010
units angstrom
no_reorient
symmetry c1
}

set {
scf_type DF
mp2_type DF
e_convergence 7
reference rhf
}

energy('mp2/aug-cc-pv[tq]z', bsse_type='cp')
--------------------------------------------------------------------------

    Molecular point group: c1
  Charge       = 0
  Multiplicity = 1
  Basis Set: AUG-CC-PVTZ
    Blend: AUG-CC-PVTZ
  Basis Set: (AUG-CC-PVTZ AUX)
    Blend: AUG-CC-PVTZ-JKFIT
  @DF-RHF Final Energy:   -76.06038298289542
    Total Energy =                        -76.0603829828954190
  Basis Set: (AUG-CC-PVTZ AUX)
    Blend: AUG-CC-PVTZ-RI
	 Reference Energy          =     -76.0603829828954190 [Eh]
	 Singles Energy            =      -0.0000000000000000 [Eh]
	 Same-Spin Energy          =      -0.0683894364334563 [Eh]
	 Opposite-Spin Energy      =      -0.2153098389327116 [Eh]
	 Correlation Energy        =      -0.2836992753661679 [Eh]
	 Total Energy              =     -76.3440822582615937 [Eh]
	 SCS Total Energy          =     -76.3415512684258317 [Eh]
    Molecular point group: c1
  Basis Set: AUG-CC-PVQZ
    Blend: AUG-CC-PVQZ
  Basis Set: (AUG-CC-PVQZ AUX)
    Blend: AUG-CC-PVQZ-JKFIT
  @DF-RHF Final Energy:   -76.06576646329671
    Total Energy =                        -76.0657664632967112
  Basis Set: (AUG-CC-PVQZ AUX)
  @DF-RHF Final Energy:   -76.06049480174804
    Total Energy =                        -76.0604948017480496
  @DF-RHF Final Energy:   -76.06580832034381
    Total Energy =                        -76.0658083203438196
  @DF-RHF Final Energy: -2802.65815309595882
    Total Energy =                      -2802.6581530959592783
  @DF-RHF Final Energy: -2802.67390832412457
    Total Energy =                      -2802.6739083241241133
  @DF-RHF Final Energy: -2802.65805723347330
    Total Energy =                      -2802.6580572334733006
  @DF-RHF Final Energy: -2802.67388914483263
    Total Energy =                      -2802.6738891448321738
  @DF-RHF Final Energy: -2878.68756414143672
    Total Energy =                      -2878.6875641414367237
  @DF-RHF Final Energy: -2878.70886970255970
    Total Energy =                      -2878.7088697025601505
*** Psi4 exiting successfully. Buy a developer a beer!
                               Psi4 1.4a2.dev224
  @DF-RHF Final Energy:   -76.06038298288664
    Total Energy =                        -76.0603829828866367
  @DF-RHF Final Energy:   -76.06576646331355
    Total Energy =                        -76.0657664633135653
  @DF-RHF Final Energy:   -76.06047299644234
    Total Energy =                        -76.0604729964423427
  @DF-RHF Final Energy:   -76.06580028677710
    Total Energy =                        -76.0658002867771046
  @DF-RHF Final Energy: -2802.65812432819121
    Total Energy =                      -2802.6581243281907518
  @DF-RHF Final Energy: -2802.67390324938606
    Total Energy =                      -2802.6739032493860577
  @DF-RHF Final Energy: -2802.65805722129153
    Total Energy =                      -2802.6580572212915285
  @DF-RHF Final Energy: -2802.67388914052117
    Total Energy =                      -2802.6738891405211689
  @DF-RHF Final Energy: -2878.70948849756405
    Total Energy =                      -2878.7094884975640525
  @DF-RHF Final Energy: -2878.73068631588148
    Total Energy =                      -2878.7306863158819397
*** Psi4 exiting successfully. Buy a developer a beer!
                               Psi4 1.4a2.dev224
                               Psi4 1.4a2.dev224
                               Psi4 1.4a2.dev224
                               Psi4 1.4a2.dev224
                               Psi4 1.4a2.dev224
                               Psi4 1.4a2.dev224
                               Psi4 1.4a2.dev224
  @DF-RHF Final Energy:   -76.06038286058062
    Total Energy =                        -76.0603828605806171
  @DF-RHF Final Energy:   -76.06576632849693
    Total Energy =                        -76.0657663284969345
  @DF-RHF Final Energy:   -76.06038737901646
    Total Energy =                        -76.0603873790164613
  @DF-RHF Final Energy:   -76.06576913260342
    Total Energy =                        -76.0657691326034353
  @DF-RHF Final Energy: -2802.65806153131598
    Total Energy =                      -2802.6580615313159797
  @DF-RHF Final Energy: -2802.67388995842111
    Total Energy =                      -2802.6738899584215687
  @DF-RHF Final Energy: -2802.65805700874989
    Total Energy =                      -2802.6580570087498927
  @DF-RHF Final Energy: -2802.67388892240660
    Total Energy =                      -2802.6738889224070590
  @DF-RHF Final Energy: -2878.71834959187254
    Total Energy =                      -2878.7183495918725384
  @DF-RHF Final Energy: -2878.73955851065466
    Total Energy =                      -2878.7395585106546605
*** Psi4 exiting successfully. Buy a developer a beer!
                               Psi4 1.4a2.dev224
  @DF-RHF Final Energy:   -76.06038329680455
    Total Energy =                        -76.0603832968045452
  @DF-RHF Final Energy:   -76.06576679618603
    Total Energy =                        -76.0657667961860398
  @DF-RHF Final Energy:   -76.06038445789760
    Total Energy =                        -76.0603844578975981
  @DF-RHF Final Energy:   -76.06576781419488
    Total Energy =                        -76.0657678141948850
  @DF-RHF Final Energy: -2802.65805892791604
    Total Energy =                      -2802.6580589279155902
  @DF-RHF Final Energy: -2802.67388927795673
    Total Energy =                      -2802.6738892779562775
  @DF-RHF Final Energy: -2802.65805702358512
    Total Energy =                      -2802.6580570235846608
  @DF-RHF Final Energy: -2802.67388891641531
    Total Energy =                      -2802.6738889164153079
  Multiplicity = 1
  @DF-RHF Final Energy: -2878.71831479144475
    Total Energy =                      -2878.7183147914447545
	 Singles Energy            =      -0.0000000000000000 [Eh]
	 Same-Spin Energy          =      -0.4181693624893253 [Eh]
	 Opposite-Spin Energy      =      -1.2281648177739313 [Eh]
	 Correlation Energy        =      -1.6463341802632567 [Eh]
	 Total Energy              =   -2880.3646489717079930 [Eh]
	 SCS Total Energy          =   -2880.3315023602699512 [Eh]
    Molecular point group: c1

    Geometry (in Angstrom), charge = 0, multiplicity = 1:

       Center              X                  Y                   Z               Mass
    ------------   -----------------  -----------------  -----------------  -----------------
         BR           0.818520246898    -0.043256883774     0.000023178445    78.918337600000
         C           -1.062909753102     0.023103116226    -0.000016821555    12.000000000000
         C           -1.708329753102     1.257713116226    -0.000056821555    12.000000000000
         C           -1.791419753102    -1.164396883774    -0.000016821555    12.000000000000
         C           -3.100839753102     1.298543116226    -0.000086821555    12.000000000000
         C           -3.183419753102    -1.109476883774    -0.000046821555    12.000000000000
         C           -3.841659753102     0.118543116226    -0.000086821555    12.000000000000
         H           -1.128059753102     2.169083116226    -0.000056821555     1.007825032230
         H           -1.274769753102    -2.113276883774     0.000013178445     1.007825032230
         H           -3.603899753102     2.255903116226    -0.000116821555     1.007825032230
         H           -3.750879753102    -2.030096883774    -0.000036821555     1.007825032230
         H           -4.921949753102     0.155613116226    -0.000106821555     1.007825032230
         O            6.973710246898    -0.163506883774     0.000123178445    15.994914619570
         H            7.400700246898     0.248083116226     0.754203178445     1.007825032230
         H            7.400690246898     0.248083116226    -0.753966821555     1.007825032230

  Charge       = 0
  Multiplicity = 1
  Basis Set: AUG-CC-PVQZ
    Blend: AUG-CC-PVQZ
  Basis Set: (AUG-CC-PVQZ AUX)
    Blend: AUG-CC-PVQZ-JKFIT

    Orbital Energies [Eh]
    ---------------------

    Doubly Occupied:

       1A   -490.020325     2A    -65.160779     3A    -58.516171
       4A    -58.514785     5A    -58.514757     6A    -20.563238
       7A    -11.296300     8A    -11.249304     9A    -11.249164
      10A    -11.247456    11A    -11.247204    12A    -11.244341
      13A     -9.834268    14A     -7.445811    15A     -7.439244
      16A     -7.439209    17A     -3.189580    18A     -3.186051
      19A     -3.185844    20A     -3.177406    21A     -3.177403
      22A     -1.350143    23A     -1.173543    24A     -1.071134
      25A     -1.030338    26A     -0.972003    27A     -0.843759
      28A     -0.815648    29A     -0.712653    30A     -0.709019
      31A     -0.643028    32A     -0.642632    33A     -0.602503
      34A     -0.584001    35A     -0.573429    36A     -0.531770
      37A     -0.513159    38A     -0.508284    39A     -0.491775
      40A     -0.437489    41A     -0.413429    42A     -0.350697
      43A     -0.331396

  @DF-RHF Final Energy: -2878.73952782187916

   => Energetics <=

    Nuclear Repulsion Energy =            493.9889945368716440
    One-Electron Energy =               -4981.0560872751420902
    Two-Electron Energy =                1608.3275649163915659
    Total Energy =                      -2878.7395278218791645

  Dipole Moment: [D]
     X:    -0.4282      Y:     1.4262      Z:    -0.0000     Total:     1.4891

  Basis Set: (AUG-CC-PVQZ AUX)
    Blend: AUG-CC-PVQZ-RI
	 Reference Energy          =   -2878.7395278218791645 [Eh]
	 Singles Energy            =      -0.0000000000000000 [Eh]
	 Same-Spin Energy          =      -0.4686671432686782 [Eh]
	 Opposite-Spin Energy      =      -1.4259371081915795 [Eh]
	 Correlation Energy        =      -1.8946042514602577 [Eh]
	 Total Energy              =   -2880.6341320733395150 [Eh]

	 ================> DF-SCS-MP2 Energies <==================
	-----------------------------------------------------------
	 SCS Same-Spin Scale       =       0.3333333333333333 [-]
	 SCS Opposite-Spin Scale   =       1.2000000000000000 [-]
	 SCS Same-Spin Energy      =      -0.1562223810895594 [Eh]
	 SCS Opposite-Spin Energy  =      -1.7111245298298954 [Eh]
	 SCS Correlation Energy    =      -1.8673469109194547 [Eh]
	 SCS Total Energy          =   -2880.6068747327985875 [Eh]
	-----------------------------------------------------------

*** Psi4 exiting successfully. Buy a developer a beer!
