                               Psi4 1.4a2.dev224

  ==> Input File <==

--------------------------------------------------------------------------
#Generated by lconvert.py for cbs job

memory 40 GB

molecule  {
0 1
  F        0.9399380     0.5575980     1.4621490
  F       -0.9418800    -0.5814750     1.4577250
  C       -0.0070560    -0.0049890     2.2532210
  H       -0.4811500     0.7759750     2.8402070
  H        0.4579030    -0.7754750     2.8609930
--
0 1
  F        0.5668600    -0.9299420    -1.8794950
  F       -0.5714390     0.9538220    -1.8382420
  C        0.0065380    -0.0000840    -1.0662260
  H        0.7871940     0.4585970    -0.4673970
  H       -0.7607380    -0.4768430    -0.4642590
units angstrom
no_reorient
symmetry c1
}

set {
scf_type DF
mp2_type DF
e_convergence 7
reference rhf
}

energy('mp2/aug-cc-pv[tq]z', bsse_type='cp')
--------------------------------------------------------------------------

    Molecular point group: c1
  Charge       = 0
  Multiplicity = 1
  Basis Set: AUG-CC-PVTZ
    Blend: AUG-CC-PVTZ
  Basis Set: (AUG-CC-PVTZ AUX)
    Blend: AUG-CC-PVTZ-JKFIT
  @DF-RHF Final Energy:  -237.99919379248496
    Total Energy =                       -237.9991937924849594
  Basis Set: (AUG-CC-PVTZ AUX)
    Blend: AUG-CC-PVTZ-RI
	 Reference Energy          =    -237.9991937924849594 [Eh]
	 Singles Energy            =      -0.0000000000000000 [Eh]
	 Same-Spin Energy          =      -0.1825540423777351 [Eh]
	 Opposite-Spin Energy      =      -0.5534620867802413 [Eh]
	 Correlation Energy        =      -0.7360161291579764 [Eh]
	 Total Energy              =    -238.7352099216429338 [Eh]
	 SCS Total Energy          =    -238.7241996440804996 [Eh]
    Molecular point group: c1
  Basis Set: AUG-CC-PVQZ
    Blend: AUG-CC-PVQZ
  Basis Set: (AUG-CC-PVQZ AUX)
    Blend: AUG-CC-PVQZ-JKFIT
  @DF-RHF Final Energy:  -238.01565445793960
    Total Energy =                       -238.0156544579396041
  Basis Set: (AUG-CC-PVQZ AUX)
  @DF-RHF Final Energy:  -237.99935432023773
    Total Energy =                       -237.9993543202377282
  @DF-RHF Final Energy:  -238.01572673106270
    Total Energy =                       -238.0157267310626992
  @DF-RHF Final Energy:  -237.99958772054362
    Total Energy =                       -237.9995877205436159
  @DF-RHF Final Energy:  -238.01582782053038
    Total Energy =                       -238.0158278205303759
  @DF-RHF Final Energy:  -237.99923514321884
    Total Energy =                       -237.9992351432188400
  @DF-RHF Final Energy:  -238.01569473832402
    Total Energy =                       -238.0156947383240151
  Multiplicity = 1
  @DF-RHF Final Energy:  -475.98556779938588
    Total Energy =                       -475.9855677993858762
	 Singles Energy            =      -0.0000000000000000 [Eh]
	 Same-Spin Energy          =      -0.3680902117622719 [Eh]
	 Opposite-Spin Energy      =      -1.1112890973915848 [Eh]
	 Correlation Energy        =      -1.4793793091538565 [Eh]
	 Total Energy              =    -477.4649471085397181 [Eh]
	 SCS Total Energy          =    -477.4418114535098425 [Eh]
    Molecular point group: c1

    Geometry (in Angstrom), charge = 0, multiplicity = 1:

       Center              X                  Y                   Z               Mass
    ------------   -----------------  -----------------  -----------------  -----------------
         F            0.941157616274     0.558354586722     1.424728320772    18.998403162730
         F           -0.940660383726    -0.580718413278     1.420304320772    18.998403162730
         C           -0.005836383726    -0.004232413278     2.215800320772    12.000000000000
         H           -0.479930383726     0.776731586722     2.802786320772     1.007825032230
         H            0.459122616274    -0.774718413278     2.823572320772     1.007825032230
         F            0.568079616274    -0.929185413278    -1.916915679228    18.998403162730
         F           -0.570219383726     0.954578586722    -1.875662679228    18.998403162730
         C            0.007757616274     0.000672586722    -1.103646679228    12.000000000000
         H            0.788413616274     0.459353586722    -0.504817679228     1.007825032230
         H           -0.759518383726    -0.476086413278    -0.501679679228     1.007825032230

  Charge       = 0
  Multiplicity = 1
  Basis Set: AUG-CC-PVQZ
    Blend: AUG-CC-PVQZ
  Basis Set: (AUG-CC-PVQZ AUX)
    Blend: AUG-CC-PVQZ-JKFIT

    Orbital Energies [Eh]
    ---------------------

    Doubly Occupied:

       1A    -26.335066     2A    -26.335016     3A    -26.287527
       4A    -26.287354     5A    -11.427476     6A    -11.370870
       7A     -1.690029     8A     -1.638856     9A     -1.629705
      10A     -1.579331    11A     -0.999775    12A     -0.948213
      13A     -0.804988    14A     -0.799763    15A     -0.794093
      16A     -0.751328    17A     -0.748982    18A     -0.734186
      19A     -0.695322    20A     -0.664063    21A     -0.657544
      22A     -0.646934    23A     -0.612683    24A     -0.586836
      25A     -0.561959    26A     -0.507930

  @DF-RHF Final Energy:  -476.01826919999479

   => Energetics <=

    Nuclear Repulsion Energy =            257.9433435426921051
    One-Electron Energy =               -1175.7315675787742748
    Two-Electron Energy =                 441.7699548360873791
    Total Energy =                       -476.0182691999947906

  Dipole Moment: [D]
     X:     0.0047      Y:    -0.0168      Z:     5.0583     Total:     5.0583

  Basis Set: (AUG-CC-PVQZ AUX)
    Blend: AUG-CC-PVQZ-RI
	 Reference Energy          =    -476.0182691999947906 [Eh]
	 Singles Energy            =      -0.0000000000000000 [Eh]
	 Same-Spin Energy          =      -0.3945812266760523 [Eh]
	 Opposite-Spin Energy      =      -1.2751877530446261 [Eh]
	 Correlation Energy        =      -1.6697689797206783 [Eh]
	 Total Energy              =    -477.6880381797154769 [Eh]

	 ================> DF-SCS-MP2 Energies <==================
	-----------------------------------------------------------
	 SCS Same-Spin Scale       =       0.3333333333333333 [-]
	 SCS Opposite-Spin Scale   =       1.2000000000000000 [-]
	 SCS Same-Spin Energy      =      -0.1315270755586841 [Eh]
	 SCS Opposite-Spin Energy  =      -1.5302253036535511 [Eh]
	 SCS Correlation Energy    =      -1.6617523792122353 [Eh]
	 SCS Total Energy          =    -477.6800215792070503 [Eh]
	-----------------------------------------------------------

*** Psi4 exiting successfully. Buy a developer a beer!
