                               Psi4 1.4a2.dev224

  ==> Input File <==

--------------------------------------------------------------------------
#Generated by lconvert.py for cbs job

memory 20 GB

molecule  {
0 1
  F       0.939940    0.557600    1.462150
  F      -0.941880   -0.581470    1.457720
  C      -0.007060   -0.004990    2.253220
  H      -0.481150    0.775970    2.840210
  H       0.457900   -0.775480    2.860990
--
0 1
  F       0.568430   -0.920820   -3.543110
  F      -0.569870    0.962950   -3.501860
  C       0.008110    0.009040   -2.729840
  H       0.788770    0.467720   -2.131010
  H      -0.759170   -0.467720   -2.127870
units angstrom
no_reorient
symmetry c1
}

set {
scf_type DF
mp2_type DF
e_convergence 7
reference rhf
}

energy('mp2/aug-cc-pv[tq]z', bsse_type='cp')
--------------------------------------------------------------------------

    Molecular point group: c1
  Charge       = 0
  Multiplicity = 1
  Basis Set: AUG-CC-PVTZ
    Blend: AUG-CC-PVTZ
  Basis Set: (AUG-CC-PVTZ AUX)
    Blend: AUG-CC-PVTZ-JKFIT
  @DF-RHF Final Energy:  -237.99919339459120
    Total Energy =                       -237.9991933945912024
  Basis Set: (AUG-CC-PVTZ AUX)
    Blend: AUG-CC-PVTZ-RI
	 Reference Energy          =    -237.9991933945912024 [Eh]
	 Singles Energy            =      -0.0000000000000000 [Eh]
	 Same-Spin Energy          =      -0.1825541001803584 [Eh]
	 Opposite-Spin Energy      =      -0.5534623920162420 [Eh]
	 Correlation Energy        =      -0.7360164921966005 [Eh]
	 Total Energy              =    -238.7352098867877999 [Eh]
	 SCS Total Energy          =    -238.7241996317374912 [Eh]
    Molecular point group: c1
  Basis Set: AUG-CC-PVQZ
    Blend: AUG-CC-PVQZ
  Basis Set: (AUG-CC-PVQZ AUX)
    Blend: AUG-CC-PVQZ-JKFIT
  @DF-RHF Final Energy:  -238.01565404035347
    Total Energy =                       -238.0156540403534677
  Basis Set: (AUG-CC-PVQZ AUX)
  @DF-RHF Final Energy:  -237.99921677179174
    Total Energy =                       -237.9992167717917368
  @DF-RHF Final Energy:  -238.01567140874832
    Total Energy =                       -238.0156714087483181
  @DF-RHF Final Energy:  -237.99927808767731
    Total Energy =                       -237.9992780876773111
  @DF-RHF Final Energy:  -238.01572005006045
    Total Energy =                       -238.0157200500604517
  @DF-RHF Final Energy:  -237.99923509522483
    Total Energy =                       -237.9992350952248330
  @DF-RHF Final Energy:  -238.01569468818974
    Total Energy =                       -238.0156946881897397
  Multiplicity = 1
  @DF-RHF Final Energy:  -476.00007100603312
    Total Energy =                       -476.0000710060331244
	 Singles Energy            =      -0.0000000000000000 [Eh]
	 Same-Spin Energy          =      -0.3652474945079048 [Eh]
	 Opposite-Spin Energy      =      -1.1072039164385670 [Eh]
	 Correlation Energy        =      -1.4724514109464719 [Eh]
	 Total Energy              =    -477.4725224169795865 [Eh]
	 SCS Total Energy          =    -477.4504648705953969 [Eh]
    Molecular point group: c1

    Geometry (in Angstrom), charge = 0, multiplicity = 1:

       Center              X                  Y                   Z               Mass
    ------------   -----------------  -----------------  -----------------  -----------------
         F            0.940374654666     0.553793174640     2.256538041074    18.998403162730
         F           -0.941445345334    -0.585276825360     2.252108041074    18.998403162730
         C           -0.006625345334    -0.008796825360     3.047608041074    12.000000000000
         H           -0.480715345334     0.772163174640     3.634598041074     1.007825032230
         H            0.458334654666    -0.779286825360     3.655378041074     1.007825032230
         F            0.568864654666    -0.924626825360    -2.748721958926    18.998403162730
         F           -0.569435345334     0.959143174640    -2.707471958926    18.998403162730
         C            0.008544654666     0.005233174640    -1.935451958926    12.000000000000
         H            0.789204654666     0.463913174640    -1.336621958926     1.007825032230
         H           -0.758735345334    -0.471526825360    -1.333481958926     1.007825032230

  Charge       = 0
  Multiplicity = 1
  Basis Set: AUG-CC-PVQZ
    Blend: AUG-CC-PVQZ
  Basis Set: (AUG-CC-PVQZ AUX)
    Blend: AUG-CC-PVQZ-JKFIT

    Orbital Energies [Eh]
    ---------------------

    Doubly Occupied:

       1A    -26.320986     2A    -26.320967     3A    -26.302065
       4A    -26.302046     5A    -11.414940     6A    -11.395717
       7A     -1.672161     8A     -1.652887     9A     -1.611971
      10A     -1.592995    11A     -0.982226    12A     -0.963233
      13A     -0.790123    14A     -0.781517    15A     -0.770859
      16A     -0.766764    17A     -0.762512    18A     -0.747651
      19A     -0.678847    20A     -0.660011    21A     -0.644690
      22A     -0.634177    23A     -0.625937    24A     -0.614818
      25A     -0.548400    26A     -0.529120

  @DF-RHF Final Energy:  -476.03295700518726

   => Energetics <=

    Nuclear Repulsion Energy =            225.0637014621922845
    One-Electron Energy =               -1110.0180711480747959
    Two-Electron Energy =                 408.9214126806952549
    Total Energy =                       -476.0329570051872565

  Dipole Moment: [D]
     X:     0.0070      Y:    -0.0147      Z:     4.5464     Total:     4.5464

  Basis Set: (AUG-CC-PVQZ AUX)
    Blend: AUG-CC-PVQZ-RI
	 Reference Energy          =    -476.0329570051872565 [Eh]
	 Singles Energy            =      -0.0000000000000000 [Eh]
	 Same-Spin Energy          =      -0.3917428198668862 [Eh]
	 Opposite-Spin Energy      =      -1.2720831625716689 [Eh]
	 Correlation Energy        =      -1.6638259824385551 [Eh]
	 Total Energy              =    -477.6967829876257952 [Eh]

	 ================> DF-SCS-MP2 Energies <==================
	-----------------------------------------------------------
	 SCS Same-Spin Scale       =       0.3333333333333333 [-]
	 SCS Opposite-Spin Scale   =       1.2000000000000000 [-]
	 SCS Same-Spin Energy      =      -0.1305809399556287 [Eh]
	 SCS Opposite-Spin Energy  =      -1.5264997950860026 [Eh]
	 SCS Correlation Energy    =      -1.6570807350416314 [Eh]
	 SCS Total Energy          =    -477.6900377402288882 [Eh]
	-----------------------------------------------------------

*** Psi4 exiting successfully. Buy a developer a beer!
