                               Psi4 1.4a2.dev224

  ==> Input File <==

--------------------------------------------------------------------------
#Generated by lconvert.py for cbs job

memory 40 GB

molecule  {
0 1
  F        0.9399380     0.5575980     1.4621490
  F       -0.9418800    -0.5814750     1.4577250
  C       -0.0070560    -0.0049890     2.2532210
  H       -0.4811500     0.7759750     2.8402070
  H        0.4579030    -0.7754750     2.8609930
--
0 1
  F        0.5673840    -0.9268990    -2.4342200
  F       -0.5709150     0.9568650    -2.3929670
  C        0.0070620     0.0029590    -1.6209510
  H        0.7877180     0.4616400    -1.0221220
  H       -0.7602140    -0.4738000    -1.0189840
units angstrom
no_reorient
symmetry c1
}

set {
scf_type DF
mp2_type DF
e_convergence 7
reference rhf
}

energy('mp2/aug-cc-pv[tq]z', bsse_type='cp')
--------------------------------------------------------------------------

    Molecular point group: c1
  Charge       = 0
  Multiplicity = 1
  Basis Set: AUG-CC-PVTZ
    Blend: AUG-CC-PVTZ
  Basis Set: (AUG-CC-PVTZ AUX)
    Blend: AUG-CC-PVTZ-JKFIT
  @DF-RHF Final Energy:  -237.99919379236650
    Total Energy =                       -237.9991937923664977
  Basis Set: (AUG-CC-PVTZ AUX)
    Blend: AUG-CC-PVTZ-RI
	 Reference Energy          =    -237.9991937923664977 [Eh]
	 Singles Energy            =      -0.0000000000000000 [Eh]
	 Same-Spin Energy          =      -0.1825540423775517 [Eh]
	 Opposite-Spin Energy      =      -0.5534620867790341 [Eh]
	 Correlation Energy        =      -0.7360161291565858 [Eh]
	 Total Energy              =    -238.7352099215230794 [Eh]
	 SCS Total Energy          =    -238.7241996439605316 [Eh]
    Molecular point group: c1
  Basis Set: AUG-CC-PVQZ
    Blend: AUG-CC-PVQZ
  Basis Set: (AUG-CC-PVQZ AUX)
    Blend: AUG-CC-PVQZ-JKFIT
  @DF-RHF Final Energy:  -238.01565445775964
    Total Energy =                       -238.0156544577596378
  Basis Set: (AUG-CC-PVQZ AUX)
  @DF-RHF Final Energy:  -237.99927826633996
    Total Energy =                       -237.9992782663399566
  @DF-RHF Final Energy:  -238.01570184478101
    Total Energy =                       -238.0157018447810060
  @DF-RHF Final Energy:  -237.99944016929678
    Total Energy =                       -237.9994401692967756
  @DF-RHF Final Energy:  -238.01577649119614
    Total Energy =                       -238.0157764911961351
  @DF-RHF Final Energy:  -237.99923514319931
    Total Energy =                       -237.9992351431993143
  @DF-RHF Final Energy:  -238.01569473828889
    Total Energy =                       -238.0156947382888859
  Multiplicity = 1
  @DF-RHF Final Energy:  -475.99965399605492
    Total Energy =                       -475.9996539960549171
	 Singles Energy            =      -0.0000000000000000 [Eh]
	 Same-Spin Energy          =      -0.3661435598601339 [Eh]
	 Opposite-Spin Energy      =      -1.1086889930002972 [Eh]
	 Correlation Energy        =      -1.4748325528604311 [Eh]
	 Total Energy              =    -477.4744865489153653 [Eh]
	 SCS Total Energy          =    -477.4521286409419645 [Eh]
    Molecular point group: c1

    Geometry (in Angstrom), charge = 0, multiplicity = 1:

       Center              X                  Y                   Z               Mass
    ------------   -----------------  -----------------  -----------------  -----------------
         F            0.940895616274     0.556833086722     1.702090820772    18.998403162730
         F           -0.940922383726    -0.582239913278     1.697666820772    18.998403162730
         C           -0.006098383726    -0.005753913278     2.493162820772    12.000000000000
         H           -0.480192383726     0.775210086722     3.080148820772     1.007825032230
         H            0.458860616274    -0.776239913278     3.100934820772     1.007825032230
         F            0.568341616274    -0.927663913278    -2.194278179228    18.998403162730
         F           -0.569957383726     0.956100086722    -2.153025179228    18.998403162730
         C            0.008019616274     0.002194086722    -1.381009179228    12.000000000000
         H            0.788675616274     0.460875086722    -0.782180179228     1.007825032230
         H           -0.759256383726    -0.474564913278    -0.779042179228     1.007825032230

  Charge       = 0
  Multiplicity = 1
  Basis Set: AUG-CC-PVQZ
    Blend: AUG-CC-PVQZ
  Basis Set: (AUG-CC-PVQZ AUX)
    Blend: AUG-CC-PVQZ-JKFIT

    Orbital Energies [Eh]
    ---------------------

    Doubly Occupied:

       1A    -26.328335     2A    -26.328317     3A    -26.296149
       4A    -26.296112     5A    -11.420990     6A    -11.386820
       7A     -1.680169     8A     -1.647131     9A     -1.619954
      10A     -1.587361    11A     -0.989510    12A     -0.956423
      13A     -0.797131    14A     -0.789353    15A     -0.777065
      16A     -0.763061    17A     -0.756346    18A     -0.742077
      19A     -0.686621    20A     -0.654572    21A     -0.653015
      22A     -0.644347    23A     -0.620455    24A     -0.605480
      25A     -0.554875    26A     -0.521480

  @DF-RHF Final Energy:  -476.03240342045086

   => Energetics <=

    Nuclear Repulsion Energy =            244.1142684835070895
    One-Electron Energy =               -1148.0870438668250699
    Two-Electron Energy =                 427.9403719628671183
    Total Energy =                       -476.0324034204508621

  Dipole Moment: [D]
     X:     0.0063      Y:    -0.0154      Z:     4.7398     Total:     4.7398

  Basis Set: (AUG-CC-PVQZ AUX)
    Blend: AUG-CC-PVQZ-RI
	 Reference Energy          =    -476.0324034204508621 [Eh]
	 Singles Energy            =      -0.0000000000000000 [Eh]
	 Same-Spin Energy          =      -0.3926238920533905 [Eh]
	 Opposite-Spin Energy      =      -1.2730924251239801 [Eh]
	 Correlation Energy        =      -1.6657163171773706 [Eh]
	 Total Energy              =    -477.6981197376282466 [Eh]

	 ================> DF-SCS-MP2 Energies <==================
	-----------------------------------------------------------
	 SCS Same-Spin Scale       =       0.3333333333333333 [-]
	 SCS Opposite-Spin Scale   =       1.2000000000000000 [-]
	 SCS Same-Spin Energy      =      -0.1308746306844635 [Eh]
	 SCS Opposite-Spin Energy  =      -1.5277109101487760 [Eh]
	 SCS Correlation Energy    =      -1.6585855408332395 [Eh]
	 SCS Total Energy          =    -477.6909889612841198 [Eh]
	-----------------------------------------------------------

*** Psi4 exiting successfully. Buy a developer a beer!
