                               Psi4 1.4a2.dev224

  ==> Input File <==

--------------------------------------------------------------------------
#Generated by lconvert.py for cbs job

memory 40 GB

molecule  {
0 1
  F        0.9399380     0.5575980     1.4621490
  F       -0.9418800    -0.5814750     1.4577250
  C       -0.0070560    -0.0049890     2.2532210
  H       -0.4811500     0.7759750     2.8402070
  H        0.4579030    -0.7754750     2.8609930
--
0 1
  F        0.5676460    -0.9253790    -2.7112300
  F       -0.5706530     0.9583850    -2.6699770
  C        0.0073240     0.0044790    -1.8979610
  H        0.7879800     0.4631600    -1.2991320
  H       -0.7599520    -0.4722800    -1.2959940
units angstrom
no_reorient
symmetry c1
}

set {
scf_type DF
mp2_type DF
e_convergence 7
reference rhf
}

energy('mp2/aug-cc-pv[tq]z', bsse_type='cp')
--------------------------------------------------------------------------

    Molecular point group: c1
  Charge       = 0
  Multiplicity = 1
  Basis Set: AUG-CC-PVTZ
    Blend: AUG-CC-PVTZ
  Basis Set: (AUG-CC-PVTZ AUX)
    Blend: AUG-CC-PVTZ-JKFIT
  @DF-RHF Final Energy:  -237.99919379253882
    Total Energy =                       -237.9991937925388186
  Basis Set: (AUG-CC-PVTZ AUX)
    Blend: AUG-CC-PVTZ-RI
	 Reference Energy          =    -237.9991937925388186 [Eh]
	 Singles Energy            =      -0.0000000000000000 [Eh]
	 Same-Spin Energy          =      -0.1825540423775901 [Eh]
	 Opposite-Spin Energy      =      -0.5534620867790742 [Eh]
	 Correlation Energy        =      -0.7360161291566643 [Eh]
	 Total Energy              =    -238.7352099216954855 [Eh]
	 SCS Total Energy          =    -238.7241996441329093 [Eh]
    Molecular point group: c1
  Basis Set: AUG-CC-PVQZ
    Blend: AUG-CC-PVQZ
  Basis Set: (AUG-CC-PVQZ AUX)
    Blend: AUG-CC-PVQZ-JKFIT
  @DF-RHF Final Energy:  -238.01565445787057
    Total Energy =                       -238.0156544578705677
  Basis Set: (AUG-CC-PVQZ AUX)
  @DF-RHF Final Energy:  -237.99925515849645
    Total Energy =                       -237.9992551584964531
  @DF-RHF Final Energy:  -238.01569294627379
    Total Energy =                       -238.0156929462737878
  @DF-RHF Final Energy:  -237.99937103817049
    Total Energy =                       -237.9993710381704943
  @DF-RHF Final Energy:  -238.01575645925519
    Total Energy =                       -238.0157564592551864
  @DF-RHF Final Energy:  -237.99923514316353
    Total Energy =                       -237.9992351431635313
  @DF-RHF Final Energy:  -238.01569473831694
    Total Energy =                       -238.0156947383169381
  Multiplicity = 1
  @DF-RHF Final Energy:  -476.00052025635409
    Total Energy =                       -476.0005202563540934
	 Singles Energy            =      -0.0000000000000000 [Eh]
	 Same-Spin Energy          =      -0.3657302829781600 [Eh]
	 Opposite-Spin Energy      =      -1.1080383295306575 [Eh]
	 Correlation Energy        =      -1.4737686125088176 [Eh]
	 Total Energy              =    -477.4742888688629137 [Eh]
	 SCS Total Energy          =    -477.4520763461169395 [Eh]
    Molecular point group: c1

    Geometry (in Angstrom), charge = 0, multiplicity = 1:

       Center              X                  Y                   Z               Mass
    ------------   -----------------  -----------------  -----------------  -----------------
         F            0.940764616274     0.556073086722     1.840595820772    18.998403162730
         F           -0.941053383726    -0.582999913278     1.836171820772    18.998403162730
         C           -0.006229383726    -0.006513913278     2.631667820772    12.000000000000
         H           -0.480323383726     0.774450086722     3.218653820772     1.007825032230
         H            0.458729616274    -0.776999913278     3.239439820772     1.007825032230
         F            0.568472616274    -0.926903913278    -2.332783179228    18.998403162730
         F           -0.569826383726     0.956860086722    -2.291530179228    18.998403162730
         C            0.008150616274     0.002954086722    -1.519514179228    12.000000000000
         H            0.788806616274     0.461635086722    -0.920685179228     1.007825032230
         H           -0.759125383726    -0.473804913278    -0.917547179228     1.007825032230

  Charge       = 0
  Multiplicity = 1
  Basis Set: AUG-CC-PVQZ
    Blend: AUG-CC-PVQZ
  Basis Set: (AUG-CC-PVQZ AUX)
    Blend: AUG-CC-PVQZ-JKFIT

    Orbital Energies [Eh]
    ---------------------

    Doubly Occupied:

       1A    -26.325980     2A    -26.325960     3A    -26.298328
       4A    -26.298307     5A    -11.418980     6A    -11.390315
       7A     -1.677420     8A     -1.649239     9A     -1.617219
      10A     -1.589418    11A     -0.986919    12A     -0.958852
      13A     -0.794779    14A     -0.786577    15A     -0.773254
      16A     -0.765939    17A     -0.758539    18A     -0.744105
      19A     -0.684011    20A     -0.656549    21A     -0.650081
      22A     -0.640434    23A     -0.622453    24A     -0.609467
      25A     -0.552715    26A     -0.524399

  @DF-RHF Final Energy:  -476.03332476225142

   => Energetics <=

    Nuclear Repulsion Energy =            238.4753598654742461
    One-Electron Energy =               -1136.8168873404404167
    Two-Electron Energy =                 422.3082027127147171
    Total Energy =                       -476.0333247622514250

  Dipole Moment: [D]
     X:     0.0066      Y:    -0.0151      Z:     4.6647     Total:     4.6647

  Basis Set: (AUG-CC-PVQZ AUX)
    Blend: AUG-CC-PVQZ-RI
	 Reference Energy          =    -476.0333247622514250 [Eh]
	 Singles Energy            =      -0.0000000000000000 [Eh]
	 Same-Spin Energy          =      -0.3922160080194914 [Eh]
	 Opposite-Spin Energy      =      -1.2726281042331162 [Eh]
	 Correlation Energy        =      -1.6648441122526076 [Eh]
	 Total Energy              =    -477.6981688745040060 [Eh]

	 ================> DF-SCS-MP2 Energies <==================
	-----------------------------------------------------------
	 SCS Same-Spin Scale       =       0.3333333333333333 [-]
	 SCS Opposite-Spin Scale   =       1.2000000000000000 [-]
	 SCS Same-Spin Energy      =      -0.1307386693398304 [Eh]
	 SCS Opposite-Spin Energy  =      -1.5271537250797393 [Eh]
	 SCS Correlation Energy    =      -1.6578923944195698 [Eh]
	 SCS Total Energy          =    -477.6912171566709731 [Eh]
	-----------------------------------------------------------

*** Psi4 exiting successfully. Buy a developer a beer!
