                               Psi4 1.4a2.dev224

  ==> Input File <==

--------------------------------------------------------------------------
#Generated by lconvert.py for cbs job

memory 40 GB

molecule  {
0 1
  F        0.9399380     0.5575980     1.4621490
  F       -0.9418800    -0.5814750     1.4577250
  C       -0.0070560    -0.0049890     2.2532210
  H       -0.4811500     0.7759750     2.8402070
  H        0.4579030    -0.7754750     2.8609930
--
0 1
  F        0.5679080    -0.9238600    -2.9880900
  F       -0.5703910     0.9599040    -2.9468370
  C        0.0075860     0.0059980    -2.1748210
  H        0.7882420     0.4646790    -1.5759920
  H       -0.7596900    -0.4707610    -1.5728540
units angstrom
no_reorient
symmetry c1
}

set {
scf_type DF
mp2_type DF
e_convergence 7
reference rhf
}

energy('mp2/aug-cc-pv[tq]z', bsse_type='cp')
--------------------------------------------------------------------------

    Molecular point group: c1
  Charge       = 0
  Multiplicity = 1
  Basis Set: AUG-CC-PVTZ
    Blend: AUG-CC-PVTZ
  Basis Set: (AUG-CC-PVTZ AUX)
    Blend: AUG-CC-PVTZ-JKFIT
  @DF-RHF Final Energy:  -237.99919379237119
    Total Energy =                       -237.9991937923711873
  Basis Set: (AUG-CC-PVTZ AUX)
    Blend: AUG-CC-PVTZ-RI
	 Reference Energy          =    -237.9991937923711873 [Eh]
	 Singles Energy            =      -0.0000000000000000 [Eh]
	 Same-Spin Energy          =      -0.1825540423775348 [Eh]
	 Opposite-Spin Energy      =      -0.5534620867792927 [Eh]
	 Correlation Energy        =      -0.7360161291568275 [Eh]
	 Total Energy              =    -238.7352099215280248 [Eh]
	 SCS Total Energy          =    -238.7241996439655054 [Eh]
    Molecular point group: c1
  Basis Set: AUG-CC-PVQZ
    Blend: AUG-CC-PVQZ
  Basis Set: (AUG-CC-PVQZ AUX)
    Blend: AUG-CC-PVQZ-JKFIT
  @DF-RHF Final Energy:  -238.01565445771095
    Total Energy =                       -238.0156544577109514
  Basis Set: (AUG-CC-PVQZ AUX)
  @DF-RHF Final Energy:  -237.99923903445983
    Total Energy =                       -237.9992390344598334
  @DF-RHF Final Energy:  -238.01568487790368
    Total Energy =                       -238.0156848779036807
  @DF-RHF Final Energy:  -237.99931863562432
    Total Energy =                       -237.9993186356243200
  @DF-RHF Final Energy:  -238.01574089847574
    Total Energy =                       -238.0157408984757410
  @DF-RHF Final Energy:  -237.99923514314511
    Total Energy =                       -237.9992351431451141
  @DF-RHF Final Energy:  -238.01569473829272
    Total Energy =                       -238.0156947382927228
  Multiplicity = 1
  @DF-RHF Final Energy:  -476.00053658646254
    Total Energy =                       -476.0005365864625446
	 Singles Energy            =      -0.0000000000000000 [Eh]
	 Same-Spin Energy          =      -0.3654854729835496 [Eh]
	 Opposite-Spin Energy      =      -1.1076209245252102 [Eh]
	 Correlation Energy        =      -1.4731063975087597 [Eh]
	 Total Energy              =    -477.4736429839713310 [Eh]
	 SCS Total Energy          =    -477.4515101868873330 [Eh]
    Molecular point group: c1

    Geometry (in Angstrom), charge = 0, multiplicity = 1:

       Center              X                  Y                   Z               Mass
    ------------   -----------------  -----------------  -----------------  -----------------
         F            0.940633616274     0.555313586722     1.979025820772    18.998403162730
         F           -0.941184383726    -0.583759413278     1.974601820772    18.998403162730
         C           -0.006360383726    -0.007273413278     2.770097820772    12.000000000000
         H           -0.480454383726     0.773690586722     3.357083820772     1.007825032230
         H            0.458598616274    -0.777759413278     3.377869820772     1.007825032230
         F            0.568603616274    -0.926144413278    -2.471213179228    18.998403162730
         F           -0.569695383726     0.957619586722    -2.429960179228    18.998403162730
         C            0.008281616274     0.003713586722    -1.657944179228    12.000000000000
         H            0.788937616274     0.462394586722    -1.059115179228     1.007825032230
         H           -0.758994383726    -0.473045413278    -1.055977179228     1.007825032230

  Charge       = 0
  Multiplicity = 1
  Basis Set: AUG-CC-PVQZ
    Blend: AUG-CC-PVQZ
  Basis Set: (AUG-CC-PVQZ AUX)
    Blend: AUG-CC-PVQZ-JKFIT

    Orbital Energies [Eh]
    ---------------------

    Doubly Occupied:

       1A    -26.324018     2A    -26.323998     3A    -26.299893
       4A    -26.299876     5A    -11.417374     6A    -11.392662
       7A     -1.675295     8A     -1.650762     9A     -1.615100
      10A     -1.590909    11A     -0.984996    12A     -0.960666
      13A     -0.792918    14A     -0.784503    15A     -0.770783
      16A     -0.767760    17A     -0.760180    18A     -0.745580
      19A     -0.681945    20A     -0.657987    21A     -0.647876
      22A     -0.637699    23A     -0.623903    24A     -0.611941
      25A     -0.550996    26A     -0.526409

  @DF-RHF Final Energy:  -476.03338617176701

   => Energetics <=

    Nuclear Repulsion Energy =            233.4916526940538972
    One-Electron Energy =               -1126.8580206593371713
    Two-Electron Energy =                 417.3329817935162964
    Total Energy =                       -476.0333861717670061

  Dipole Moment: [D]
     X:     0.0068      Y:    -0.0149      Z:     4.6131     Total:     4.6131

  Basis Set: (AUG-CC-PVQZ AUX)
    Blend: AUG-CC-PVQZ-RI
	 Reference Energy          =    -476.0333861717670061 [Eh]
	 Singles Energy            =      -0.0000000000000000 [Eh]
	 Same-Spin Energy          =      -0.3919762298978714 [Eh]
	 Opposite-Spin Energy      =      -1.2723545988844061 [Eh]
	 Correlation Energy        =      -1.6643308287822776 [Eh]
	 Total Energy              =    -477.6977170005492894 [Eh]

	 ================> DF-SCS-MP2 Energies <==================
	-----------------------------------------------------------
	 SCS Same-Spin Scale       =       0.3333333333333333 [-]
	 SCS Opposite-Spin Scale   =       1.2000000000000000 [-]
	 SCS Same-Spin Energy      =      -0.1306587432992904 [Eh]
	 SCS Opposite-Spin Energy  =      -1.5268255186612871 [Eh]
	 SCS Correlation Energy    =      -1.6574842619605776 [Eh]
	 SCS Total Energy          =    -477.6908704337275822 [Eh]
	-----------------------------------------------------------

*** Psi4 exiting successfully. Buy a developer a beer!
