                               Psi4 1.4a2.dev224

  ==> Input File <==

--------------------------------------------------------------------------
#Generated by lconvert.py for cbs job

memory 40 GB

molecule  {
0 1
  F        0.9399380     0.5575980     1.4621490
  F       -0.9418800    -0.5814750     1.4577250
  C       -0.0070560    -0.0049890     2.2532210
  H       -0.4811500     0.7759750     2.8402070
  H        0.4579030    -0.7754750     2.8609930
--
0 1
  F        0.5677770    -0.9246190    -2.8496760
  F       -0.5705220     0.9591450    -2.8084230
  C        0.0074550     0.0052390    -2.0364070
  H        0.7881110     0.4639200    -1.4375780
  H       -0.7598210    -0.4715200    -1.4344400
units angstrom
no_reorient
symmetry c1
}

set {
scf_type DF
mp2_type DF
e_convergence 7
reference rhf
}

energy('mp2/aug-cc-pv[tq]z', bsse_type='cp')
--------------------------------------------------------------------------

    Molecular point group: c1
  Charge       = 0
  Multiplicity = 1
  Basis Set: AUG-CC-PVTZ
    Blend: AUG-CC-PVTZ
  Basis Set: (AUG-CC-PVTZ AUX)
    Blend: AUG-CC-PVTZ-JKFIT
  @DF-RHF Final Energy:  -237.99919379240956
    Total Energy =                       -237.9991937924095566
  Basis Set: (AUG-CC-PVTZ AUX)
    Blend: AUG-CC-PVTZ-RI
	 Reference Energy          =    -237.9991937924095566 [Eh]
	 Singles Energy            =      -0.0000000000000000 [Eh]
	 Same-Spin Energy          =      -0.1825540423777042 [Eh]
	 Opposite-Spin Energy      =      -0.5534620867801979 [Eh]
	 Correlation Energy        =      -0.7360161291579022 [Eh]
	 Total Energy              =    -238.7352099215674457 [Eh]
	 SCS Total Energy          =    -238.7241996440050400 [Eh]
    Molecular point group: c1
  Basis Set: AUG-CC-PVQZ
    Blend: AUG-CC-PVQZ
  Basis Set: (AUG-CC-PVQZ AUX)
    Blend: AUG-CC-PVQZ-JKFIT
  @DF-RHF Final Energy:  -238.01565445784888
    Total Energy =                       -238.0156544578488820
  Basis Set: (AUG-CC-PVQZ AUX)
  @DF-RHF Final Energy:  -237.99924642160775
    Total Energy =                       -237.9992464216077508
  @DF-RHF Final Energy:  -238.01568883787280
    Total Energy =                       -238.0156888378728013
  @DF-RHF Final Energy:  -237.99934172758174
    Total Energy =                       -237.9993417275817364
  @DF-RHF Final Energy:  -238.01574867775136
    Total Energy =                       -238.0157486777513611
  @DF-RHF Final Energy:  -237.99923514311257
    Total Energy =                       -237.9992351431125712
  @DF-RHF Final Energy:  -238.01569473826902
    Total Energy =                       -238.0156947382690191
  Multiplicity = 1
  @DF-RHF Final Energy:  -476.00058092429219
    Total Energy =                       -476.0005809242921941
	 Singles Energy            =      -0.0000000000000000 [Eh]
	 Same-Spin Energy          =      -0.3655920980385729 [Eh]
	 Opposite-Spin Energy      =      -1.1078054843113523 [Eh]
	 Correlation Energy        =      -1.4733975823499252 [Eh]
	 Total Energy              =    -477.4739785066421405 [Eh]
	 SCS Total Energy          =    -477.4518115381453640 [Eh]
    Molecular point group: c1

    Geometry (in Angstrom), charge = 0, multiplicity = 1:

       Center              X                  Y                   Z               Mass
    ------------   -----------------  -----------------  -----------------  -----------------
         F            0.940699116274     0.555693086722     1.909818820772    18.998403162730
         F           -0.941118883726    -0.583379913278     1.905394820772    18.998403162730
         C           -0.006294883726    -0.006893913278     2.700890820772    12.000000000000
         H           -0.480388883726     0.774070086722     3.287876820772     1.007825032230
         H            0.458664116274    -0.777379913278     3.308662820772     1.007825032230
         F            0.568538116274    -0.926523913278    -2.402006179228    18.998403162730
         F           -0.569760883726     0.957240086722    -2.360753179228    18.998403162730
         C            0.008216116274     0.003334086722    -1.588737179228    12.000000000000
         H            0.788872116274     0.462015086722    -0.989908179228     1.007825032230
         H           -0.759059883726    -0.473424913278    -0.986770179228     1.007825032230

  Charge       = 0
  Multiplicity = 1
  Basis Set: AUG-CC-PVQZ
    Blend: AUG-CC-PVQZ
  Basis Set: (AUG-CC-PVQZ AUX)
    Blend: AUG-CC-PVQZ-JKFIT

    Orbital Energies [Eh]
    ---------------------

    Doubly Occupied:

       1A    -26.324955     2A    -26.324935     3A    -26.299168
       4A    -26.299150     5A    -11.418136     6A    -11.391591
       7A     -1.676296     8A     -1.650055     9A     -1.616099
      10A     -1.590217    11A     -0.985895    12A     -0.959820
      13A     -0.793799    14A     -0.785473    15A     -0.771876
      16A     -0.766969    17A     -0.759414    18A     -0.744894
      19A     -0.682923    20A     -0.657319    21A     -0.648909
      22A     -0.638950    23A     -0.623229    24A     -0.610839
      25A     -0.551811    26A     -0.525485

  @DF-RHF Final Energy:  -476.03341100914753

   => Energetics <=

    Nuclear Repulsion Energy =            235.9088471652234205
    One-Electron Energy =               -1131.6881015635613039
    Two-Electron Energy =                 419.7458433891903837
    Total Energy =                       -476.0334110091475281

  Dipole Moment: [D]
     X:     0.0067      Y:    -0.0150      Z:     4.6367     Total:     4.6367

  Basis Set: (AUG-CC-PVQZ AUX)
    Blend: AUG-CC-PVQZ-RI
	 Reference Energy          =    -476.0334110091475281 [Eh]
	 Singles Energy            =      -0.0000000000000000 [Eh]
	 Same-Spin Energy          =      -0.3920806356455300 [Eh]
	 Opposite-Spin Energy      =      -1.2724737931491572 [Eh]
	 Correlation Energy        =      -1.6645544287946872 [Eh]
	 Total Energy              =    -477.6979654379422300 [Eh]

	 ================> DF-SCS-MP2 Energies <==================
	-----------------------------------------------------------
	 SCS Same-Spin Scale       =       0.3333333333333333 [-]
	 SCS Opposite-Spin Scale   =       1.2000000000000000 [-]
	 SCS Same-Spin Energy      =      -0.1306935452151766 [Eh]
	 SCS Opposite-Spin Energy  =      -1.5269685517789886 [Eh]
	 SCS Correlation Energy    =      -1.6576620969941653 [Eh]
	 SCS Total Energy          =    -477.6910731061416868 [Eh]
	-----------------------------------------------------------

*** Psi4 exiting successfully. Buy a developer a beer!
