                               Psi4 1.4a2.dev224

  ==> Input File <==

--------------------------------------------------------------------------
#Generated by lconvert.py for cbs job

memory 40 GB

molecule  {
0 1
  F        0.9399380     0.5575980     1.4621490
  F       -0.9418800    -0.5814750     1.4577250
  C       -0.0070560    -0.0049890     2.2532210
  H       -0.4811500     0.7759750     2.8402070
  H        0.4579030    -0.7754750     2.8609930
--
0 1
  F        0.5675150    -0.9261390    -2.5727470
  F       -0.5707840     0.9576250    -2.5314940
  C        0.0071930     0.0037190    -1.7594780
  H        0.7878490     0.4624000    -1.1606490
  H       -0.7600830    -0.4730400    -1.1575110
units angstrom
no_reorient
symmetry c1
}

set {
scf_type DF
mp2_type DF
e_convergence 7
reference rhf
}

energy('mp2/aug-cc-pv[tq]z', bsse_type='cp')
--------------------------------------------------------------------------

    Molecular point group: c1
  Charge       = 0
  Multiplicity = 1
  Basis Set: AUG-CC-PVTZ
    Blend: AUG-CC-PVTZ
  Basis Set: (AUG-CC-PVTZ AUX)
    Blend: AUG-CC-PVTZ-JKFIT
  @DF-RHF Final Energy:  -237.99919379241203
    Total Energy =                       -237.9991937924120293
  Basis Set: (AUG-CC-PVTZ AUX)
    Blend: AUG-CC-PVTZ-RI
	 Reference Energy          =    -237.9991937924120293 [Eh]
	 Singles Energy            =      -0.0000000000000000 [Eh]
	 Same-Spin Energy          =      -0.1825540423775040 [Eh]
	 Opposite-Spin Energy      =      -0.5534620867793143 [Eh]
	 Correlation Energy        =      -0.7360161291568184 [Eh]
	 Total Energy              =    -238.7352099215688384 [Eh]
	 SCS Total Energy          =    -238.7241996440063758 [Eh]
    Molecular point group: c1
  Basis Set: AUG-CC-PVQZ
    Blend: AUG-CC-PVQZ
  Basis Set: (AUG-CC-PVQZ AUX)
    Blend: AUG-CC-PVQZ-JKFIT
  @DF-RHF Final Energy:  -238.01565445765235
    Total Energy =                       -238.0156544576523459
  Basis Set: (AUG-CC-PVQZ AUX)
  @DF-RHF Final Energy:  -237.99926564836599
    Total Energy =                       -237.9992656483659914
  @DF-RHF Final Energy:  -238.01569724334445
    Total Energy =                       -238.0156972433444480
  @DF-RHF Final Energy:  -237.99940444798517
    Total Energy =                       -237.9994044479851709
  @DF-RHF Final Energy:  -238.01576542927808
    Total Energy =                       -238.0157654292780762
  @DF-RHF Final Energy:  -237.99923514314196
    Total Energy =                       -237.9992351431419593
  @DF-RHF Final Energy:  -238.01569473844683
    Total Energy =                       -238.0156947384468253
  Multiplicity = 1
  @DF-RHF Final Energy:  -476.00026243671408
    Total Energy =                       -476.0002624367140811
	 Singles Energy            =      -0.0000000000000000 [Eh]
	 Same-Spin Energy          =      -0.3659098363268835 [Eh]
	 Opposite-Spin Energy      =      -1.1083288136172293 [Eh]
	 Correlation Energy        =      -1.4742386499441129 [Eh]
	 Total Energy              =    -477.4745010866582220 [Eh]
	 SCS Total Energy          =    -477.4522269584970786 [Eh]
    Molecular point group: c1

    Geometry (in Angstrom), charge = 0, multiplicity = 1:

       Center              X                  Y                   Z               Mass
    ------------   -----------------  -----------------  -----------------  -----------------
         F            0.940830116274     0.556453086722     1.771354320772    18.998403162730
         F           -0.940987883726    -0.582619913278     1.766930320772    18.998403162730
         C           -0.006163883726    -0.006133913278     2.562426320772    12.000000000000
         H           -0.480257883726     0.774830086722     3.149412320772     1.007825032230
         H            0.458795116274    -0.776619913278     3.170198320772     1.007825032230
         F            0.568407116274    -0.927283913278    -2.263541679228    18.998403162730
         F           -0.569891883726     0.956480086722    -2.222288679228    18.998403162730
         C            0.008085116274     0.002574086722    -1.450272679228    12.000000000000
         H            0.788741116274     0.461255086722    -0.851443679228     1.007825032230
         H           -0.759190883726    -0.474184913278    -0.848305679228     1.007825032230

  Charge       = 0
  Multiplicity = 1
  Basis Set: AUG-CC-PVQZ
    Blend: AUG-CC-PVQZ
  Basis Set: (AUG-CC-PVQZ AUX)
    Blend: AUG-CC-PVQZ-JKFIT

    Orbital Energies [Eh]
    ---------------------

    Doubly Occupied:

       1A    -26.327102     2A    -26.327083     3A    -26.297338
       4A    -26.297312     5A    -11.419924     6A    -11.388760
       7A     -1.678696     8A     -1.648280     9A     -1.618490
      10A     -1.588481    11A     -0.988105    12A     -0.957733
      13A     -0.795880    14A     -0.787852    15A     -0.774951
      16A     -0.764656    17A     -0.757529    18A     -0.743181
      19A     -0.685233    20A     -0.655647    21A     -0.651431
      22A     -0.642210    23A     -0.621543    24A     -0.607726
      25A     -0.553727    26A     -0.523093

  @DF-RHF Final Energy:  -476.03303890935865

   => Energetics <=

    Nuclear Repulsion Energy =            241.2052136723869182
    One-Electron Energy =               -1142.2725804267126932
    Two-Electron Energy =                 425.0343278449671516
    Total Energy =                       -476.0330389093586518

  Dipole Moment: [D]
     X:     0.0065      Y:    -0.0152      Z:     4.6984     Total:     4.6984

  Basis Set: (AUG-CC-PVQZ AUX)
    Blend: AUG-CC-PVQZ-RI
	 Reference Energy          =    -476.0330389093586518 [Eh]
	 Singles Energy            =      -0.0000000000000000 [Eh]
	 Same-Spin Energy          =      -0.3923925575588324 [Eh]
	 Opposite-Spin Energy      =      -1.2728295898394764 [Eh]
	 Correlation Energy        =      -1.6652221473983086 [Eh]
	 Total Energy              =    -477.6982610567569623 [Eh]

	 ================> DF-SCS-MP2 Energies <==================
	-----------------------------------------------------------
	 SCS Same-Spin Scale       =       0.3333333333333333 [-]
	 SCS Opposite-Spin Scale   =       1.2000000000000000 [-]
	 SCS Same-Spin Energy      =      -0.1307975191862775 [Eh]
	 SCS Opposite-Spin Energy  =      -1.5273955078073715 [Eh]
	 SCS Correlation Energy    =      -1.6581930269936489 [Eh]
	 SCS Total Energy          =    -477.6912319363523238 [Eh]
	-----------------------------------------------------------

*** Psi4 exiting successfully. Buy a developer a beer!
