                               Psi4 1.4a2.dev224

  ==> Input File <==

--------------------------------------------------------------------------
#Generated by lconvert.py for cbs job

memory 40 GB

molecule  {
0 1
  F        0.9399380     0.5575980     1.4621490
  F       -0.9418800    -0.5814750     1.4577250
  C       -0.0070560    -0.0049890     2.2532210
  H       -0.4811500     0.7759750     2.8402070
  H        0.4579030    -0.7754750     2.8609930
--
0 1
  F        0.5671220    -0.9284200    -2.1570050
  F       -0.5711770     0.9553440    -2.1157520
  C        0.0068000     0.0014380    -1.3437360
  H        0.7874560     0.4601190    -0.7449070
  H       -0.7604760    -0.4753210    -0.7417690
units angstrom
no_reorient
symmetry c1
}

set {
scf_type DF
mp2_type DF
e_convergence 7
reference rhf
}

energy('mp2/aug-cc-pv[tq]z', bsse_type='cp')
--------------------------------------------------------------------------

    Molecular point group: c1
  Charge       = 0
  Multiplicity = 1
  Basis Set: AUG-CC-PVTZ
    Blend: AUG-CC-PVTZ
  Basis Set: (AUG-CC-PVTZ AUX)
    Blend: AUG-CC-PVTZ-JKFIT
  @DF-RHF Final Energy:  -237.99919379234242
    Total Energy =                       -237.9991937923424246
  Basis Set: (AUG-CC-PVTZ AUX)
    Blend: AUG-CC-PVTZ-RI
	 Reference Energy          =    -237.9991937923424246 [Eh]
	 Singles Energy            =      -0.0000000000000000 [Eh]
	 Same-Spin Energy          =      -0.1825540423774995 [Eh]
	 Opposite-Spin Energy      =      -0.5534620867787098 [Eh]
	 Correlation Energy        =      -0.7360161291562093 [Eh]
	 Total Energy              =    -238.7352099214986367 [Eh]
	 SCS Total Energy          =    -238.7241996439360321 [Eh]
    Molecular point group: c1
  Basis Set: AUG-CC-PVQZ
    Blend: AUG-CC-PVQZ
  Basis Set: (AUG-CC-PVQZ AUX)
    Blend: AUG-CC-PVQZ-JKFIT
  @DF-RHF Final Energy:  -238.01565445781569
    Total Energy =                       -238.0156544578156854
  Basis Set: (AUG-CC-PVQZ AUX)
  @DF-RHF Final Energy:  -237.99931094470162
    Total Energy =                       -237.9993109447016195
  @DF-RHF Final Energy:  -238.01571267222613
    Total Energy =                       -238.0157126722261296
  @DF-RHF Final Energy:  -237.99951676841471
    Total Energy =                       -237.9995167684147077
  @DF-RHF Final Energy:  -238.01580168736103
    Total Energy =                       -238.0158016873610336
  @DF-RHF Final Energy:  -237.99923514306892
    Total Energy =                       -237.9992351430689155
  @DF-RHF Final Energy:  -238.01569473826231
    Total Energy =                       -238.0156947382623116
  Multiplicity = 1
  @DF-RHF Final Energy:  -475.99621038914728
    Total Energy =                       -475.9962103891472793
	 Singles Energy            =      -0.0000000000000000 [Eh]
	 Same-Spin Energy          =      -0.3668494240300950 [Eh]
	 Opposite-Spin Energy      =      -1.1096914114799321 [Eh]
	 Correlation Energy        =      -1.4765408355100271 [Eh]
	 Total Energy              =    -477.4727512246573156 [Eh]
	 SCS Total Energy          =    -477.4501232242665765 [Eh]
    Molecular point group: c1

    Geometry (in Angstrom), charge = 0, multiplicity = 1:

       Center              X                  Y                   Z               Mass
    ------------   -----------------  -----------------  -----------------  -----------------
         F            0.941026616274     0.557593586722     1.563483320772    18.998403162730
         F           -0.940791383726    -0.581479413278     1.559059320772    18.998403162730
         C           -0.005967383726    -0.004993413278     2.354555320772    12.000000000000
         H           -0.480061383726     0.775970586722     2.941541320772     1.007825032230
         H            0.458991616274    -0.775479413278     2.962327320772     1.007825032230
         F            0.568210616274    -0.928424413278    -2.055670679228    18.998403162730
         F           -0.570088383726     0.955339586722    -2.014417679228    18.998403162730
         C            0.007888616274     0.001433586722    -1.242401679228    12.000000000000
         H            0.788544616274     0.460114586722    -0.643572679228     1.007825032230
         H           -0.759387383726    -0.475325413278    -0.640434679228     1.007825032230

  Charge       = 0
  Multiplicity = 1
  Basis Set: AUG-CC-PVQZ
    Blend: AUG-CC-PVQZ
  Basis Set: (AUG-CC-PVQZ AUX)
    Blend: AUG-CC-PVQZ-JKFIT

    Orbital Energies [Eh]
    ---------------------

    Doubly Occupied:

       1A    -26.331234     2A    -26.331214     3A    -26.292869
       4A    -26.292791     5A    -11.423642     6A    -11.381098
       7A     -1.684004     8A     -1.643977     9A     -1.623757
      10A     -1.584292    11A     -0.993355    12A     -0.953028
      13A     -0.800292    14A     -0.793385    15A     -0.783229
      16A     -0.758543    17A     -0.753285    18A     -0.739060
      19A     -0.690120    20A     -0.657268    21A     -0.651640
      22A     -0.649970    23A     -0.617480    24A     -0.598700
      25A     -0.557749    26A     -0.516720

  @DF-RHF Final Energy:  -476.02891470728059

   => Energetics <=

    Nuclear Repulsion Energy =            250.5443796960180123
    One-Electron Energy =               -1160.9411870231242574
    Two-Electron Energy =                 434.3678926198256249
    Total Energy =                       -476.0289147072805918

  Dipole Moment: [D]
     X:     0.0058      Y:    -0.0159      Z:     4.8577     Total:     4.8578

  Basis Set: (AUG-CC-PVQZ AUX)
    Blend: AUG-CC-PVQZ-RI
	 Reference Energy          =    -476.0289147072805918 [Eh]
	 Singles Energy            =      -0.0000000000000000 [Eh]
	 Same-Spin Energy          =      -0.3933297990255932 [Eh]
	 Opposite-Spin Energy      =      -1.2738702163209115 [Eh]
	 Correlation Energy        =      -1.6672000153465047 [Eh]
	 Total Energy              =    -477.6961147226271009 [Eh]

	 ================> DF-SCS-MP2 Energies <==================
	-----------------------------------------------------------
	 SCS Same-Spin Scale       =       0.3333333333333333 [-]
	 SCS Opposite-Spin Scale   =       1.2000000000000000 [-]
	 SCS Same-Spin Energy      =      -0.1311099330085311 [Eh]
	 SCS Opposite-Spin Energy  =      -1.5286442595850938 [Eh]
	 SCS Correlation Energy    =      -1.6597541925936248 [Eh]
	 SCS Total Energy          =    -477.6886688998742443 [Eh]
	-----------------------------------------------------------

*** Psi4 exiting successfully. Buy a developer a beer!
