                               Psi4 1.4a2.dev224

  ==> Input File <==

--------------------------------------------------------------------------
#Generated by lconvert.py for cbs job

memory 20 GB

molecule  {
0 1
  F       0.939940    0.557600    1.462150
  F      -0.941880   -0.581470    1.457720
  C      -0.007060   -0.004990    2.253220
  H      -0.481150    0.775970    2.840210
  H       0.457900   -0.775480    2.860990
--
0 1
  F       0.569220   -0.916250   -4.375640
  F      -0.569080    0.967510   -4.334390
  C       0.008900    0.013610   -3.562370
  H       0.789550    0.472290   -2.963540
  H      -0.758380   -0.463150   -2.960400
units angstrom
no_reorient
symmetry c1
}

set {
scf_type DF
mp2_type DF
e_convergence 7
reference rhf
}

energy('mp2/aug-cc-pv[tq]z', bsse_type='cp')
--------------------------------------------------------------------------

    Molecular point group: c1
  Charge       = 0
  Multiplicity = 1
  Basis Set: AUG-CC-PVTZ
    Blend: AUG-CC-PVTZ
  Basis Set: (AUG-CC-PVTZ AUX)
    Blend: AUG-CC-PVTZ-JKFIT
  @DF-RHF Final Energy:  -237.99919377284186
    Total Energy =                       -237.9991937728418634
  Basis Set: (AUG-CC-PVTZ AUX)
    Blend: AUG-CC-PVTZ-RI
	 Reference Energy          =    -237.9991937728418634 [Eh]
	 Singles Energy            =      -0.0000000000000000 [Eh]
	 Same-Spin Energy          =      -0.1825540408883317 [Eh]
	 Opposite-Spin Energy      =      -0.5534620973277566 [Eh]
	 Correlation Energy        =      -0.7360161382160884 [Eh]
	 Total Energy              =    -238.7352099110579502 [Eh]
	 SCS Total Energy          =    -238.7241996365979446 [Eh]
    Molecular point group: c1
  Basis Set: AUG-CC-PVQZ
    Blend: AUG-CC-PVQZ
  Basis Set: (AUG-CC-PVQZ AUX)
    Blend: AUG-CC-PVQZ-JKFIT
  @DF-RHF Final Energy:  -238.01565443634664
    Total Energy =                       -238.0156544363466367
  Basis Set: (AUG-CC-PVQZ AUX)
  @DF-RHF Final Energy:  -237.99920029223946
    Total Energy =                       -237.9992002922394647
  @DF-RHF Final Energy:  -238.01566049495617
    Total Energy =                       -238.0156604949561654
  @DF-RHF Final Energy:  -237.99924608102157
    Total Energy =                       -237.9992460810215675
  @DF-RHF Final Energy:  -238.01570518254530
    Total Energy =                       -238.0157051825453038
  @DF-RHF Final Energy:  -237.99923509537533
    Total Energy =                       -237.9992350953753260
  @DF-RHF Final Energy:  -238.01569468829376
    Total Energy =                       -238.0156946882937632
  Multiplicity = 1
  @DF-RHF Final Energy:  -475.99947317628732
    Total Energy =                       -475.9994731762873243
	 Singles Energy            =      -0.0000000000000000 [Eh]
	 Same-Spin Energy          =      -0.3651316937334100 [Eh]
	 Opposite-Spin Energy      =      -1.1069662005196883 [Eh]
	 Correlation Energy        =      -1.4720978942530982 [Eh]
	 Total Energy              =    -477.4715710705404490 [Eh]
	 SCS Total Energy          =    -477.4495431814887638 [Eh]
    Molecular point group: c1

    Geometry (in Angstrom), charge = 0, multiplicity = 1:

       Center              X                  Y                   Z               Mass
    ------------   -----------------  -----------------  -----------------  -----------------
         F            0.939979751549     0.551510000972     2.672803041074    18.998403162730
         F           -0.941840248451    -0.587559999028     2.668373041074    18.998403162730
         C           -0.007020248451    -0.011079999028     3.463873041074    12.000000000000
         H           -0.481110248451     0.769880000972     4.050863041074     1.007825032230
         H            0.457939751549    -0.781569999028     4.071643041074     1.007825032230
         F            0.569259751549    -0.922339999028    -3.164986958926    18.998403162730
         F           -0.569040248451     0.961420000972    -3.123736958926    18.998403162730
         C            0.008939751549     0.007520000972    -2.351716958926    12.000000000000
         H            0.789589751549     0.466200000972    -1.752886958926     1.007825032230
         H           -0.758340248451    -0.469239999028    -1.749746958926     1.007825032230

  Charge       = 0
  Multiplicity = 1
  Basis Set: AUG-CC-PVQZ
    Blend: AUG-CC-PVQZ
  Basis Set: (AUG-CC-PVQZ AUX)
    Blend: AUG-CC-PVQZ-JKFIT

    Orbital Energies [Eh]
    ---------------------

    Doubly Occupied:

       1A    -26.317971     2A    -26.317954     3A    -26.304136
       4A    -26.304116     5A    -11.412509     6A    -11.398458
       7A     -1.669113     8A     -1.654931     9A     -1.608923
      10A     -1.595006    11A     -0.979538    12A     -0.965675
      13A     -0.787358    14A     -0.778636    15A     -0.773075
      16A     -0.764753    17A     -0.763687    18A     -0.749654
      19A     -0.675803    20A     -0.661970    21A     -0.641626
      22A     -0.631101    23A     -0.627902    24A     -0.617191
      25A     -0.545815    26A     -0.531635

  @DF-RHF Final Energy:  -476.03238786261096

   => Energetics <=

    Nuclear Repulsion Energy =            215.2900656228151774
    One-Electron Energy =               -1090.4878282171123374
    Two-Electron Energy =                 399.1653747316861995
    Total Energy =                       -476.0323878626109604

  Dipole Moment: [D]
     X:     0.0072      Y:    -0.0145      Z:     4.4901     Total:     4.4902

  Basis Set: (AUG-CC-PVQZ AUX)
    Blend: AUG-CC-PVQZ-RI
	 Reference Energy          =    -476.0323878626109604 [Eh]
	 Singles Energy            =      -0.0000000000000000 [Eh]
	 Same-Spin Energy          =      -0.3916323032262722 [Eh]
	 Opposite-Spin Energy      =      -1.2719576489525983 [Eh]
	 Correlation Energy        =      -1.6635899521788704 [Eh]
	 Total Energy              =    -477.6959778147898419 [Eh]

	 ================> DF-SCS-MP2 Energies <==================
	-----------------------------------------------------------
	 SCS Same-Spin Scale       =       0.3333333333333333 [-]
	 SCS Opposite-Spin Scale   =       1.2000000000000000 [-]
	 SCS Same-Spin Energy      =      -0.1305441010754241 [Eh]
	 SCS Opposite-Spin Energy  =      -1.5263491787431180 [Eh]
	 SCS Correlation Energy    =      -1.6568932798185421 [Eh]
	 SCS Total Energy          =    -477.6892811424294791 [Eh]
	-----------------------------------------------------------

*** Psi4 exiting successfully. Buy a developer a beer!
