                               Psi4 1.4a2.dev224

  ==> Input File <==

--------------------------------------------------------------------------
#Generated by lconvert.py for cbs job

memory 20 GB

molecule  {
0 1
  F       0.939940    0.557600    1.462150
  F      -0.941880   -0.581470    1.457720
  C      -0.007060   -0.004990    2.253220
  H      -0.481150    0.775970    2.840210
  H       0.457900   -0.775480    2.860990
--
0 1
  F       0.570000   -0.911680   -5.208170
  F      -0.568290    0.972080   -5.166920
  C       0.009680    0.018170   -4.394900
  H       0.790340    0.476850   -3.796070
  H      -0.757590   -0.458590   -3.792930
units angstrom
no_reorient
symmetry c1
}

set {
scf_type DF
mp2_type DF
e_convergence 7
reference rhf
}

energy('mp2/aug-cc-pv[tq]z', bsse_type='cp')
--------------------------------------------------------------------------

    Molecular point group: c1
  Charge       = 0
  Multiplicity = 1
  Basis Set: AUG-CC-PVTZ
    Blend: AUG-CC-PVTZ
  Basis Set: (AUG-CC-PVTZ AUX)
    Blend: AUG-CC-PVTZ-JKFIT
  @DF-RHF Final Energy:  -237.99919395195644
    Total Energy =                       -237.9991939519564426
  Basis Set: (AUG-CC-PVTZ AUX)
    Blend: AUG-CC-PVTZ-RI
	 Reference Energy          =    -237.9991939519564426 [Eh]
	 Singles Energy            =      -0.0000000000000000 [Eh]
	 Same-Spin Energy          =      -0.1825540129892606 [Eh]
	 Opposite-Spin Energy      =      -0.5534619576264266 [Eh]
	 Correlation Energy        =      -0.7360159706156871 [Eh]
	 Total Energy              =    -238.7352099225721247 [Eh]
	 SCS Total Energy          =    -238.7241996387712391 [Eh]
    Molecular point group: c1
  Basis Set: AUG-CC-PVQZ
    Blend: AUG-CC-PVQZ
  Basis Set: (AUG-CC-PVQZ AUX)
    Blend: AUG-CC-PVQZ-JKFIT
  @DF-RHF Final Energy:  -238.01565462335645
    Total Energy =                       -238.0156546233564541
  Basis Set: (AUG-CC-PVQZ AUX)
  @DF-RHF Final Energy:  -237.99919693454518
    Total Energy =                       -237.9991969345451821
  @DF-RHF Final Energy:  -238.01565634481204
    Total Energy =                       -238.0156563448120437
  @DF-RHF Final Energy:  -237.99923790099126
    Total Energy =                       -237.9992379009912611
  @DF-RHF Final Energy:  -238.01569793716408
    Total Energy =                       -238.0156979371640773
  @DF-RHF Final Energy:  -237.99923509520875
    Total Energy =                       -237.9992350952087463
  @DF-RHF Final Energy:  -238.01569468821754
    Total Energy =                       -238.0156946882175362
  Multiplicity = 1
  @DF-RHF Final Energy:  -475.99913409093750
    Total Energy =                       -475.9991340909375026
	 Singles Energy            =      -0.0000000000000000 [Eh]
	 Same-Spin Energy          =      -0.3651012159801611 [Eh]
	 Opposite-Spin Energy      =      -1.1068920637111601 [Eh]
	 Correlation Energy        =      -1.4719932796913211 [Eh]
	 Total Energy              =    -477.4711273706288353 [Eh]
	 SCS Total Energy          =    -477.4491049727176346 [Eh]
    Molecular point group: c1

    Geometry (in Angstrom), charge = 0, multiplicity = 1:

       Center              X                  Y                   Z               Mass
    ------------   -----------------  -----------------  -----------------  -----------------
         F            0.939587731451     0.549226348308     3.089068041074    18.998403162730
         F           -0.942232268549    -0.589843651692     3.084638041074    18.998403162730
         C           -0.007412268549    -0.013363651692     3.880138041074    12.000000000000
         H           -0.481502268549     0.767596348308     4.467128041074     1.007825032230
         H            0.457547731451    -0.783853651692     4.487908041074     1.007825032230
         F            0.569647731451    -0.920053651692    -3.581251958926    18.998403162730
         F           -0.568642268549     0.963706348308    -3.540001958926    18.998403162730
         C            0.009327731451     0.009796348308    -2.767981958926    12.000000000000
         H            0.789987731451     0.468476348308    -2.169151958926     1.007825032230
         H           -0.757942268549    -0.466963651692    -2.166011958926     1.007825032230

  Charge       = 0
  Multiplicity = 1
  Basis Set: AUG-CC-PVQZ
    Blend: AUG-CC-PVQZ
  Basis Set: (AUG-CC-PVQZ AUX)
    Blend: AUG-CC-PVQZ-JKFIT

    Orbital Energies [Eh]
    ---------------------

    Doubly Occupied:

       1A    -26.316051     2A    -26.316033     3A    -26.305482
       4A    -26.305461     5A    -11.410926     6A    -11.400167
       7A     -1.667177     8A     -1.656263     9A     -1.606986
      10A     -1.596321    11A     -0.977813    12A     -0.967234
      13A     -0.785579    14A     -0.776801    15A     -0.774524
      16A     -0.766199    17A     -0.761722    18A     -0.750964
      19A     -0.673863    20A     -0.663256    21A     -0.639683
      22A     -0.629202    23A     -0.629192    24A     -0.618660
      25A     -0.544142    26A     -0.533227

  @DF-RHF Final Energy:  -476.03205022713803

   => Energetics <=

    Nuclear Repulsion Energy =            207.8711803101985822
    One-Electron Energy =               -1075.6606031541182347
    Two-Electron Energy =                 391.7573726167815948
    Total Energy =                       -476.0320502271380292

  Dipole Moment: [D]
     X:     0.0073      Y:    -0.0145      Z:     4.4585     Total:     4.4585

  Basis Set: (AUG-CC-PVQZ AUX)
    Blend: AUG-CC-PVQZ-RI
	 Reference Energy          =    -476.0320502271380292 [Eh]
	 Singles Energy            =      -0.0000000000000000 [Eh]
	 Same-Spin Energy          =      -0.3916047085480392 [Eh]
	 Opposite-Spin Energy      =      -1.2719306207016707 [Eh]
	 Correlation Energy        =      -1.6635353292497099 [Eh]
	 Total Energy              =    -477.6955855563877549 [Eh]

	 ================> DF-SCS-MP2 Energies <==================
	-----------------------------------------------------------
	 SCS Same-Spin Scale       =       0.3333333333333333 [-]
	 SCS Opposite-Spin Scale   =       1.2000000000000000 [-]
	 SCS Same-Spin Energy      =      -0.1305349028493464 [Eh]
	 SCS Opposite-Spin Energy  =      -1.5263167448420047 [Eh]
	 SCS Correlation Energy    =      -1.6568516476913511 [Eh]
	 SCS Total Energy          =    -477.6889018748293552 [Eh]
	-----------------------------------------------------------

*** Psi4 exiting successfully. Buy a developer a beer!
