                               Psi4 1.4a2.dev224

  ==> Input File <==

--------------------------------------------------------------------------
#Generated by lconvert.py for cbs job

memory 20 GB

molecule  {
0 1
 Cl       0.345460    1.418920    1.445490
 Cl      -0.362080   -1.434280    1.443480
  C      -0.013030   -0.007170    2.429450
  H      -0.885410    0.208440    3.032030
  H       0.853360   -0.222190    3.040790
--
0 1
 Cl      -0.358780   -1.408920   -4.193670
 Cl       0.344100    1.446450   -4.191290
  C       0.017470    0.012010   -3.210390
  H       0.898430   -0.206410   -2.622150
  H      -0.832270    0.221690   -2.575120
units angstrom
no_reorient
symmetry c1
}

set {
scf_type DF
mp2_type DF
e_convergence 7
reference rhf
}

energy('mp2/aug-cc-pv[tq]z', bsse_type='cp')
--------------------------------------------------------------------------

    Molecular point group: c1
  Charge       = 0
  Multiplicity = 1
  Basis Set: AUG-CC-PVTZ
    Blend: AUG-CC-PVTZ
  Basis Set: (AUG-CC-PVTZ AUX)
    Blend: AUG-CC-PVTZ-JKFIT
  @DF-RHF Final Energy:  -958.07921738226810
    Total Energy =                       -958.0792173822680979
  Basis Set: (AUG-CC-PVTZ AUX)
    Blend: AUG-CC-PVTZ-RI
	 Reference Energy          =    -958.0792173822680979 [Eh]
	 Singles Energy            =      -0.0000000000000000 [Eh]
	 Same-Spin Energy          =      -0.1623269201019206 [Eh]
	 Opposite-Spin Energy      =      -0.4944166358253098 [Eh]
	 Correlation Energy        =      -0.6567435559272303 [Eh]
	 Total Energy              =    -958.7359609381953760 [Eh]
	 SCS Total Energy          =    -958.7266263186257902 [Eh]
    Molecular point group: c1
  Basis Set: AUG-CC-PVQZ
    Blend: AUG-CC-PVQZ
  Basis Set: (AUG-CC-PVQZ AUX)
    Blend: AUG-CC-PVQZ-JKFIT
  @DF-RHF Final Energy:  -958.08893883490714
    Total Energy =                       -958.0889388349071396
  Basis Set: (AUG-CC-PVQZ AUX)
  @DF-RHF Final Energy:  -958.07922752749164
    Total Energy =                       -958.0792275274916392
  @DF-RHF Final Energy:  -958.08894640757762
    Total Energy =                       -958.0889464075776232
  @DF-RHF Final Energy:  -958.07923296063598
    Total Energy =                       -958.0792329606359772
  @DF-RHF Final Energy:  -958.08893226568682
    Total Energy =                       -958.0889322656868217
  @DF-RHF Final Energy:  -958.07921038017707
    Total Energy =                       -958.0792103801770736
  @DF-RHF Final Energy:  -958.08892468992713
    Total Energy =                       -958.0889246899271257
  Multiplicity = 1
  @DF-RHF Final Energy: -1916.15943415058155
    Total Energy =                      -1916.1594341505815464
	 Singles Energy            =      -0.0000000000000000 [Eh]
	 Same-Spin Energy          =      -0.3251323035841329 [Eh]
	 Opposite-Spin Energy      =      -0.9895483579723098 [Eh]
	 Correlation Energy        =      -1.3146806615564426 [Eh]
	 Total Energy              =   -1917.4741148121379410 [Eh]
	 SCS Total Energy          =   -1917.4552696146763537 [Eh]
    Molecular point group: c1

    Geometry (in Angstrom), charge = 0, multiplicity = 1:

       Center              X                  Y                   Z               Mass
    ------------   -----------------  -----------------  -----------------  -----------------
         CL           0.351456592822     1.413947706564     2.640661666580    34.968852682000
         CL          -0.356083407178    -1.439252293436     2.638651666580    34.968852682000
         C           -0.007033407178    -0.012142293436     3.624621666580    12.000000000000
         H           -0.879413407178     0.203467706564     4.227201666580     1.007825032230
         H            0.859356592822    -0.227162293436     4.235961666580     1.007825032230
         CL          -0.352783407178    -1.413892293436    -2.998498333420    34.968852682000
         CL           0.350096592822     1.441477706564    -2.996118333420    34.968852682000
         C            0.023466592822     0.007037706564    -2.015218333420    12.000000000000
         H            0.904426592822    -0.211382293436    -1.426978333420     1.007825032230
         H           -0.826273407178     0.216717706564    -1.379948333420     1.007825032230

  Charge       = 0
  Multiplicity = 1
  Basis Set: AUG-CC-PVQZ
    Blend: AUG-CC-PVQZ
  Basis Set: (AUG-CC-PVQZ AUX)
    Blend: AUG-CC-PVQZ-JKFIT

    Orbital Energies [Eh]
    ---------------------

    Doubly Occupied:

       1A   -104.855675     2A   -104.855629     3A   -104.842802
       4A   -104.842771     5A    -11.370876     6A    -11.357300
       7A    -10.581305     8A    -10.581257     9A    -10.568454
      10A    -10.568418    11A     -8.048375    12A     -8.048327
      13A     -8.046574    14A     -8.046526    15A     -8.046482
      16A     -8.046434    17A     -8.035529    18A     -8.035493
      19A     -8.033731    20A     -8.033695    21A     -8.033640
      22A     -8.033604    23A     -1.200519    24A     -1.187686
      25A     -1.104196    26A     -1.091568    27A     -0.903879
      28A     -0.890834    29A     -0.684930    30A     -0.670785
      31A     -0.624410    32A     -0.612107    33A     -0.593151
      34A     -0.580538    35A     -0.481736    36A     -0.479621
      37A     -0.469133    38A     -0.466203    39A     -0.455697
      40A     -0.454170    41A     -0.443048    42A     -0.441000

  @DF-RHF Final Energy: -1916.17883843993695

   => Energetics <=

    Nuclear Repulsion Energy =            428.5437094215841967
    One-Electron Energy =               -3499.9488656112157514
    Two-Electron Energy =                1155.2263177496947719
    Total Energy =                      -1916.1788384399369534

  Dipole Moment: [D]
     X:     0.0364      Y:    -0.0125      Z:     3.8805     Total:     3.8807

  Basis Set: (AUG-CC-PVQZ AUX)
    Blend: AUG-CC-PVQZ-RI
	 Reference Energy          =   -1916.1788384399369534 [Eh]
	 Singles Energy            =      -0.0000000000000000 [Eh]
	 Same-Spin Energy          =      -0.3698877943081135 [Eh]
	 Opposite-Spin Energy      =      -1.1617187513489140 [Eh]
	 Correlation Energy        =      -1.5316065456570276 [Eh]
	 Total Energy              =   -1917.7104449855939947 [Eh]

	 ================> DF-SCS-MP2 Energies <==================
	-----------------------------------------------------------
	 SCS Same-Spin Scale       =       0.3333333333333333 [-]
	 SCS Opposite-Spin Scale   =       1.2000000000000000 [-]
	 SCS Same-Spin Energy      =      -0.1232959314360378 [Eh]
	 SCS Opposite-Spin Energy  =      -1.3940625016186967 [Eh]
	 SCS Correlation Energy    =      -1.5173584330547345 [Eh]
	 SCS Total Energy          =   -1917.6961968729917771 [Eh]
	-----------------------------------------------------------

*** Psi4 exiting successfully. Buy a developer a beer!
