                               Psi4 1.4a2.dev224

  ==> Input File <==

--------------------------------------------------------------------------
#Generated by lconvert.py for cbs job

memory 40 GB

molecule  {
0 1
 Cl        0.3454590     1.4189180     1.4454870
 Cl       -0.3620810    -1.4342790     1.4434800
  C       -0.0130340    -0.0071660     2.4294510
  H       -0.8854120     0.2084410     3.0320320
  H        0.8533620    -0.2221870     3.0407920
--
0 1
 Cl       -0.3597940    -1.4129690    -3.2854870
 Cl        0.3430870     1.4424000    -3.2831020
  C        0.0164540     0.0079560    -2.3022040
  H        0.8974200    -0.2104620    -1.7139600
  H       -0.8332880     0.2176420    -1.6669340
units angstrom
no_reorient
symmetry c1
}

set {
scf_type DF
mp2_type DF
e_convergence 7
reference rhf
}

energy('mp2/aug-cc-pv[tq]z', bsse_type='cp')
--------------------------------------------------------------------------

    Molecular point group: c1
  Charge       = 0
  Multiplicity = 1
  Basis Set: AUG-CC-PVTZ
    Blend: AUG-CC-PVTZ
  Basis Set: (AUG-CC-PVTZ AUX)
    Blend: AUG-CC-PVTZ-JKFIT
  @DF-RHF Final Energy:  -958.07921726554582
    Total Energy =                       -958.0792172655458216
  Basis Set: (AUG-CC-PVTZ AUX)
    Blend: AUG-CC-PVTZ-RI
	 Reference Energy          =    -958.0792172655458216 [Eh]
	 Singles Energy            =      -0.0000000000000000 [Eh]
	 Same-Spin Energy          =      -0.1623269418906179 [Eh]
	 Opposite-Spin Energy      =      -0.4944167001678548 [Eh]
	 Correlation Energy        =      -0.6567436420584727 [Eh]
	 Total Energy              =    -958.7359609076042943 [Eh]
	 SCS Total Energy          =    -958.7266262863774955 [Eh]
    Molecular point group: c1
  Basis Set: AUG-CC-PVQZ
    Blend: AUG-CC-PVQZ
  Basis Set: (AUG-CC-PVQZ AUX)
    Blend: AUG-CC-PVQZ-JKFIT
  @DF-RHF Final Energy:  -958.08893871391251
    Total Energy =                       -958.0889387139125120
  Basis Set: (AUG-CC-PVQZ AUX)
  @DF-RHF Final Energy:  -958.07925911322400
    Total Energy =                       -958.0792591132239977
  @DF-RHF Final Energy:  -958.08895226783261
    Total Energy =                       -958.0889522678326102
  @DF-RHF Final Energy:  -958.07928349223153
    Total Energy =                       -958.0792834922315251
  @DF-RHF Final Energy:  -958.08893840887970
    Total Energy =                       -958.0889384088796987
  @DF-RHF Final Energy:  -958.07921032438344
    Total Energy =                       -958.0792103243834390
  @DF-RHF Final Energy:  -958.08892463194047
    Total Energy =                       -958.0889246319404720
  Multiplicity = 1
  @DF-RHF Final Energy: -1916.15959874310784
    Total Energy =                      -1916.1595987431078356
	 Singles Energy            =      -0.0000000000000000 [Eh]
	 Same-Spin Energy          =      -0.3262255686388418 [Eh]
	 Opposite-Spin Energy      =      -0.9912328123919129 [Eh]
	 Correlation Energy        =      -1.3174583810307547 [Eh]
	 Total Energy              =   -1917.4770571241385824 [Eh]
	 SCS Total Energy          =   -1917.4578199741911249 [Eh]
    Molecular point group: c1

    Geometry (in Angstrom), charge = 0, multiplicity = 1:

       Center              X                  Y                   Z               Mass
    ------------   -----------------  -----------------  -----------------  -----------------
         CL           0.351963229895     1.415970682555     2.186566380147    34.968852682000
         CL          -0.355576770105    -1.437226317445     2.184559380147    34.968852682000
         C           -0.006529770105    -0.010113317445     3.170530380147    12.000000000000
         H           -0.878907770105     0.205493682555     3.773111380147     1.007825032230
         H            0.859866229895    -0.225134317445     3.781871380147     1.007825032230
         CL          -0.353289770105    -1.415916317445    -2.544407619853    34.968852682000
         CL           0.349591229895     1.439452682555    -2.542022619853    34.968852682000
         C            0.022958229895     0.005008682555    -1.561124619853    12.000000000000
         H            0.903924229895    -0.213409317445    -0.972880619853     1.007825032230
         H           -0.826783770105     0.214694682555    -0.925854619853     1.007825032230

  Charge       = 0
  Multiplicity = 1
  Basis Set: AUG-CC-PVQZ
    Blend: AUG-CC-PVQZ
  Basis Set: (AUG-CC-PVQZ AUX)
    Blend: AUG-CC-PVQZ-JKFIT

    Orbital Energies [Eh]
    ---------------------

    Doubly Occupied:

       1A   -104.858605     2A   -104.858540     3A   -104.840560
       4A   -104.840521     5A    -11.373333     6A    -11.354181
       7A    -10.584262     8A    -10.584192     9A    -10.566234
      10A    -10.566189    11A     -8.051329    12A     -8.051259
      13A     -8.049530    14A     -8.049460    15A     -8.049436
      16A     -8.049366    17A     -8.033310    18A     -8.033265
      19A     -8.031519    20A     -8.031475    21A     -8.031429
      22A     -8.031385    23A     -1.203525    24A     -1.185275
      25A     -1.107236    26A     -1.089387    27A     -0.906702
      28A     -0.887928    29A     -0.687525    30A     -0.667859
      31A     -0.627267    32A     -0.609774    33A     -0.596128
      34A     -0.578146    35A     -0.484722    36A     -0.483057
      37A     -0.467053    38A     -0.463575    39A     -0.459037
      40A     -0.457213    41A     -0.440922    42A     -0.438604

  @DF-RHF Final Energy: -1916.17893521268024

   => Energetics <=

    Nuclear Repulsion Energy =            456.5443478641213346
    One-Electron Energy =               -3555.9259342219029350
    Two-Electron Energy =                1183.2026511451012993
    Total Energy =                      -1916.1789352126802441

  Dipole Moment: [D]
     X:     0.0359      Y:    -0.0132      Z:     4.0021     Total:     4.0023

  Basis Set: (AUG-CC-PVQZ AUX)
    Blend: AUG-CC-PVQZ-RI
	 Reference Energy          =   -1916.1789352126802441 [Eh]
	 Singles Energy            =      -0.0000000000000000 [Eh]
	 Same-Spin Energy          =      -0.3708693714823608 [Eh]
	 Opposite-Spin Energy      =      -1.1629129742733451 [Eh]
	 Correlation Energy        =      -1.5337823457557058 [Eh]
	 Total Energy              =   -1917.7127175584359975 [Eh]

	 ================> DF-SCS-MP2 Energies <==================
	-----------------------------------------------------------
	 SCS Same-Spin Scale       =       0.3333333333333333 [-]
	 SCS Opposite-Spin Scale   =       1.2000000000000000 [-]
	 SCS Same-Spin Energy      =      -0.1236231238274536 [Eh]
	 SCS Opposite-Spin Energy  =      -1.3954955691280140 [Eh]
	 SCS Correlation Energy    =      -1.5191186929554676 [Eh]
	 SCS Total Energy          =   -1917.6980539056357884 [Eh]
	-----------------------------------------------------------

*** Psi4 exiting successfully. Buy a developer a beer!
