                               Psi4 1.4a2.dev224

  ==> Input File <==

--------------------------------------------------------------------------
#Generated by lconvert.py for cbs job

memory 40 GB

molecule  {
0 1
 Cl        0.3454590     1.4189180     1.4454870
 Cl       -0.3620810    -1.4342790     1.4434800
  C       -0.0130340    -0.0071660     2.4294510
  H       -0.8854120     0.2084410     3.0320320
  H        0.8533620    -0.2221870     3.0407920
--
0 1
 Cl       -0.3616060    -1.4202090    -1.6616510
 Cl        0.3412750     1.4351600    -1.6592660
  C        0.0146420     0.0007160    -0.6783680
  H        0.8956080    -0.2177020    -0.0901240
  H       -0.8351000     0.2104020    -0.0430980
units angstrom
no_reorient
symmetry c1
}

set {
scf_type DF
mp2_type DF
e_convergence 7
reference rhf
}

energy('mp2/aug-cc-pv[tq]z', bsse_type='cp')
--------------------------------------------------------------------------

    Molecular point group: c1
  Charge       = 0
  Multiplicity = 1
  Basis Set: AUG-CC-PVTZ
    Blend: AUG-CC-PVTZ
  Basis Set: (AUG-CC-PVTZ AUX)
    Blend: AUG-CC-PVTZ-JKFIT
  @DF-RHF Final Energy:  -958.07921726575694
    Total Energy =                       -958.0792172657569381
  Basis Set: (AUG-CC-PVTZ AUX)
    Blend: AUG-CC-PVTZ-RI
	 Reference Energy          =    -958.0792172657569381 [Eh]
	 Singles Energy            =      -0.0000000000000000 [Eh]
	 Same-Spin Energy          =      -0.1623269418905603 [Eh]
	 Opposite-Spin Energy      =      -0.4944167001674705 [Eh]
	 Correlation Energy        =      -0.6567436420580308 [Eh]
	 Total Energy              =    -958.7359609078149560 [Eh]
	 SCS Total Energy          =    -958.7266262865880435 [Eh]
    Molecular point group: c1
  Basis Set: AUG-CC-PVQZ
    Blend: AUG-CC-PVQZ
  Basis Set: (AUG-CC-PVQZ AUX)
    Blend: AUG-CC-PVQZ-JKFIT
  @DF-RHF Final Energy:  -958.08893871443604
    Total Energy =                       -958.0889387144360398
  Basis Set: (AUG-CC-PVQZ AUX)
  @DF-RHF Final Energy:  -958.07936233945054
    Total Energy =                       -958.0793623394504266
  @DF-RHF Final Energy:  -958.08898660892089
    Total Energy =                       -958.0889866089210045
  @DF-RHF Final Energy:  -958.07941874494315
    Total Energy =                       -958.0794187449430410
  @DF-RHF Final Energy:  -958.08897637224391
    Total Energy =                       -958.0889763722439056
  @DF-RHF Final Energy:  -958.07921032426714
    Total Energy =                       -958.0792103242671374
  @DF-RHF Final Energy:  -958.08892463182451
    Total Energy =                       -958.0889246318245114
  Multiplicity = 1
  @DF-RHF Final Energy: -1916.09566979765918
    Total Energy =                      -1916.0956697976591840
	 Singles Energy            =      -0.0000000000000000 [Eh]
	 Same-Spin Energy          =      -0.3404516857981957 [Eh]
	 Opposite-Spin Energy      =      -1.0093801232883712 [Eh]
	 Correlation Energy        =      -1.3498318090865671 [Eh]
	 Total Energy              =   -1917.4455016067456654 [Eh]
	 SCS Total Energy          =   -1917.4204098408713435 [Eh]
    Molecular point group: c1

    Geometry (in Angstrom), charge = 0, multiplicity = 1:

       Center              X                  Y                   Z               Mass
    ------------   -----------------  -----------------  -----------------  -----------------
         CL           0.352869229895     1.419590682555     1.374648380147    34.968852682000
         CL          -0.354670770105    -1.433606317445     1.372641380147    34.968852682000
         C           -0.005623770105    -0.006493317445     2.358612380147    12.000000000000
         H           -0.878001770105     0.209113682555     2.961193380147     1.007825032230
         H            0.860772229895    -0.221514317445     2.969953380147     1.007825032230
         CL          -0.354195770105    -1.419536317445    -1.732489619853    34.968852682000
         CL           0.348685229895     1.435832682555    -1.730104619853    34.968852682000
         C            0.022052229895     0.001388682555    -0.749206619853    12.000000000000
         H            0.903018229895    -0.217029317445    -0.160962619853     1.007825032230
         H           -0.827689770105     0.211074682555    -0.113936619853     1.007825032230

  Charge       = 0
  Multiplicity = 1
  Basis Set: AUG-CC-PVQZ
    Blend: AUG-CC-PVQZ
  Basis Set: (AUG-CC-PVQZ AUX)
    Blend: AUG-CC-PVQZ-JKFIT

    Orbital Energies [Eh]
    ---------------------

    Doubly Occupied:

       1A   -104.857552     2A   -104.857410     3A   -104.832056
       4A   -104.831602     5A    -11.376236     6A    -11.343080
       7A    -10.585136     8A    -10.585079     9A    -10.558205
      10A    -10.557768    11A     -8.051940    12A     -8.051868
      13A     -8.050366    14A     -8.050312    15A     -8.050050
      16A     -8.049984    17A     -8.025270    18A     -8.024832
      19A     -8.023536    20A     -8.023450    21A     -8.023100
      22A     -8.023015    23A     -1.221644    24A     -1.176042
      25A     -1.119033    26A     -1.081863    27A     -0.927105
      28A     -0.878954    29A     -0.700708    30A     -0.664475
      31A     -0.645180    32A     -0.617750    33A     -0.608701
      34A     -0.566775    35A     -0.495380    36A     -0.469844
      37A     -0.465729    38A     -0.462480    39A     -0.459196
      40A     -0.450072    41A     -0.430625    42A     -0.427493

  @DF-RHF Final Energy: -1916.11496658483293

   => Energetics <=

    Nuclear Repulsion Energy =            539.5413738470920180
    One-Electron Energy =               -3721.9108976787256324
    Two-Electron Energy =                1266.2545572468006867
    Total Energy =                      -1916.1149665848329278

  Dipole Moment: [D]
     X:     0.0372      Y:    -0.0116      Z:     4.0715     Total:     4.0717

  Basis Set: (AUG-CC-PVQZ AUX)
    Blend: AUG-CC-PVQZ-RI
	 Reference Energy          =   -1916.1149665848329278 [Eh]
	 Singles Energy            =      -0.0000000000000000 [Eh]
	 Same-Spin Energy          =      -0.3851430807066547 [Eh]
	 Opposite-Spin Energy      =      -1.1800846370337461 [Eh]
	 Correlation Energy        =      -1.5652277177404008 [Eh]
	 Total Energy              =   -1917.6801943025732271 [Eh]

	 ================> DF-SCS-MP2 Energies <==================
	-----------------------------------------------------------
	 SCS Same-Spin Scale       =       0.3333333333333333 [-]
	 SCS Opposite-Spin Scale   =       1.2000000000000000 [-]
	 SCS Same-Spin Energy      =      -0.1283810269022182 [Eh]
	 SCS Opposite-Spin Energy  =      -1.4161015644404953 [Eh]
	 SCS Correlation Energy    =      -1.5444825913427136 [Eh]
	 SCS Total Energy          =   -1917.6594491761757126 [Eh]
	-----------------------------------------------------------

*** Psi4 exiting successfully. Buy a developer a beer!
