                               Psi4 1.4a2.dev224

  ==> Input File <==

--------------------------------------------------------------------------
#Generated by lconvert.py for cbs job

memory 40 GB

molecule  {
0 1
 Cl        0.3454590     1.4189180     1.4454870
 Cl       -0.3620810    -1.4342790     1.4434800
  C       -0.0130340    -0.0071660     2.4294510
  H       -0.8854120     0.2084410     3.0320320
  H        0.8533620    -0.2221870     3.0407920
--
0 1
 Cl       -0.3604220    -1.4154800    -2.7222160
 Cl        0.3424590     1.4398890    -2.7198310
  C        0.0158260     0.0054450    -1.7389330
  H        0.8967920    -0.2129730    -1.1506890
  H       -0.8339160     0.2151310    -1.1036630
units angstrom
no_reorient
symmetry c1
}

set {
scf_type DF
mp2_type DF
e_convergence 7
reference rhf
}

energy('mp2/aug-cc-pv[tq]z', bsse_type='cp')
--------------------------------------------------------------------------

    Molecular point group: c1
  Charge       = 0
  Multiplicity = 1
  Basis Set: AUG-CC-PVTZ
    Blend: AUG-CC-PVTZ
  Basis Set: (AUG-CC-PVTZ AUX)
    Blend: AUG-CC-PVTZ-JKFIT
  @DF-RHF Final Energy:  -958.07921726549171
    Total Energy =                       -958.0792172654917067
  Basis Set: (AUG-CC-PVTZ AUX)
    Blend: AUG-CC-PVTZ-RI
	 Reference Energy          =    -958.0792172654917067 [Eh]
	 Singles Energy            =      -0.0000000000000000 [Eh]
	 Same-Spin Energy          =      -0.1623269418907403 [Eh]
	 Opposite-Spin Energy      =      -0.4944167001681012 [Eh]
	 Correlation Energy        =      -0.6567436420588415 [Eh]
	 Total Energy              =    -958.7359609075505205 [Eh]
	 SCS Total Energy          =    -958.7266262863237216 [Eh]
    Molecular point group: c1
  Basis Set: AUG-CC-PVQZ
    Blend: AUG-CC-PVQZ
  Basis Set: (AUG-CC-PVQZ AUX)
    Blend: AUG-CC-PVQZ-JKFIT
  @DF-RHF Final Energy:  -958.08893871399232
    Total Energy =                       -958.0889387139923201
  Basis Set: (AUG-CC-PVQZ AUX)
  @DF-RHF Final Energy:  -958.07928305124892
    Total Energy =                       -958.0792830512489218
  @DF-RHF Final Energy:  -958.08896049644000
    Total Energy =                       -958.0889604964399950
  @DF-RHF Final Energy:  -958.07931983446883
    Total Energy =                       -958.0793198344688335
  @DF-RHF Final Energy:  -958.08894660626868
    Total Energy =                       -958.0889466062687916
  @DF-RHF Final Energy:  -958.07921032425247
    Total Energy =                       -958.0792103242524718
  @DF-RHF Final Energy:  -958.08892463180177
    Total Energy =                       -958.0889246318017740
  Multiplicity = 1
  @DF-RHF Final Energy: -1916.15734890347881
    Total Energy =                      -1916.1573489034788054
	 Singles Energy            =      -0.0000000000000000 [Eh]
	 Same-Spin Energy          =      -0.3280625794868154 [Eh]
	 Opposite-Spin Energy      =      -0.9938799275435787 [Eh]
	 Correlation Energy        =      -1.3219425070303941 [Eh]
	 Total Energy              =   -1917.4792914105091768 [Eh]
	 SCS Total Energy          =   -1917.4593590096933440 [Eh]
    Molecular point group: c1

    Geometry (in Angstrom), charge = 0, multiplicity = 1:

       Center              X                  Y                   Z               Mass
    ------------   -----------------  -----------------  -----------------  -----------------
         CL           0.352277229895     1.417226182555     1.904930880147    34.968852682000
         CL          -0.355262770105    -1.435970817445     1.902923880147    34.968852682000
         C           -0.006215770105    -0.008857817445     2.888894880147    12.000000000000
         H           -0.878593770105     0.206749182555     3.491475880147     1.007825032230
         H            0.860180229895    -0.223878817445     3.500235880147     1.007825032230
         CL          -0.353603770105    -1.417171817445    -2.262772119853    34.968852682000
         CL           0.349277229895     1.438197182555    -2.260387119853    34.968852682000
         C            0.022644229895     0.003753182555    -1.279489119853    12.000000000000
         H            0.903610229895    -0.214664817445    -0.691245119853     1.007825032230
         H           -0.827097770105     0.213439182555    -0.644219119853     1.007825032230

  Charge       = 0
  Multiplicity = 1
  Basis Set: AUG-CC-PVQZ
    Blend: AUG-CC-PVQZ
  Basis Set: (AUG-CC-PVQZ AUX)
    Blend: AUG-CC-PVQZ-JKFIT

    Orbital Energies [Eh]
    ---------------------

    Doubly Occupied:

       1A   -104.860381     2A   -104.860326     3A   -104.838462
       4A   -104.838394     5A    -11.375148     6A    -11.350981
       7A    -10.586167     8A    -10.586100     9A    -10.564168
      10A    -10.564097    11A     -8.053225    12A     -8.053159
      13A     -8.051433    14A     -8.051366    15A     -8.051332
      16A     -8.051265    17A     -8.031245    18A     -8.031173
      19A     -8.029465    20A     -8.029394    21A     -8.029375
      22A     -8.029305    23A     -1.206100    24A     -1.183081
      25A     -1.109701    26A     -1.087414    27A     -0.909493
      28A     -0.885258    29A     -0.689666    30A     -0.665371
      31A     -0.629844    32A     -0.608520    33A     -0.598974
      34A     -0.575718    35A     -0.487139    36A     -0.484633
      37A     -0.465153    38A     -0.462220    39A     -0.460747
      40A     -0.459864    41A     -0.438853    42A     -0.436187

  @DF-RHF Final Energy: -1916.17665039246231

   => Energetics <=

    Nuclear Repulsion Energy =            479.1941593514782767
    One-Electron Energy =               -3601.2218266464410590
    Two-Electron Energy =                1205.8510169025003052
    Total Energy =                      -1916.1766503924623066

  Dipole Moment: [D]
     X:     0.0355      Y:    -0.0136      Z:     4.0869     Total:     4.0871

  Basis Set: (AUG-CC-PVQZ AUX)
    Blend: AUG-CC-PVQZ-RI
	 Reference Energy          =   -1916.1766503924623066 [Eh]
	 Singles Energy            =      -0.0000000000000000 [Eh]
	 Same-Spin Energy          =      -0.3726236171112298 [Eh]
	 Opposite-Spin Energy      =      -1.1650618115265605 [Eh]
	 Correlation Energy        =      -1.5376854286377903 [Eh]
	 Total Energy              =   -1917.7143358211001214 [Eh]

	 ================> DF-SCS-MP2 Energies <==================
	-----------------------------------------------------------
	 SCS Same-Spin Scale       =       0.3333333333333333 [-]
	 SCS Opposite-Spin Scale   =       1.2000000000000000 [-]
	 SCS Same-Spin Energy      =      -0.1242078723704099 [Eh]
	 SCS Opposite-Spin Energy  =      -1.3980741738318725 [Eh]
	 SCS Correlation Energy    =      -1.5222820462022824 [Eh]
	 SCS Total Energy          =   -1917.6989324386645421 [Eh]
	-----------------------------------------------------------

*** Psi4 exiting successfully. Buy a developer a beer!
