                               Psi4 1.4a2.dev224

  ==> Input File <==

--------------------------------------------------------------------------
#Generated by lconvert.py for cbs job

memory 40 GB

molecule  {
0 1
 Cl        0.3454590     1.4189180     1.4454870
 Cl       -0.3620810    -1.4342790     1.4434800
  C       -0.0130340    -0.0071660     2.4294510
  H       -0.8854120     0.2084410     3.0320320
  H        0.8533620    -0.2221870     3.0407920
--
0 1
 Cl       -0.3610990    -1.4181840    -2.1157440
 Cl        0.3417820     1.4371850    -2.1133590
  C        0.0151490     0.0027410    -1.1324610
  H        0.8961150    -0.2156770    -0.5442170
  H       -0.8345930     0.2124270    -0.4971910
units angstrom
no_reorient
symmetry c1
}

set {
scf_type DF
mp2_type DF
e_convergence 7
reference rhf
}

energy('mp2/aug-cc-pv[tq]z', bsse_type='cp')
--------------------------------------------------------------------------

    Molecular point group: c1
  Charge       = 0
  Multiplicity = 1
  Basis Set: AUG-CC-PVTZ
    Blend: AUG-CC-PVTZ
  Basis Set: (AUG-CC-PVTZ AUX)
    Blend: AUG-CC-PVTZ-JKFIT
  @DF-RHF Final Energy:  -958.07921726581674
    Total Energy =                       -958.0792172658166237
  Basis Set: (AUG-CC-PVTZ AUX)
    Blend: AUG-CC-PVTZ-RI
	 Reference Energy          =    -958.0792172658167374 [Eh]
	 Singles Energy            =      -0.0000000000000000 [Eh]
	 Same-Spin Energy          =      -0.1623269418902240 [Eh]
	 Opposite-Spin Energy      =      -0.4944167001658772 [Eh]
	 Correlation Energy        =      -0.6567436420561013 [Eh]
	 Total Energy              =    -958.7359609078728226 [Eh]
	 SCS Total Energy          =    -958.7266262866459101 [Eh]
    Molecular point group: c1
  Basis Set: AUG-CC-PVQZ
    Blend: AUG-CC-PVQZ
  Basis Set: (AUG-CC-PVQZ AUX)
    Blend: AUG-CC-PVQZ-JKFIT
  @DF-RHF Final Energy:  -958.08893871433736
    Total Energy =                       -958.0889387143373597
  Basis Set: (AUG-CC-PVQZ AUX)
  @DF-RHF Final Energy:  -958.07931454655443
    Total Energy =                       -958.0793145465544285
  @DF-RHF Final Energy:  -958.08897331078754
    Total Energy =                       -958.0889733107875372
  @DF-RHF Final Energy:  -958.07936972555501
    Total Energy =                       -958.0793697255548977
  @DF-RHF Final Energy:  -958.08896084842740
    Total Energy =                       -958.0889608484274049
  @DF-RHF Final Energy:  -958.07921032424440
    Total Energy =                       -958.0792103242445137
  @DF-RHF Final Energy:  -958.08892463191523
    Total Energy =                       -958.0889246319152335
  Multiplicity = 1
  @DF-RHF Final Energy: -1916.14160248676808
    Total Energy =                      -1916.1416024867680790
	 Singles Energy            =      -0.0000000000000000 [Eh]
	 Same-Spin Energy          =      -0.3327365203559556 [Eh]
	 Opposite-Spin Energy      =      -0.9999263065953677 [Eh]
	 Correlation Energy        =      -1.3326628269513234 [Eh]
	 Total Energy              =   -1917.4742653137193429 [Eh]
	 SCS Total Energy          =   -1917.4524262281345273 [Eh]
    Molecular point group: c1

    Geometry (in Angstrom), charge = 0, multiplicity = 1:

       Center              X                  Y                   Z               Mass
    ------------   -----------------  -----------------  -----------------  -----------------
         CL           0.352615729895     1.418578182555     1.601694880147    34.968852682000
         CL          -0.354924270105    -1.434618817445     1.599687880147    34.968852682000
         C           -0.005877270105    -0.007505817445     2.585658880147    12.000000000000
         H           -0.878255270105     0.208101182555     3.188239880147     1.007825032230
         H            0.860518729895    -0.222526817445     3.196999880147     1.007825032230
         CL          -0.353942270105    -1.418523817445    -1.959536119853    34.968852682000
         CL           0.348938729895     1.436845182555    -1.957151119853    34.968852682000
         C            0.022305729895     0.002401182555    -0.976253119853    12.000000000000
         H            0.903271729895    -0.216016817445    -0.388009119853     1.007825032230
         H           -0.827436270105     0.212087182555    -0.340983119853     1.007825032230

  Charge       = 0
  Multiplicity = 1
  Basis Set: AUG-CC-PVQZ
    Blend: AUG-CC-PVQZ
  Basis Set: (AUG-CC-PVQZ AUX)
    Blend: AUG-CC-PVQZ-JKFIT

    Orbital Energies [Eh]
    ---------------------

    Doubly Occupied:

       1A   -104.860420     2A   -104.860387     3A   -104.835389
       4A   -104.835199     5A    -11.376779     6A    -11.346192
       7A    -10.586777     8A    -10.586768     9A    -10.561213
      10A    -10.561025    11A     -8.053769    12A     -8.053768
      13A     -8.052032    14A     -8.052025    15A     -8.051880
      16A     -8.051876    17A     -8.028289    18A     -8.028101
      19A     -8.026529    20A     -8.026442    21A     -8.026342
      22A     -8.026256    23A     -1.210786    24A     -1.180031
      25A     -1.113163    26A     -1.084764    27A     -0.915856
      28A     -0.881661    29A     -0.693158    30A     -0.663495
      31A     -0.635300    32A     -0.608947    33A     -0.605237
      34A     -0.571422    35A     -0.490472    36A     -0.478695
      37A     -0.467048    38A     -0.463467    39A     -0.462390
      40A     -0.456632    41A     -0.435392    42A     -0.432102

  @DF-RHF Final Energy: -1916.16087735554447

   => Energetics <=

    Nuclear Repulsion Energy =            510.1739909802049056
    One-Electron Energy =               -3663.1947849667699302
    Two-Electron Energy =                1236.8599166310204964
    Total Energy =                      -1916.1608773555444714

  Dipole Moment: [D]
     X:     0.0354      Y:    -0.0133      Z:     4.1287     Total:     4.1289

  Basis Set: (AUG-CC-PVQZ AUX)
    Blend: AUG-CC-PVQZ-RI
	 Reference Energy          =   -1916.1608773555444714 [Eh]
	 Singles Energy            =      -0.0000000000000000 [Eh]
	 Same-Spin Energy          =      -0.3773243317453056 [Eh]
	 Opposite-Spin Energy      =      -1.1707568442284426 [Eh]
	 Correlation Energy        =      -1.5480811759737483 [Eh]
	 Total Energy              =   -1917.7089585315181921 [Eh]

	 ================> DF-SCS-MP2 Energies <==================
	-----------------------------------------------------------
	 SCS Same-Spin Scale       =       0.3333333333333333 [-]
	 SCS Opposite-Spin Scale   =       1.2000000000000000 [-]
	 SCS Same-Spin Energy      =      -0.1257747772484352 [Eh]
	 SCS Opposite-Spin Energy  =      -1.4049082130741311 [Eh]
	 SCS Correlation Energy    =      -1.5306829903225663 [Eh]
	 SCS Total Energy          =   -1917.6915603458669466 [Eh]
	-----------------------------------------------------------

*** Psi4 exiting successfully. Buy a developer a beer!
