                               Psi4 1.4a2.dev224

  ==> Input File <==

--------------------------------------------------------------------------
#Generated by lconvert.py for cbs job

memory 40 GB

molecule  {
0 1
 Cl        0.3454590     1.4189180     1.4454870
 Cl       -0.3620810    -1.4342790     1.4434800
  C       -0.0130340    -0.0071660     2.4294510
  H       -0.8854120     0.2084410     3.0320320
  H        0.8533620    -0.2221870     3.0407920
--
0 1
 Cl       -0.3606410    -1.4163530    -2.5264490
 Cl        0.3422400     1.4390160    -2.5240640
  C        0.0156070     0.0045720    -1.5431660
  H        0.8965730    -0.2138460    -0.9549220
  H       -0.8341350     0.2142580    -0.9078960
units angstrom
no_reorient
symmetry c1
}

set {
scf_type DF
mp2_type DF
e_convergence 7
reference rhf
}

energy('mp2/aug-cc-pv[tq]z', bsse_type='cp')
--------------------------------------------------------------------------

    Molecular point group: c1
  Charge       = 0
  Multiplicity = 1
  Basis Set: AUG-CC-PVTZ
    Blend: AUG-CC-PVTZ
  Basis Set: (AUG-CC-PVTZ AUX)
    Blend: AUG-CC-PVTZ-JKFIT
  @DF-RHF Final Energy:  -958.07921726556617
    Total Energy =                       -958.0792172655661716
  Basis Set: (AUG-CC-PVTZ AUX)
    Blend: AUG-CC-PVTZ-RI
	 Reference Energy          =    -958.0792172655661716 [Eh]
	 Singles Energy            =      -0.0000000000000000 [Eh]
	 Same-Spin Energy          =      -0.1623269418902606 [Eh]
	 Opposite-Spin Energy      =      -0.4944167001667671 [Eh]
	 Correlation Energy        =      -0.6567436420570276 [Eh]
	 Total Energy              =    -958.7359609076231663 [Eh]
	 SCS Total Energy          =    -958.7266262863963675 [Eh]
    Molecular point group: c1
  Basis Set: AUG-CC-PVQZ
    Blend: AUG-CC-PVQZ
  Basis Set: (AUG-CC-PVQZ AUX)
    Blend: AUG-CC-PVQZ-JKFIT
  @DF-RHF Final Energy:  -958.08893871409919
    Total Energy =                       -958.0889387140991857
  Basis Set: (AUG-CC-PVQZ AUX)
  @DF-RHF Final Energy:  -958.07929152590816
    Total Energy =                       -958.0792915259081610
  @DF-RHF Final Energy:  -958.08896439810758
    Total Energy =                       -958.0889643981076915
  @DF-RHF Final Energy:  -958.07933372900072
    Total Energy =                       -958.0793337290007230
  @DF-RHF Final Energy:  -958.08895046191196
    Total Energy =                       -958.0889504619119634
  @DF-RHF Final Energy:  -958.07921032423178
    Total Energy =                       -958.0792103242317808
  @DF-RHF Final Energy:  -958.08892463170457
    Total Energy =                       -958.0889246317045718
  Multiplicity = 1
  @DF-RHF Final Energy: -1916.15484443093942
    Total Energy =                      -1916.1548444309394199
	 Singles Energy            =      -0.0000000000000000 [Eh]
	 Same-Spin Energy          =      -0.3291401456089127 [Eh]
	 Opposite-Spin Energy      =      -0.9953336723632062 [Eh]
	 Correlation Energy        =      -1.3244738179721189 [Eh]
	 Total Energy              =   -1917.4793182489115679 [Eh]
	 SCS Total Energy          =   -1917.4589582196449555 [Eh]
    Molecular point group: c1

    Geometry (in Angstrom), charge = 0, multiplicity = 1:

       Center              X                  Y                   Z               Mass
    ------------   -----------------  -----------------  -----------------  -----------------
         CL           0.352386729895     1.417662682555     1.807047380147    34.968852682000
         CL          -0.355153270105    -1.435534317445     1.805040380147    34.968852682000
         C           -0.006106270105    -0.008421317445     2.791011380147    12.000000000000
         H           -0.878484270105     0.207185682555     3.393592380147     1.007825032230
         H            0.860289729895    -0.223442317445     3.402352380147     1.007825032230
         CL          -0.353713270105    -1.417608317445    -2.164888619853    34.968852682000
         CL           0.349167729895     1.437760682555    -2.162503619853    34.968852682000
         C            0.022534729895     0.003316682555    -1.181605619853    12.000000000000
         H            0.903500729895    -0.215101317445    -0.593361619853     1.007825032230
         H           -0.827207270105     0.213002682555    -0.546335619853     1.007825032230

  Charge       = 0
  Multiplicity = 1
  Basis Set: AUG-CC-PVQZ
    Blend: AUG-CC-PVQZ
  Basis Set: (AUG-CC-PVQZ AUX)
    Blend: AUG-CC-PVQZ-JKFIT

    Orbital Energies [Eh]
    ---------------------

    Doubly Occupied:

       1A   -104.860734     2A   -104.860696     3A   -104.837574
       4A   -104.837484     5A    -11.375764     6A    -11.349565
       7A    -10.586632     8A    -10.586577     9A    -10.563303
      10A    -10.563210    11A     -8.053681    12A     -8.053627
      13A     -8.051897    14A     -8.051841    15A     -8.051788
      16A     -8.051733    17A     -8.030380    18A     -8.030287
      19A     -8.028605    20A     -8.028516    21A     -8.028513
      22A     -8.028424    23A     -1.207227    24A     -1.182188
      25A     -1.110672    26A     -1.086616    27A     -0.910935
      28A     -0.884170    29A     -0.690560    30A     -0.664535
      31A     -0.631080    32A     -0.608418    33A     -0.600398
      34A     -0.574582    35A     -0.488088    36A     -0.484200
      37A     -0.464384    38A     -0.463592    39A     -0.460953
      40A     -0.459518    41A     -0.437923    42A     -0.435081

  @DF-RHF Final Energy: -1916.17413620509114

   => Energetics <=

    Nuclear Repulsion Energy =            488.3348609969996232
    One-Electron Energy =               -3619.5060917688160771
    Two-Electron Energy =                1214.9970945667250817
    Total Energy =                      -1916.1741362050911448

  Dipole Moment: [D]
     X:     0.0354      Y:    -0.0136      Z:     4.1102     Total:     4.1104

  Basis Set: (AUG-CC-PVQZ AUX)
    Blend: AUG-CC-PVQZ-RI
	 Reference Energy          =   -1916.1741362050911448 [Eh]
	 Singles Energy            =      -0.0000000000000000 [Eh]
	 Same-Spin Energy          =      -0.3736906591031416 [Eh]
	 Opposite-Spin Energy      =      -1.1663608650614141 [Eh]
	 Correlation Energy        =      -1.5400515241645558 [Eh]
	 Total Energy              =   -1917.7141877292556273 [Eh]

	 ================> DF-SCS-MP2 Energies <==================
	-----------------------------------------------------------
	 SCS Same-Spin Scale       =       0.3333333333333333 [-]
	 SCS Opposite-Spin Scale   =       1.2000000000000000 [-]
	 SCS Same-Spin Energy      =      -0.1245635530343805 [Eh]
	 SCS Opposite-Spin Energy  =      -1.3996330380736970 [Eh]
	 SCS Correlation Energy    =      -1.5241965911080775 [Eh]
	 SCS Total Energy          =   -1917.6983327961991108 [Eh]
	-----------------------------------------------------------

*** Psi4 exiting successfully. Buy a developer a beer!
