                               Psi4 1.4a2.dev224

  ==> Input File <==

--------------------------------------------------------------------------
#Generated by lconvert.py for cbs job

memory 40 GB

molecule  {
0 1
 Cl        0.3454590     1.4189180     1.4454870
 Cl       -0.3620810    -1.4342790     1.4434800
  C       -0.0130340    -0.0071660     2.4294510
  H       -0.8854120     0.2084410     3.0320320
  H        0.8533620    -0.2221870     3.0407920
--
0 1
 Cl       -0.3602090    -1.4146280    -2.9133980
 Cl        0.3426720     1.4407410    -2.9110130
  C        0.0160390     0.0062970    -1.9301150
  H        0.8970050    -0.2121210    -1.3418710
  H       -0.8337030     0.2159830    -1.2948450
units angstrom
no_reorient
symmetry c1
}

set {
scf_type DF
mp2_type DF
e_convergence 7
reference rhf
}

energy('mp2/aug-cc-pv[tq]z', bsse_type='cp')
--------------------------------------------------------------------------

    Molecular point group: c1
  Charge       = 0
  Multiplicity = 1
  Basis Set: AUG-CC-PVTZ
    Blend: AUG-CC-PVTZ
  Basis Set: (AUG-CC-PVTZ AUX)
    Blend: AUG-CC-PVTZ-JKFIT
  @DF-RHF Final Energy:  -958.07921726575751
    Total Energy =                       -958.0792172657575065
  Basis Set: (AUG-CC-PVTZ AUX)
    Blend: AUG-CC-PVTZ-RI
	 Reference Energy          =    -958.0792172657575065 [Eh]
	 Singles Energy            =      -0.0000000000000000 [Eh]
	 Same-Spin Energy          =      -0.1623269418902120 [Eh]
	 Opposite-Spin Energy      =      -0.4944167001661177 [Eh]
	 Correlation Energy        =      -0.6567436420563297 [Eh]
	 Total Energy              =    -958.7359609078138192 [Eh]
	 SCS Total Energy          =    -958.7266262865869066 [Eh]
    Molecular point group: c1
  Basis Set: AUG-CC-PVQZ
    Blend: AUG-CC-PVQZ
  Basis Set: (AUG-CC-PVQZ AUX)
    Blend: AUG-CC-PVQZ-JKFIT
  @DF-RHF Final Energy:  -958.08893871411499
    Total Energy =                       -958.0889387141151019
  Basis Set: (AUG-CC-PVQZ AUX)
  @DF-RHF Final Energy:  -958.07927538875663
    Total Energy =                       -958.0792753887566278
  @DF-RHF Final Energy:  -958.08895696758566
    Total Energy =                       -958.0889569675855455
  @DF-RHF Final Energy:  -958.07930818484829
    Total Energy =                       -958.0793081848482871
  @DF-RHF Final Energy:  -958.08894334342733
    Total Energy =                       -958.0889433434273315
  @DF-RHF Final Energy:  -958.07921032429101
    Total Energy =                       -958.0792103242910116
  @DF-RHF Final Energy:  -958.08892463165193
    Total Energy =                       -958.0889246316519348
  Multiplicity = 1
  @DF-RHF Final Energy: -1916.15866149282147
    Total Energy =                      -1916.1586614928214658
	 Singles Energy            =      -0.0000000000000000 [Eh]
	 Same-Spin Energy          =      -0.3272674270716275 [Eh]
	 Opposite-Spin Energy      =      -0.9927639111630868 [Eh]
	 Correlation Energy        =      -1.3200313382347142 [Eh]
	 Total Energy              =   -1917.4786928310561507 [Eh]
	 SCS Total Energy          =   -1917.4590673285742923 [Eh]
    Molecular point group: c1

    Geometry (in Angstrom), charge = 0, multiplicity = 1:

       Center              X                  Y                   Z               Mass
    ------------   -----------------  -----------------  -----------------  -----------------
         CL           0.352170729895     1.416800182555     2.000521880147    34.968852682000
         CL          -0.355369270105    -1.436396817445     1.998514880147    34.968852682000
         C           -0.006322270105    -0.009283817445     2.984485880147    12.000000000000
         H           -0.878700270105     0.206323182555     3.587066880147     1.007825032230
         H            0.860073729895    -0.224304817445     3.595826880147     1.007825032230
         CL          -0.353497270105    -1.416745817445    -2.358363119853    34.968852682000
         CL           0.349383729895     1.438623182555    -2.355978119853    34.968852682000
         C            0.022750729895     0.004179182555    -1.375080119853    12.000000000000
         H            0.903716729895    -0.214238817445    -0.786836119853     1.007825032230
         H           -0.826991270105     0.213865182555    -0.739810119853     1.007825032230

  Charge       = 0
  Multiplicity = 1
  Basis Set: AUG-CC-PVQZ
    Blend: AUG-CC-PVQZ
  Basis Set: (AUG-CC-PVQZ AUX)
    Blend: AUG-CC-PVQZ-JKFIT

    Orbital Energies [Eh]
    ---------------------

    Doubly Occupied:

       1A   -104.859857     2A   -104.859793     3A   -104.839246
       4A   -104.839193     5A    -11.374526     6A    -11.352208
       7A    -10.585576     8A    -10.585504     9A    -10.564938
      10A    -10.564880    11A     -8.052639    12A     -8.052568
      13A     -8.050843    14A     -8.050771    15A     -8.050746
      16A     -8.050674    17A     -8.032015    18A     -8.031957
      19A     -8.030231    20A     -8.030173    21A     -8.030140
      22A     -8.030083    23A     -1.205143    24A     -1.183889
      25A     -1.108815    26A     -1.088140    27A     -0.908381
      28A     -0.886243    29A     -0.688884    30A     -0.666239
      31A     -0.628855    32A     -0.608833    33A     -0.597857
      34A     -0.576660    35A     -0.486271    36A     -0.484378
      37A     -0.465857    38A     -0.461854    39A     -0.460989
      40A     -0.458886    41A     -0.439644    42A     -0.437119

  @DF-RHF Final Energy: -1916.17797207143371

   => Energetics <=

    Nuclear Repulsion Energy =            470.9429293837273462
    One-Electron Energy =               -3584.7187975177980661
    Two-Electron Energy =                1197.5978960626368917
    Total Energy =                      -1916.1779720714337145

  Dipole Moment: [D]
     X:     0.0357      Y:    -0.0135      Z:     4.0597     Total:     4.0599

  Basis Set: (AUG-CC-PVQZ AUX)
    Blend: AUG-CC-PVQZ-RI
	 Reference Energy          =   -1916.1779720714337145 [Eh]
	 Singles Energy            =      -0.0000000000000000 [Eh]
	 Same-Spin Energy          =      -0.3718526043667640 [Eh]
	 Opposite-Spin Energy      =      -1.1641197112832642 [Eh]
	 Correlation Energy        =      -1.5359723156500282 [Eh]
	 Total Energy              =   -1917.7139443870837567 [Eh]

	 ================> DF-SCS-MP2 Energies <==================
	-----------------------------------------------------------
	 SCS Same-Spin Scale       =       0.3333333333333333 [-]
	 SCS Opposite-Spin Scale   =       1.2000000000000000 [-]
	 SCS Same-Spin Energy      =      -0.1239508681222547 [Eh]
	 SCS Opposite-Spin Energy  =      -1.3969436535399169 [Eh]
	 SCS Correlation Energy    =      -1.5208945216621717 [Eh]
	 SCS Total Energy          =   -1917.6988665930959996 [Eh]
	-----------------------------------------------------------

*** Psi4 exiting successfully. Buy a developer a beer!
