                               Psi4 1.4a2.dev224

  ==> Input File <==

--------------------------------------------------------------------------
#Generated by lconvert.py for cbs job

memory 20 GB

molecule  {
0 1
 Cl       0.345460    1.418920    1.445490
 Cl      -0.362080   -1.434280    1.443480
  C      -0.013030   -0.007170    2.429450
  H      -0.885410    0.208440    3.032030
  H       0.853360   -0.222190    3.040790
--
0 1
 Cl      -0.357260   -1.402840   -5.555950
 Cl       0.345620    1.452530   -5.553570
  C       0.018990    0.018080   -4.572670
  H       0.899950   -0.200340   -3.984420
  H      -0.830750    0.227770   -3.937400
units angstrom
no_reorient
symmetry c1
}

set {
scf_type DF
mp2_type DF
e_convergence 7
reference rhf
}

energy('mp2/aug-cc-pv[tq]z', bsse_type='cp')
--------------------------------------------------------------------------

    Molecular point group: c1
  Charge       = 0
  Multiplicity = 1
  Basis Set: AUG-CC-PVTZ
    Blend: AUG-CC-PVTZ
  Basis Set: (AUG-CC-PVTZ AUX)
    Blend: AUG-CC-PVTZ-JKFIT
  @DF-RHF Final Energy:  -958.07921727831638
    Total Energy =                       -958.0792172783162641
  Basis Set: (AUG-CC-PVTZ AUX)
    Blend: AUG-CC-PVTZ-RI
	 Reference Energy          =    -958.0792172783163778 [Eh]
	 Singles Energy            =      -0.0000000000000000 [Eh]
	 Same-Spin Energy          =      -0.1623269311588711 [Eh]
	 Opposite-Spin Energy      =      -0.4944166870909103 [Eh]
	 Correlation Energy        =      -0.6567436182497814 [Eh]
	 Total Energy              =    -958.7359608965662119 [Eh]
	 SCS Total Energy          =    -958.7266262798784737 [Eh]
    Molecular point group: c1
  Basis Set: AUG-CC-PVQZ
    Blend: AUG-CC-PVQZ
  Basis Set: (AUG-CC-PVQZ AUX)
    Blend: AUG-CC-PVQZ-JKFIT
  @DF-RHF Final Energy:  -958.08893872827412
    Total Energy =                       -958.0889387282741154
  Basis Set: (AUG-CC-PVQZ AUX)
  @DF-RHF Final Energy:  -958.07921984081509
    Total Energy =                       -958.0792198408150853
  @DF-RHF Final Energy:  -958.08894047382375
    Total Energy =                       -958.0889404738237545
  @DF-RHF Final Energy:  -958.07921633738363
    Total Energy =                       -958.0792163373836274
  @DF-RHF Final Energy:  -958.08892644029231
    Total Energy =                       -958.0889264402923118
  @DF-RHF Final Energy:  -958.07921037997346
    Total Energy =                       -958.0792103799734605
  @DF-RHF Final Energy:  -958.08892469006071
    Total Energy =                       -958.0889246900605940
  Multiplicity = 1
  @DF-RHF Final Energy: -1916.15893969743820
    Total Energy =                      -1916.1589396974381998
	 Singles Energy            =      -0.0000000000000000 [Eh]
	 Same-Spin Energy          =      -0.3247545829870693 [Eh]
	 Opposite-Spin Energy      =      -0.9889804434136020 [Eh]
	 Correlation Energy        =      -1.3137350264006713 [Eh]
	 Total Energy              =   -1917.4726747238389635 [Eh]
	 SCS Total Energy          =   -1917.4539677571967786 [Eh]
    Molecular point group: c1

    Geometry (in Angstrom), charge = 0, multiplicity = 1:

       Center              X                  Y                   Z               Mass
    ------------   -----------------  -----------------  -----------------  -----------------
         CL           0.350696592822     1.410908481269     3.321801606557    34.968852682000
         CL          -0.356843407178    -1.442291518731     3.319791606557    34.968852682000
         C           -0.007793407178    -0.015181518731     4.305761606557    12.000000000000
         H           -0.880173407178     0.200428481269     4.908341606557     1.007825032230
         H            0.858596592822    -0.230201518731     4.917101606557     1.007825032230
         CL          -0.352023407178    -1.410851518731    -3.679638393443    34.968852682000
         CL           0.350856592822     1.444518481269    -3.677258393443    34.968852682000
         C            0.024226592822     0.010068481269    -2.696358393443    12.000000000000
         H            0.905186592822    -0.208351518731    -2.108108393443     1.007825032230
         H           -0.825513407178     0.219758481269    -2.061088393443     1.007825032230

  Charge       = 0
  Multiplicity = 1
  Basis Set: AUG-CC-PVQZ
    Blend: AUG-CC-PVQZ
  Basis Set: (AUG-CC-PVQZ AUX)
    Blend: AUG-CC-PVQZ-JKFIT

    Orbital Energies [Eh]
    ---------------------

    Doubly Occupied:

       1A   -104.852875     2A   -104.852850     3A   -104.844632
       4A   -104.844606     5A    -11.368519     6A    -11.359659
       7A    -10.578506     8A    -10.578479     9A    -10.570271
      10A    -10.570241    11A     -8.045576    12A     -8.045550
      13A     -8.043774    14A     -8.043748    15A     -8.043683
      16A     -8.043656    17A     -8.037346    18A     -8.037316
      19A     -8.035542    20A     -8.035513    21A     -8.035451
      22A     -8.035422    23A     -1.197813    24A     -1.189644
      25A     -1.101436    26A     -1.093371    27A     -0.901371
      28A     -0.893128    29A     -0.682532    30A     -0.673116
      31A     -0.621834    32A     -0.614193    33A     -0.590483
      34A     -0.582438    35A     -0.479012    36A     -0.476559
      37A     -0.470866    38A     -0.468108    39A     -0.452858
      40A     -0.451471    41A     -0.444791    42A     -0.442898

  @DF-RHF Final Energy: -1916.17836371287990

   => Energetics <=

    Nuclear Repulsion Energy =            399.1134898339358870
    One-Electron Energy =               -3441.1214355915776650
    Two-Electron Energy =                1125.8295820447617643
    Total Energy =                      -1916.1783637128799000

  Dipole Moment: [D]
     X:     0.0369      Y:    -0.0118      Z:     3.7776     Total:     3.7778

  Basis Set: (AUG-CC-PVQZ AUX)
    Blend: AUG-CC-PVQZ-RI
	 Reference Energy          =   -1916.1783637128799000 [Eh]
	 Singles Energy            =      -0.0000000000000000 [Eh]
	 Same-Spin Energy          =      -0.3695500280049810 [Eh]
	 Opposite-Spin Energy      =      -1.1613225457955993 [Eh]
	 Correlation Energy        =      -1.5308725738005804 [Eh]
	 Total Energy              =   -1917.7092362866803796 [Eh]

	 ================> DF-SCS-MP2 Energies <==================
	-----------------------------------------------------------
	 SCS Same-Spin Scale       =       0.3333333333333333 [-]
	 SCS Opposite-Spin Scale   =       1.2000000000000000 [-]
	 SCS Same-Spin Energy      =      -0.1231833426683270 [Eh]
	 SCS Opposite-Spin Energy  =      -1.3935870549547191 [Eh]
	 SCS Correlation Energy    =      -1.5167703976230462 [Eh]
	 SCS Total Energy          =   -1917.6951341105029769 [Eh]
	-----------------------------------------------------------

*** Psi4 exiting successfully. Buy a developer a beer!
