                               Psi4 1.4a2.dev224

  ==> Input File <==

--------------------------------------------------------------------------
#Generated by lconvert.py for cbs job

memory 40 GB

molecule  {
0 1
 Cl        0.3454590     1.4189180     1.4454870
 Cl       -0.3620810    -1.4342790     1.4434800
  C       -0.0130340    -0.0071660     2.4294510
  H       -0.8854120     0.2084410     3.0320320
  H        0.8533620    -0.2221870     3.0407920
--
0 1
 Cl       -0.3600000    -1.4137920    -3.1009370
 Cl        0.3428810     1.4415770    -3.0985520
  C        0.0162480     0.0071330    -2.1176540
  H        0.8972140    -0.2112850    -1.5294100
  H       -0.8334940     0.2168190    -1.4823840
units angstrom
no_reorient
symmetry c1
}

set {
scf_type DF
mp2_type DF
e_convergence 7
reference rhf
}

energy('mp2/aug-cc-pv[tq]z', bsse_type='cp')
--------------------------------------------------------------------------

    Molecular point group: c1
  Charge       = 0
  Multiplicity = 1
  Basis Set: AUG-CC-PVTZ
    Blend: AUG-CC-PVTZ
  Basis Set: (AUG-CC-PVTZ AUX)
    Blend: AUG-CC-PVTZ-JKFIT
  @DF-RHF Final Energy:  -958.07921726577899
    Total Energy =                       -958.0792172657789934
  Basis Set: (AUG-CC-PVTZ AUX)
    Blend: AUG-CC-PVTZ-RI
	 Reference Energy          =    -958.0792172657789934 [Eh]
	 Singles Energy            =      -0.0000000000000000 [Eh]
	 Same-Spin Energy          =      -0.1623269418899473 [Eh]
	 Opposite-Spin Energy      =      -0.4944167001651429 [Eh]
	 Correlation Energy        =      -0.6567436420550902 [Eh]
	 Total Energy              =    -958.7359609078340554 [Eh]
	 SCS Total Energy          =    -958.7266262866071429 [Eh]
    Molecular point group: c1
  Basis Set: AUG-CC-PVQZ
    Blend: AUG-CC-PVQZ
  Basis Set: (AUG-CC-PVQZ AUX)
    Blend: AUG-CC-PVQZ-JKFIT
  @DF-RHF Final Energy:  -958.08893871391899
    Total Energy =                       -958.0889387139189921
  Basis Set: (AUG-CC-PVQZ AUX)
  @DF-RHF Final Energy:  -958.07926754969697
    Total Energy =                       -958.0792675496969650
  @DF-RHF Final Energy:  -958.08895417352028
    Total Energy =                       -958.0889541735202783
  @DF-RHF Final Energy:  -958.07929654252132
    Total Energy =                       -958.0792965425212060
  @DF-RHF Final Energy:  -958.08894054734435
    Total Energy =                       -958.0889405473443503
  @DF-RHF Final Energy:  -958.07921032431545
    Total Energy =                       -958.0792103243154543
  @DF-RHF Final Energy:  -958.08892463183247
    Total Energy =                       -958.0889246318324695
  Multiplicity = 1
  @DF-RHF Final Energy: -1916.15931285602346
    Total Energy =                      -1916.1593128560234618
	 Singles Energy            =      -0.0000000000000000 [Eh]
	 Same-Spin Energy          =      -0.3266731708305790 [Eh]
	 Opposite-Spin Energy      =      -0.9919006076251514 [Eh]
	 Correlation Energy        =      -1.3185737784557303 [Eh]
	 Total Energy              =   -1917.4778866344790913 [Eh]
	 SCS Total Energy          =   -1917.4584846421171278 [Eh]
    Molecular point group: c1

    Geometry (in Angstrom), charge = 0, multiplicity = 1:

       Center              X                  Y                   Z               Mass
    ------------   -----------------  -----------------  -----------------  -----------------
         CL           0.352066229895     1.416382182555     2.094291380147    34.968852682000
         CL          -0.355473770105    -1.436814817445     2.092284380147    34.968852682000
         C           -0.006426770105    -0.009701817445     3.078255380147    12.000000000000
         H           -0.878804770105     0.205905182555     3.680836380147     1.007825032230
         H            0.859969229895    -0.224722817445     3.689596380147     1.007825032230
         CL          -0.353392770105    -1.416327817445    -2.452132619853    34.968852682000
         CL           0.349488229895     1.439041182555    -2.449747619853    34.968852682000
         C            0.022855229895     0.004597182555    -1.468849619853    12.000000000000
         H            0.903821229895    -0.213820817445    -0.880605619853     1.007825032230
         H           -0.826886770105     0.214283182555    -0.833579619853     1.007825032230

  Charge       = 0
  Multiplicity = 1
  Basis Set: AUG-CC-PVQZ
    Blend: AUG-CC-PVQZ
  Basis Set: (AUG-CC-PVQZ AUX)
    Blend: AUG-CC-PVQZ-JKFIT

    Orbital Energies [Eh]
    ---------------------

    Doubly Occupied:

       1A   -104.859247     2A   -104.859181     3A   -104.839942
       4A   -104.839897     5A    -11.373917     6A    -11.353267
       7A    -10.584926     8A    -10.584854     9A    -10.565624
      10A    -10.565574    11A     -8.051992    12A     -8.051920
      13A     -8.050194    14A     -8.050122    15A     -8.050099
      16A     -8.050027    17A     -8.032700    18A     -8.032650
      19A     -8.030913    20A     -8.030863    21A     -8.030822
      22A     -8.030773    23A     -1.204294    24A     -1.184619
      25A     -1.107995    26A     -1.088797    27A     -0.907474
      28A     -0.887131    29A     -0.688175    30A     -0.667079
      31A     -0.628013    32A     -0.609274    33A     -0.596929
      34A     -0.577459    35A     -0.485467    36A     -0.483786
      37A     -0.466488    38A     -0.462777    39A     -0.459953
      40A     -0.458007    41A     -0.440326    42A     -0.437916

  @DF-RHF Final Energy: -1916.17863442293492

   => Energetics <=

    Nuclear Repulsion Energy =            463.4304464335602347
    One-Electron Energy =               -3569.6952291498723753
    Two-Electron Energy =                1190.0861482933773914
    Total Energy =                      -1916.1786344229349197

  Dipole Moment: [D]
     X:     0.0358      Y:    -0.0133      Z:     4.0308     Total:     4.0310

  Basis Set: (AUG-CC-PVQZ AUX)
    Blend: AUG-CC-PVQZ-RI
	 Reference Energy          =   -1916.1786344229349197 [Eh]
	 Singles Energy            =      -0.0000000000000000 [Eh]
	 Same-Spin Energy          =      -0.3712878184452617 [Eh]
	 Opposite-Spin Energy      =      -1.1634271937441074 [Eh]
	 Correlation Energy        =      -1.5347150121893691 [Eh]
	 Total Energy              =   -1917.7133494351242007 [Eh]

	 ================> DF-SCS-MP2 Energies <==================
	-----------------------------------------------------------
	 SCS Same-Spin Scale       =       0.3333333333333333 [-]
	 SCS Opposite-Spin Scale   =       1.2000000000000000 [-]
	 SCS Same-Spin Energy      =      -0.1237626061484206 [Eh]
	 SCS Opposite-Spin Energy  =      -1.3961126324929289 [Eh]
	 SCS Correlation Energy    =      -1.5198752386413494 [Eh]
	 SCS Total Energy          =   -1917.6985096615762814 [Eh]
	-----------------------------------------------------------

*** Psi4 exiting successfully. Buy a developer a beer!
