                               Psi4 1.4a2.dev224

  ==> Input File <==

--------------------------------------------------------------------------
#Generated by lconvert.py for cbs job

memory 40 GB

molecule  {
0 1
 Cl        0.3454590     1.4189180     1.4454870
 Cl       -0.3620810    -1.4342790     1.4434800
  C       -0.0130340    -0.0071660     2.4294510
  H       -0.8854120     0.2084410     3.0320320
  H        0.8533620    -0.2221870     3.0407920
--
0 1
 Cl       -0.3616060    -1.4202090    -1.6616510
 Cl        0.3412750     1.4351600    -1.6592660
  C        0.0146420     0.0007160    -0.6783680
  H        0.8956080    -0.2177020    -0.0901240
  H       -0.8351000     0.2104020    -0.0430980
units angstrom
no_reorient
symmetry c1
}

set {
scf_type DF
mp2_type DF
e_convergence 7
reference rhf
}

energy('mp2/aug-cc-pv[tq]z', bsse_type='cp')
--------------------------------------------------------------------------

    Molecular point group: c1
  Charge       = 0
  Multiplicity = 1
  Basis Set: AUG-CC-PVTZ
    Blend: AUG-CC-PVTZ
  Basis Set: (AUG-CC-PVTZ AUX)
    Blend: AUG-CC-PVTZ-JKFIT
  @DF-RHF Final Energy:  -958.07921726575694
    Total Energy =                       -958.0792172657569381
  Basis Set: (AUG-CC-PVTZ AUX)
    Blend: AUG-CC-PVTZ-RI
	 Reference Energy          =    -958.0792172657569381 [Eh]
	 Singles Energy            =      -0.0000000000000000 [Eh]
	 Same-Spin Energy          =      -0.1623269418905603 [Eh]
	 Opposite-Spin Energy      =      -0.4944167001674705 [Eh]
	 Correlation Energy        =      -0.6567436420580308 [Eh]
	 Total Energy              =    -958.7359609078149560 [Eh]
	 SCS Total Energy          =    -958.7266262865880435 [Eh]
    Molecular point group: c1
  Basis Set: AUG-CC-PVQZ
    Blend: AUG-CC-PVQZ
  Basis Set: (AUG-CC-PVQZ AUX)
    Blend: AUG-CC-PVQZ-JKFIT
  @DF-RHF Final Energy:  -958.08893871443604
    Total Energy =                       -958.0889387144360398
  Basis Set: (AUG-CC-PVQZ AUX)
  @DF-RHF Final Energy:  -958.07936233945054
    Total Energy =                       -958.0793623394504266
  @DF-RHF Final Energy:  -958.08898660892089
    Total Energy =                       -958.0889866089210045
  @DF-RHF Final Energy:  -958.07941874494315
    Total Energy =                       -958.0794187449430410
  @DF-RHF Final Energy:  -958.08897637224391
    Total Energy =                       -958.0889763722439056
  @DF-RHF Final Energy:  -958.07921032426714
    Total Energy =                       -958.0792103242671374
  @DF-RHF Final Energy:  -958.08892463182451
    Total Energy =                       -958.0889246318245114
  @DF-RHF Final Energy: -1916.09566979765918
    Total Energy =                      -1916.0956697976591840
  @DF-RHF Final Energy: -1916.11496658483293
    Total Energy =                      -1916.1149665848329278
*** Psi4 exiting successfully. Buy a developer a beer!
                               Psi4 1.4a2.dev224
  @DF-RHF Final Energy:  -958.07921726581674
    Total Energy =                       -958.0792172658166237
  @DF-RHF Final Energy:  -958.08893871433736
    Total Energy =                       -958.0889387143373597
  @DF-RHF Final Energy:  -958.07931454655443
    Total Energy =                       -958.0793145465544285
  @DF-RHF Final Energy:  -958.08897331078754
    Total Energy =                       -958.0889733107875372
  @DF-RHF Final Energy:  -958.07936972555501
    Total Energy =                       -958.0793697255548977
  @DF-RHF Final Energy:  -958.08896084842740
    Total Energy =                       -958.0889608484274049
  @DF-RHF Final Energy:  -958.07921032424440
    Total Energy =                       -958.0792103242445137
  @DF-RHF Final Energy:  -958.08892463191523
    Total Energy =                       -958.0889246319152335
  @DF-RHF Final Energy: -1916.14160248676808
    Total Energy =                      -1916.1416024867680790
  @DF-RHF Final Energy: -1916.16087735554447
    Total Energy =                      -1916.1608773555444714
*** Psi4 exiting successfully. Buy a developer a beer!
                               Psi4 1.4a2.dev224
                               Psi4 1.4a2.dev224
                               Psi4 1.4a2.dev224
                               Psi4 1.4a2.dev224
                               Psi4 1.4a2.dev224
                               Psi4 1.4a2.dev224
                               Psi4 1.4a2.dev224
  @DF-RHF Final Energy:  -958.07921727831638
    Total Energy =                       -958.0792172783162641
  @DF-RHF Final Energy:  -958.08893872827412
    Total Energy =                       -958.0889387282741154
  @DF-RHF Final Energy:  -958.07921984081509
    Total Energy =                       -958.0792198408150853
  @DF-RHF Final Energy:  -958.08894047382375
    Total Energy =                       -958.0889404738237545
  @DF-RHF Final Energy:  -958.07921633738363
    Total Energy =                       -958.0792163373836274
  @DF-RHF Final Energy:  -958.08892644029231
    Total Energy =                       -958.0889264402923118
  @DF-RHF Final Energy:  -958.07921037997346
    Total Energy =                       -958.0792103799734605
  @DF-RHF Final Energy:  -958.08892469006071
    Total Energy =                       -958.0889246900605940
  @DF-RHF Final Energy: -1916.15893969743820
    Total Energy =                      -1916.1589396974381998
  @DF-RHF Final Energy: -1916.17836371287990
    Total Energy =                      -1916.1783637128799000
*** Psi4 exiting successfully. Buy a developer a beer!
                               Psi4 1.4a2.dev224
  @DF-RHF Final Energy:  -958.07921720612831
    Total Energy =                       -958.0792172061283054
  @DF-RHF Final Energy:  -958.08893865311870
    Total Energy =                       -958.0889386531187029
  @DF-RHF Final Energy:  -958.07921812111715
    Total Energy =                       -958.0792181211171510
  @DF-RHF Final Energy:  -958.08893927206100
    Total Energy =                       -958.0889392720609976
  @DF-RHF Final Energy:  -958.07921181489348
    Total Energy =                       -958.0792118148934833
  @DF-RHF Final Energy:  -958.08892525445015
    Total Energy =                       -958.0889252544501460
  @DF-RHF Final Energy:  -958.07921038006407
    Total Energy =                       -958.0792103800640689
  @DF-RHF Final Energy:  -958.08892469005775
    Total Energy =                       -958.0889246900577518
  Multiplicity = 1
  @DF-RHF Final Energy: -1916.15871533505901
    Total Energy =                      -1916.1587153350590143
	 Singles Energy            =      -0.0000000000000000 [Eh]
	 Same-Spin Energy          =      -0.3246792375569495 [Eh]
	 Opposite-Spin Energy      =      -0.9888734374061298 [Eh]
	 Correlation Energy        =      -1.3135526749630793 [Eh]
	 Total Energy              =   -1917.4722680100221623 [Eh]
	 SCS Total Energy          =   -1917.4535898724652725 [Eh]
    Molecular point group: c1

    Geometry (in Angstrom), charge = 0, multiplicity = 1:

       Center              X                  Y                   Z               Mass
    ------------   -----------------  -----------------  -----------------  -----------------
         CL           0.349936532799     1.407872706564     4.002941606557    34.968852682000
         CL          -0.357603467201    -1.445327293436     4.000931606557    34.968852682000
         C           -0.008553467201    -0.018217293436     4.986901606557    12.000000000000
         H           -0.880933467201     0.197392706564     5.589481606557     1.007825032230
         H            0.857836532799    -0.233237293436     5.598241606557     1.007825032230
         CL          -0.351263467201    -1.407817293436    -4.360778393443    34.968852682000
         CL           0.351616532799     1.447552706564    -4.358398393443    34.968852682000
         C            0.024986532799     0.013112706564    -3.377498393443    12.000000000000
         H            0.905956532799    -0.205307293436    -2.789248393443     1.007825032230
         H           -0.824753467201     0.222792706564    -2.742228393443     1.007825032230

  Charge       = 0
  Multiplicity = 1
  Basis Set: AUG-CC-PVQZ
    Blend: AUG-CC-PVQZ
  Basis Set: (AUG-CC-PVQZ AUX)
    Blend: AUG-CC-PVQZ-JKFIT

    Orbital Energies [Eh]
    ---------------------

    Doubly Occupied:

       1A   -104.851320     2A   -104.851304     3A   -104.845625
       4A   -104.845600     5A    -11.367158     6A    -11.360868
       7A    -10.576951     8A    -10.576932     9A    -10.571259
      10A    -10.571229    11A     -8.044021    12A     -8.044003
      13A     -8.042217    14A     -8.042200    15A     -8.042126
      16A     -8.042109    17A     -8.038333    18A     -8.038303
      19A     -8.036528    20A     -8.036498    21A     -8.036436
      22A     -8.036407    23A     -1.196305    24A     -1.190689
      25A     -1.099896    26A     -1.094352    27A     -0.899953
      28A     -0.894309    29A     -0.681168    30A     -0.674320
      31A     -0.620384    32A     -0.615297    33A     -0.588972
      34A     -0.583455    35A     -0.477484    36A     -0.474912
      37A     -0.471817    38A     -0.469110    39A     -0.451302
      40A     -0.449962    41A     -0.445749    42A     -0.443915

  @DF-RHF Final Energy: -1916.17814651803565

   => Energetics <=

    Nuclear Repulsion Energy =            378.7241161260326976
    One-Electron Energy =               -3400.3629688176106356
    Two-Electron Energy =                1105.4607061735423486
    Total Energy =                      -1916.1781465180356463

  Dipole Moment: [D]
     X:     0.0372      Y:    -0.0114      Z:     3.7285     Total:     3.7287

  Basis Set: (AUG-CC-PVQZ AUX)
    Blend: AUG-CC-PVQZ-RI
	 Reference Energy          =   -1916.1781465180356463 [Eh]
	 Singles Energy            =      -0.0000000000000000 [Eh]
	 Same-Spin Energy          =      -0.3694802500774029 [Eh]
	 Opposite-Spin Energy      =      -1.1612481511043218 [Eh]
	 Correlation Energy        =      -1.5307284011817246 [Eh]
	 Total Energy              =   -1917.7088749192173509 [Eh]

	 ================> DF-SCS-MP2 Energies <==================
	-----------------------------------------------------------
	 SCS Same-Spin Scale       =       0.3333333333333333 [-]
	 SCS Opposite-Spin Scale   =       1.2000000000000000 [-]
	 SCS Same-Spin Energy      =      -0.1231600833591343 [Eh]
	 SCS Opposite-Spin Energy  =      -1.3934977813251861 [Eh]
	 SCS Correlation Energy    =      -1.5166578646843205 [Eh]
	 SCS Total Energy          =   -1917.6948043827198944 [Eh]
	-----------------------------------------------------------

*** Psi4 exiting successfully. Buy a developer a beer!
