                               Psi4 1.4a2.dev224

  ==> Input File <==

--------------------------------------------------------------------------
#Generated by lconvert.py for cbs job

memory 40 GB

molecule  {
0 1
 Br        0.3777210     1.5497260     1.4344090
 Br       -0.3930130    -1.5625820     1.4284190
  C       -0.0131690    -0.0070870     2.4857150
  H       -0.8857710     0.2079010     3.0873280
  H        0.8531130    -0.2227370     3.0961620
--
0 1
 Br       -0.3937640    -1.5498930    -1.6585890
 Br        0.3746230     1.5645980    -1.6558550
  C        0.0161550     0.0000960    -0.6063690
  H        0.8973270    -0.2178060    -0.0194680
  H       -0.8348540     0.2094990     0.0260830
units angstrom
no_reorient
symmetry c1
}

set {
scf_type DF
mp2_type DF
e_convergence 7
reference rhf
}

energy('mp2/aug-cc-pv[tq]z', bsse_type='cp')
--------------------------------------------------------------------------

    Molecular point group: c1
  Charge       = 0
  Multiplicity = 1
  Basis Set: AUG-CC-PVTZ
    Blend: AUG-CC-PVTZ
  Basis Set: (AUG-CC-PVTZ AUX)
    Blend: AUG-CC-PVTZ-JKFIT
  @DF-RHF Final Energy: -5183.96416451514779
    Total Energy =                      -5183.9641645151477860
  Basis Set: (AUG-CC-PVTZ AUX)
    Blend: AUG-CC-PVTZ-RI
	 Reference Energy          =   -5183.9641645151477860 [Eh]
	 Singles Energy            =      -0.0000000000000000 [Eh]
	 Same-Spin Energy          =      -0.2177133539590562 [Eh]
	 Opposite-Spin Energy      =      -0.5531542954588543 [Eh]
	 Correlation Energy        =      -0.7708676494179105 [Eh]
	 Total Energy              =   -5184.7350321645653821 [Eh]
	 SCS Total Energy          =   -5184.7005207876845816 [Eh]
    Molecular point group: c1
  Basis Set: AUG-CC-PVQZ
    Blend: AUG-CC-PVQZ
  Basis Set: (AUG-CC-PVQZ AUX)
    Blend: AUG-CC-PVQZ-JKFIT
  @DF-RHF Final Energy: -5183.97200074933698
    Total Energy =                      -5183.9720007493360754
  Basis Set: (AUG-CC-PVQZ AUX)
  @DF-RHF Final Energy: -5183.96431379378919
    Total Energy =                      -5183.9643137937891879
  @DF-RHF Final Energy: -5183.97203804311448
    Total Energy =                      -5183.9720380431153899
  @DF-RHF Final Energy: -5183.96432584128706
    Total Energy =                      -5183.9643258412861542
  @DF-RHF Final Energy: -5183.97201781527201
    Total Energy =                      -5183.9720178152720109
  @DF-RHF Final Energy: -5183.96415531362254
    Total Energy =                      -5183.9641553136234506
  @DF-RHF Final Energy: -5183.97198705062056
    Total Energy =                      -5183.9719870506214647
  Multiplicity = 1
  @DF-RHF Final Energy: -10367.83394954951109
    Total Energy =                     -10367.8339495495110896
	 Singles Energy            =      -0.0000000000000000 [Eh]
	 Same-Spin Energy          =      -0.4635584112552367 [Eh]
	 Opposite-Spin Energy      =      -1.1444304569309871 [Eh]
	 Correlation Energy        =      -1.6079888681862238 [Eh]
	 Total Energy              =  -10369.4419384176981112 [Eh]
	 SCS Total Energy          =  -10369.3617855682459776 [Eh]
    Molecular point group: c1

    Geometry (in Angstrom), charge = 0, multiplicity = 1:

       Center              X                  Y                   Z               Mass
    ------------   -----------------  -----------------  -----------------  -----------------
         BR           0.385435515387     1.549613391947     1.454339161468    78.918337600000
         BR          -0.385298484613    -1.562694608053     1.448349161468    78.918337600000
         C           -0.005454484613    -0.007199608053     2.505645161468    12.000000000000
         H           -0.878056484613     0.207788391947     3.107258161468     1.007825032230
         H            0.860827515387    -0.222849608053     3.116092161468     1.007825032230
         BR          -0.386049484613    -1.550005608053    -1.638658838532    78.918337600000
         BR           0.382337515387     1.564485391947    -1.635924838532    78.918337600000
         C            0.023869515387    -0.000016608053    -0.586438838532    12.000000000000
         H            0.905041515387    -0.217918608053     0.000462161468     1.007825032230
         H           -0.827139484613     0.209386391947     0.046013161468     1.007825032230

  Charge       = 0
  Multiplicity = 1
  Basis Set: AUG-CC-PVQZ
    Blend: AUG-CC-PVQZ
  Basis Set: (AUG-CC-PVQZ AUX)
    Blend: AUG-CC-PVQZ-JKFIT

    Orbital Energies [Eh]
    ---------------------

    Doubly Occupied:

       1A   -490.040932     2A   -490.040916     3A   -490.020983
       4A   -490.020553     5A    -65.182338     6A    -65.182332
       7A    -65.161733     8A    -65.161314     9A    -58.537650
      10A    -58.537648    11A    -58.536091    12A    -58.536086
      13A    -58.536069    14A    -58.536065    15A    -58.517107
      16A    -58.516686    17A    -58.515667    18A    -58.515657
      19A    -58.515249    20A    -58.515237    21A    -11.359728
      22A    -11.339481    23A     -9.856851    24A     -9.856819
      25A     -9.835416    26A     -9.835008    27A     -7.468406
      28A     -7.468382    29A     -7.461748    30A     -7.461707
      31A     -7.461380    32A     -7.461347    33A     -7.446986
      34A     -7.446574    35A     -7.440325    36A     -7.440304
      37A     -7.439920    38A     -7.439904    39A     -3.212239
      40A     -3.212200    41A     -3.208513    42A     -3.208485
      43A     -3.208429    44A     -3.208402    45A     -3.199450
      46A     -3.199411    47A     -3.199411    48A     -3.199373
      49A     -3.190667    50A     -3.190251    51A     -3.187100
      52A     -3.187035    53A     -3.186692    54A     -3.186620
      55A     -3.178433    56A     -3.178411    57A     -3.178034
      58A     -3.178012    59A     -1.155499    60A     -1.103483
      61A     -1.039470    62A     -0.999511    63A     -0.908071
      64A     -0.859308    65A     -0.686154    66A     -0.656686
      67A     -0.606838    68A     -0.579880    69A     -0.571970
      70A     -0.522403    71A     -0.452830    72A     -0.429311
      73A     -0.427537    74A     -0.422992    75A     -0.415442
      76A     -0.402918    77A     -0.397442    78A     -0.385198

  @DF-RHF Final Energy: -10367.84946036628935

   => Energetics <=

    Nuclear Repulsion Energy =           1612.1404855461867101
    One-Electron Energy =              -17656.8464489556936314
    Two-Electron Energy =                5676.8565030432173444
    Total Energy =                     -10367.8494603662911686

  Dipole Moment: [D]
     X:     0.0348      Y:    -0.0131      Z:     3.5435     Total:     3.5436

  Basis Set: (AUG-CC-PVQZ AUX)
    Blend: AUG-CC-PVQZ-RI
	 Reference Energy          =  -10367.8494603662893496 [Eh]
	 Singles Energy            =      -0.0000000000000000 [Eh]
	 Same-Spin Energy          =      -0.5959317198760469 [Eh]
	 Opposite-Spin Energy      =      -1.4618088868340595 [Eh]
	 Correlation Energy        =      -2.0577406067101065 [Eh]
	 Total Energy              =  -10369.9072009729989077 [Eh]

	 ================> DF-SCS-MP2 Energies <==================
	-----------------------------------------------------------
	 SCS Same-Spin Scale       =       0.3333333333333333 [-]
	 SCS Opposite-Spin Scale   =       1.2000000000000000 [-]
	 SCS Same-Spin Energy      =      -0.1986439066253489 [Eh]
	 SCS Opposite-Spin Energy  =      -1.7541706642008714 [Eh]
	 SCS Correlation Energy    =      -1.9528145708262203 [Eh]
	 SCS Total Energy          =  -10369.8022749371157261 [Eh]
	-----------------------------------------------------------

*** Psi4 exiting successfully. Buy a developer a beer!
