                               Psi4 1.4a2.dev224

  ==> Input File <==

--------------------------------------------------------------------------
#Generated by lconvert.py for cbs job

memory 40 GB

molecule  {
0 1
 Br        0.3777210     1.5497260     1.4344090
 Br       -0.3930130    -1.5625820     1.4284190
  C       -0.0131690    -0.0070870     2.4857150
  H       -0.8857710     0.2079010     3.0873280
  H        0.8531130    -0.2227370     3.0961620
--
0 1
 Br       -0.3934180    -1.5442360    -2.9821560
 Br        0.3749690     1.5702550    -2.9794220
  C        0.0165010     0.0057530    -1.9299360
  H        0.8976730    -0.2121490    -1.3430350
  H       -0.8345080     0.2151560    -1.2974840
units angstrom
no_reorient
symmetry c1
}

set {
scf_type DF
mp2_type DF
e_convergence 7
reference rhf
}

energy('mp2/aug-cc-pv[tq]z', bsse_type='cp')
--------------------------------------------------------------------------

    Molecular point group: c1
  Charge       = 0
  Multiplicity = 1
  Basis Set: AUG-CC-PVTZ
    Blend: AUG-CC-PVTZ
  Basis Set: (AUG-CC-PVTZ AUX)
    Blend: AUG-CC-PVTZ-JKFIT
  @DF-RHF Final Energy: -5183.96416451498408
    Total Energy =                      -5183.9641645149840770
  Basis Set: (AUG-CC-PVTZ AUX)
    Blend: AUG-CC-PVTZ-RI
	 Reference Energy          =   -5183.9641645149840770 [Eh]
	 Singles Energy            =      -0.0000000000000000 [Eh]
	 Same-Spin Energy          =      -0.2177133539578864 [Eh]
	 Opposite-Spin Energy      =      -0.5531542954550269 [Eh]
	 Correlation Energy        =      -0.7708676494129133 [Eh]
	 Total Energy              =   -5184.7350321643971256 [Eh]
	 SCS Total Energy          =   -5184.7005207875163251 [Eh]
    Molecular point group: c1
  Basis Set: AUG-CC-PVQZ
    Blend: AUG-CC-PVQZ
  Basis Set: (AUG-CC-PVQZ AUX)
    Blend: AUG-CC-PVQZ-JKFIT
  @DF-RHF Final Energy: -5183.97200074944612
    Total Energy =                      -5183.9720007494461242
  Basis Set: (AUG-CC-PVQZ AUX)
  @DF-RHF Final Energy: -5183.96421874060798
    Total Energy =                      -5183.9642187406088851
  @DF-RHF Final Energy: -5183.97201319921714
    Total Energy =                      -5183.9720131992171446
  @DF-RHF Final Energy: -5183.96422367406285
    Total Energy =                      -5183.9642236740628505
  @DF-RHF Final Energy: -5183.97199858907516
    Total Energy =                      -5183.9719985890760654
  @DF-RHF Final Energy: -5183.96415531340426
    Total Energy =                      -5183.9641553134042624
  @DF-RHF Final Energy: -5183.97198705110077
    Total Energy =                      -5183.9719870511016779
  Multiplicity = 1
  @DF-RHF Final Energy: -10367.92760818993702
    Total Energy =                     -10367.9276081899370183
	 Singles Energy            =      -0.0000000000000000 [Eh]
	 Same-Spin Energy          =      -0.4406526123334883 [Eh]
	 Opposite-Spin Energy      =      -1.1143571672079824 [Eh]
	 Correlation Energy        =      -1.5550097795414708 [Eh]
	 Total Energy              =  -10369.4826179694791790 [Eh]
	 SCS Total Energy          =  -10369.4117209946980438 [Eh]
    Molecular point group: c1

    Geometry (in Angstrom), charge = 0, multiplicity = 1:

       Center              X                  Y                   Z               Mass
    ------------   -----------------  -----------------  -----------------  -----------------
         BR           0.385262515387     1.546784891947     2.116122661468    78.918337600000
         BR          -0.385471484613    -1.565523108053     2.110132661468    78.918337600000
         C           -0.005627484613    -0.010028108053     3.167428661468    12.000000000000
         H           -0.878229484613     0.204959891947     3.769041661468     1.007825032230
         H            0.860654515387    -0.225678108053     3.777875661468     1.007825032230
         BR          -0.385876484613    -1.547177108053    -2.300442338532    78.918337600000
         BR           0.382510515387     1.567313891947    -2.297708338532    78.918337600000
         C            0.024042515387     0.002811891947    -1.248222338532    12.000000000000
         H            0.905214515387    -0.215090108053    -0.661321338532     1.007825032230
         H           -0.826966484613     0.212214891947    -0.615770338532     1.007825032230

  Charge       = 0
  Multiplicity = 1
  Basis Set: AUG-CC-PVQZ
    Blend: AUG-CC-PVQZ
  Basis Set: (AUG-CC-PVQZ AUX)
    Blend: AUG-CC-PVQZ-JKFIT

    Orbital Energies [Eh]
    ---------------------

    Doubly Occupied:

       1A   -490.044557     2A   -490.044516     3A   -490.026186
       4A   -490.026153     5A    -65.185030     6A    -65.184987
       7A    -65.166637     8A    -65.166603     9A    -58.540476
      10A    -58.540433    11A    -58.538955    12A    -58.538926
      13A    -58.538911    14A    -58.538882    15A    -58.522070
      16A    -58.522037    17A    -58.520587    18A    -58.520554
      19A    -58.520552    20A    -58.520518    21A    -11.362929
      22A    -11.342788    23A     -9.858444    24A     -9.858399
      25A     -9.840011    26A     -9.839978    27A     -7.470147
      28A     -7.470102    29A     -7.463269    30A     -7.463222
      31A     -7.463095    32A     -7.463048    33A     -7.451679
      34A     -7.451645    35A     -7.444876    36A     -7.444842
      37A     -7.444714    38A     -7.444681    39A     -3.213922
      40A     -3.213870    41A     -3.210285    42A     -3.210241
      43A     -3.210116    44A     -3.210070    45A     -3.201176
      46A     -3.201175    47A     -3.201128    48A     -3.201127
      49A     -3.195426    50A     -3.195383    51A     -3.191828
      52A     -3.191794    53A     -3.191665    54A     -3.191632
      55A     -3.182836    56A     -3.182835    57A     -3.182802
      58A     -3.182802    59A     -1.130639    60A     -1.111342
      61A     -1.024534    62A     -1.005930    63A     -0.886431
      64A     -0.866103    65A     -0.673157    66A     -0.652761
      67A     -0.588201    68A     -0.570563    69A     -0.550655
      70A     -0.530848    71A     -0.442389    72A     -0.440807
      73A     -0.426043    74A     -0.423718    75A     -0.422476
      76A     -0.418087    77A     -0.406737    78A     -0.398153

  @DF-RHF Final Energy: -10367.94316854319550

   => Energetics <=

    Nuclear Repulsion Energy =           1380.1090523330547057
    One-Electron Energy =              -17192.6702034353438648
    Two-Electron Energy =                5444.6179825590925248
    Total Energy =                     -10367.9431685431954975

  Dipole Moment: [D]
     X:     0.0304      Y:    -0.0155      Z:     3.7780     Total:     3.7782

  Basis Set: (AUG-CC-PVQZ AUX)
    Blend: AUG-CC-PVQZ-RI
	 Reference Energy          =  -10367.9431685431954975 [Eh]
	 Singles Energy            =      -0.0000000000000000 [Eh]
	 Same-Spin Energy          =      -0.5733446688071833 [Eh]
	 Opposite-Spin Energy      =      -1.4333774706455709 [Eh]
	 Correlation Energy        =      -2.0067221394527541 [Eh]
	 Total Energy              =  -10369.9498906826484017 [Eh]

	 ================> DF-SCS-MP2 Energies <==================
	-----------------------------------------------------------
	 SCS Same-Spin Scale       =       0.3333333333333333 [-]
	 SCS Opposite-Spin Scale   =       1.2000000000000000 [-]
	 SCS Same-Spin Energy      =      -0.1911148896023944 [Eh]
	 SCS Opposite-Spin Energy  =      -1.7200529647746849 [Eh]
	 SCS Correlation Energy    =      -1.9111678543770794 [Eh]
	 SCS Total Energy          =  -10369.8543363975732063 [Eh]
	-----------------------------------------------------------

*** Psi4 exiting successfully. Buy a developer a beer!
