                               Psi4 1.4a2.dev224

  ==> Input File <==

--------------------------------------------------------------------------
#Generated by lconvert.py for cbs job

memory 40 GB

molecule  {
0 1
 Br        0.3777210     1.5497260     1.4344090
 Br       -0.3930130    -1.5625820     1.4284190
  C       -0.0131690    -0.0070870     2.4857150
  H       -0.8857710     0.2079010     3.0873280
  H        0.8531130    -0.2227370     3.0961620
--
0 1
 Br       -0.3933670    -1.5434050    -3.1766350
 Br        0.3750200     1.5710860    -3.1739010
  C        0.0165520     0.0065840    -2.1244150
  H        0.8977240    -0.2113180    -1.5375140
  H       -0.8344570     0.2159870    -1.4919630
units angstrom
no_reorient
symmetry c1
}

set {
scf_type DF
mp2_type DF
e_convergence 7
reference rhf
}

energy('mp2/aug-cc-pv[tq]z', bsse_type='cp')
--------------------------------------------------------------------------

    Molecular point group: c1
  Charge       = 0
  Multiplicity = 1
  Basis Set: AUG-CC-PVTZ
    Blend: AUG-CC-PVTZ
  Basis Set: (AUG-CC-PVTZ AUX)
    Blend: AUG-CC-PVTZ-JKFIT
  @DF-RHF Final Energy: -5183.96416451497862
    Total Energy =                      -5183.9641645149786200
  Basis Set: (AUG-CC-PVTZ AUX)
    Blend: AUG-CC-PVTZ-RI
	 Reference Energy          =   -5183.9641645149786200 [Eh]
	 Singles Energy            =      -0.0000000000000000 [Eh]
	 Same-Spin Energy          =      -0.2177133539583094 [Eh]
	 Opposite-Spin Energy      =      -0.5531542954558311 [Eh]
	 Correlation Energy        =      -0.7708676494141404 [Eh]
	 Total Energy              =   -5184.7350321643925781 [Eh]
	 SCS Total Energy          =   -5184.7005207875117776 [Eh]
    Molecular point group: c1
  Basis Set: AUG-CC-PVQZ
    Blend: AUG-CC-PVQZ
  Basis Set: (AUG-CC-PVQZ AUX)
    Blend: AUG-CC-PVQZ-JKFIT
  @DF-RHF Final Energy: -5183.97200074930697
    Total Energy =                      -5183.9720007493069716
  Basis Set: (AUG-CC-PVQZ AUX)
  @DF-RHF Final Energy: -5183.96421052147434
    Total Energy =                      -5183.9642105214734329
  @DF-RHF Final Energy: -5183.97201120454156
    Total Energy =                      -5183.9720112045406495
  @DF-RHF Final Energy: -5183.96421524452944
    Total Energy =                      -5183.9642152445303509
  @DF-RHF Final Energy: -5183.97199731302953
    Total Energy =                      -5183.9719973130286235
  @DF-RHF Final Energy: -5183.96415531200273
    Total Energy =                      -5183.9641553120027311
  @DF-RHF Final Energy: -5183.97198705157643
    Total Energy =                      -5183.9719870515764342
  Multiplicity = 1
  @DF-RHF Final Energy: -10367.92866549527571
    Total Energy =                     -10367.9286654952738900
	 Singles Energy            =      -0.0000000000000000 [Eh]
	 Same-Spin Energy          =      -0.4395798870524301 [Eh]
	 Opposite-Spin Energy      =      -1.1127883772927176 [Eh]
	 Correlation Energy        =      -1.5523682643451477 [Eh]
	 Total Energy              =  -10369.4810337596209138 [Eh]
	 SCS Total Energy          =  -10369.4105381770441454 [Eh]
    Molecular point group: c1

    Geometry (in Angstrom), charge = 0, multiplicity = 1:

       Center              X                  Y                   Z               Mass
    ------------   -----------------  -----------------  -----------------  -----------------
         BR           0.385237015387     1.546369391947     2.213362161468    78.918337600000
         BR          -0.385496984613    -1.565938608053     2.207372161468    78.918337600000
         C           -0.005652984613    -0.010443608053     3.264668161468    12.000000000000
         H           -0.878254984613     0.204544391947     3.866281161468     1.007825032230
         H            0.860629015387    -0.226093608053     3.875115161468     1.007825032230
         BR          -0.385850984613    -1.546761608053    -2.397681838532    78.918337600000
         BR           0.382536015387     1.567729391947    -2.394947838532    78.918337600000
         C            0.024068015387     0.003227391947    -1.345461838532    12.000000000000
         H            0.905240015387    -0.214674608053    -0.758560838532     1.007825032230
         H           -0.826940984613     0.212630391947    -0.713009838532     1.007825032230

  Charge       = 0
  Multiplicity = 1
  Basis Set: AUG-CC-PVQZ
    Blend: AUG-CC-PVQZ
  Basis Set: (AUG-CC-PVQZ AUX)
    Blend: AUG-CC-PVQZ-JKFIT

    Orbital Energies [Eh]
    ---------------------

    Doubly Occupied:

       1A   -490.044129     2A   -490.044087     3A   -490.026777
       4A   -490.026753     5A    -65.184581     6A    -65.184537
       7A    -65.167223     8A    -65.167199     9A    -58.540028
      10A    -58.539984    11A    -58.538511    12A    -58.538478
      13A    -58.538467    14A    -58.538434    15A    -58.522659
      16A    -58.522635    17A    -58.521172    18A    -58.521147
      19A    -58.521136    20A    -58.521111    21A    -11.362491
      22A    -11.343709    23A     -9.857973    24A     -9.857927
      25A     -9.840593    26A     -9.840569    27A     -7.469675
      28A     -7.469630    29A     -7.462801    30A     -7.462754
      31A     -7.462619    32A     -7.462571    33A     -7.452269
      34A     -7.452245    35A     -7.445451    36A     -7.445426
      37A     -7.445287    38A     -7.445263    39A     -3.213450
      40A     -3.213399    41A     -3.209823    42A     -3.209778
      43A     -3.209637    44A     -3.209592    45A     -3.200707
      46A     -3.200707    47A     -3.200659    48A     -3.200659
      49A     -3.196023    50A     -3.195987    51A     -3.192417
      52A     -3.192393    53A     -3.192251    54A     -3.192228
      55A     -3.183402    56A     -3.183401    57A     -3.183377
      58A     -3.183376    59A     -1.129925    60A     -1.111974
      61A     -1.023844    62A     -1.006481    63A     -0.885560
      64A     -0.866869    65A     -0.672620    66A     -0.653428
      67A     -0.587492    68A     -0.570727    69A     -0.549708
      70A     -0.531657    71A     -0.442446    72A     -0.440127
      73A     -0.425332    74A     -0.424280    75A     -0.423021
      76A     -0.417059    77A     -0.407369    78A     -0.398829

  @DF-RHF Final Energy: -10367.94423922481838

   => Energetics <=

    Nuclear Repulsion Energy =           1355.3460370038294514
    One-Electron Energy =              -17143.1399350454121304
    Two-Electron Energy =                5419.8496588167636219
    Total Energy =                     -10367.9442392248183751

  Dipole Moment: [D]
     X:     0.0305      Y:    -0.0154      Z:     3.7562     Total:     3.7563

  Basis Set: (AUG-CC-PVQZ AUX)
    Blend: AUG-CC-PVQZ-RI
	 Reference Energy          =  -10367.9442392248183751 [Eh]
	 Singles Energy            =      -0.0000000000000000 [Eh]
	 Same-Spin Energy          =      -0.5723011631404875 [Eh]
	 Opposite-Spin Energy      =      -1.4319668641575944 [Eh]
	 Correlation Energy        =      -2.0042680272980817 [Eh]
	 Total Energy              =  -10369.9485072521165421 [Eh]

	 ================> DF-SCS-MP2 Energies <==================
	-----------------------------------------------------------
	 SCS Same-Spin Scale       =       0.3333333333333333 [-]
	 SCS Opposite-Spin Scale   =       1.2000000000000000 [-]
	 SCS Same-Spin Energy      =      -0.1907670543801625 [Eh]
	 SCS Opposite-Spin Energy  =      -1.7183602369891133 [Eh]
	 SCS Correlation Energy    =      -1.9091272913692758 [Eh]
	 SCS Total Energy          =  -10369.8533665161885438 [Eh]
	-----------------------------------------------------------

*** Psi4 exiting successfully. Buy a developer a beer!
