                               Psi4 1.4a2.dev224

  ==> Input File <==

--------------------------------------------------------------------------
#Generated by lconvert.py for cbs job

memory 20 GB

molecule  {
0 1
 Br       0.377720    1.549730    1.434410
 Br      -0.393010   -1.562580    1.428420
  C      -0.013170   -0.007090    2.485710
  H      -0.885770    0.207900    3.087330
  H       0.853110   -0.222740    3.096160
--
0 1
 Br      -0.393060   -1.538420   -4.343690
 Br       0.375320    1.576070   -4.340960
  C       0.016860    0.011570   -3.291470
  H       0.898030   -0.206330   -2.704570
  H      -0.834150    0.220980   -2.659020
units angstrom
no_reorient
symmetry c1
}

set {
scf_type DF
mp2_type DF
e_convergence 7
reference rhf
}

energy('mp2/aug-cc-pv[tq]z', bsse_type='cp')
--------------------------------------------------------------------------

    Molecular point group: c1
  Charge       = 0
  Multiplicity = 1
  Basis Set: AUG-CC-PVTZ
    Blend: AUG-CC-PVTZ
  Basis Set: (AUG-CC-PVTZ AUX)
    Blend: AUG-CC-PVTZ-JKFIT
  @DF-RHF Final Energy: -5183.96416453423990
    Total Energy =                      -5183.9641645342398988
  Basis Set: (AUG-CC-PVTZ AUX)
    Blend: AUG-CC-PVTZ-RI
	 Reference Energy          =   -5183.9641645342398988 [Eh]
	 Singles Energy            =      -0.0000000000000000 [Eh]
	 Same-Spin Energy          =      -0.2177133574661864 [Eh]
	 Opposite-Spin Energy      =      -0.5531542896817201 [Eh]
	 Correlation Energy        =      -0.7708676471479066 [Eh]
	 Total Energy              =   -5184.7350321813873961 [Eh]
	 SCS Total Energy          =   -5184.7005208010132264 [Eh]
    Molecular point group: c1
  Basis Set: AUG-CC-PVQZ
    Blend: AUG-CC-PVQZ
  Basis Set: (AUG-CC-PVQZ AUX)
    Blend: AUG-CC-PVQZ-JKFIT
  @DF-RHF Final Energy: -5183.97200076878653
    Total Energy =                      -5183.9720007687865291
  Basis Set: (AUG-CC-PVQZ AUX)
  @DF-RHF Final Energy: -5183.96417622191984
    Total Energy =                      -5183.9641762219198426
  @DF-RHF Final Energy: -5183.97200552921095
    Total Energy =                      -5183.9720055292109464
  @DF-RHF Final Energy: -5183.96418032860220
    Total Energy =                      -5183.9641803286021968
  @DF-RHF Final Energy: -5183.97199226231896
    Total Energy =                      -5183.9719922623189632
  @DF-RHF Final Energy: -5183.96415525484827
    Total Energy =                      -5183.9641552548482650
  @DF-RHF Final Energy: -5183.97198700236822
    Total Energy =                      -5183.9719870023682233
  Multiplicity = 1
  @DF-RHF Final Energy: -10367.92928890197072
    Total Energy =                     -10367.9292889019707218
	 Singles Energy            =      -0.0000000000000000 [Eh]
	 Same-Spin Energy          =      -0.4365637988981196 [Eh]
	 Opposite-Spin Energy      =      -1.1081546372137467 [Eh]
	 Correlation Energy        =      -1.5447184361118662 [Eh]
	 Total Energy              =  -10369.4740073380817194 [Eh]
	 SCS Total Energy          =  -10369.4045957329271914 [Eh]
    Molecular point group: c1

    Geometry (in Angstrom), charge = 0, multiplicity = 1:

       Center              X                  Y                   Z               Mass
    ------------   -----------------  -----------------  -----------------  -----------------
         BR           0.385083672239     1.543879793194     2.796891304055    78.918337600000
         BR          -0.385646327761    -1.568430206806     2.790901304055    78.918337600000
         C           -0.005806327761    -0.012940206806     3.848191304055    12.000000000000
         H           -0.878406327761     0.202049793194     4.449811304055     1.007825032230
         H            0.860473672239    -0.228590206806     4.458641304055     1.007825032230
         BR          -0.385696327761    -1.544270206806    -2.981208695945    78.918337600000
         BR           0.382683672239     1.570219793194    -2.978478695945    78.918337600000
         C            0.024223672239     0.005719793194    -1.928988695945    12.000000000000
         H            0.905393672239    -0.212180206806    -1.342088695945     1.007825032230
         H           -0.826786327761     0.215129793194    -1.296538695945     1.007825032230

  Charge       = 0
  Multiplicity = 1
  Basis Set: AUG-CC-PVQZ
    Blend: AUG-CC-PVQZ
  Basis Set: (AUG-CC-PVQZ AUX)
    Blend: AUG-CC-PVQZ-JKFIT

    Orbital Energies [Eh]
    ---------------------

    Doubly Occupied:

       1A   -490.040995     2A   -490.040970     3A   -490.029438
       4A   -490.029430     5A    -65.181418     6A    -65.181393
       7A    -65.169870     8A    -65.169861     9A    -58.536866
      10A    -58.536841    11A    -58.535356    12A    -58.535331
      13A    -58.535318    14A    -58.535292    15A    -58.525314
      16A    -58.525306    17A    -58.523812    18A    -58.523804
      19A    -58.523775    20A    -58.523767    21A    -11.359853
      22A    -11.347573    23A     -9.854774    24A     -9.854748
      25A     -9.843230    26A     -9.843221    27A     -7.466482
      28A     -7.466456    29A     -7.459601    30A     -7.459574
      31A     -7.459416    32A     -7.459390    33A     -7.454934
      34A     -7.454925    35A     -7.448060    36A     -7.448052
      37A     -7.447895    38A     -7.447886    39A     -3.210259
      40A     -3.210222    41A     -3.206634    42A     -3.206608
      43A     -3.206438    44A     -3.206413    45A     -3.198707
      46A     -3.198679    47A     -3.197507    48A     -3.197507
      49A     -3.197480    50A     -3.197479    51A     -3.195073
      52A     -3.195064    53A     -3.194904    54A     -3.194896
      55A     -3.185984    56A     -3.185984    57A     -3.185975
      58A     -3.185974    59A     -1.126565    60A     -1.115004
      61A     -1.020394    62A     -1.009066    63A     -0.882141
      64A     -0.870361    65A     -0.669791    66A     -0.657056
      67A     -0.584272    68A     -0.573141    69A     -0.546137
      70A     -0.534795    71A     -0.439288    72A     -0.436751
      73A     -0.427091    74A     -0.425494    75A     -0.421829
      76A     -0.412853    77A     -0.410129    78A     -0.401493

  @DF-RHF Final Energy: -10367.94492105433164

   => Energetics <=

    Nuclear Repulsion Energy =           1237.2395980806581974
    One-Electron Energy =              -16906.9657232487552392
    Two-Electron Energy =                5301.7812041137658525
    Total Energy =                     -10367.9449210543316440

  Dipole Moment: [D]
     X:     0.0309      Y:    -0.0144      Z:     3.5944     Total:     3.5945

  Basis Set: (AUG-CC-PVQZ AUX)
    Blend: AUG-CC-PVQZ-RI
	 Reference Energy          =  -10367.9449210543316440 [Eh]
	 Singles Energy            =      -0.0000000000000000 [Eh]
	 Same-Spin Energy          =      -0.5694883869383884 [Eh]
	 Opposite-Spin Energy      =      -1.4280943780743462 [Eh]
	 Correlation Energy        =      -1.9975827650127347 [Eh]
	 Total Energy              =  -10369.9425038193439832 [Eh]

	 ================> DF-SCS-MP2 Energies <==================
	-----------------------------------------------------------
	 SCS Same-Spin Scale       =       0.3333333333333333 [-]
	 SCS Opposite-Spin Scale   =       1.2000000000000000 [-]
	 SCS Same-Spin Energy      =      -0.1898294623127961 [Eh]
	 SCS Opposite-Spin Energy  =      -1.7137132536892155 [Eh]
	 SCS Correlation Energy    =      -1.9035427160020115 [Eh]
	 SCS Total Energy          =  -10369.8484637703331828 [Eh]
	-----------------------------------------------------------

*** Psi4 exiting successfully. Buy a developer a beer!
