                               Psi4 1.4a2.dev224

  ==> Input File <==

--------------------------------------------------------------------------
#Generated by lconvert.py for cbs job

memory 20 GB

molecule  {
0 1
 Br       0.377720    1.549730    1.434410
 Br      -0.393010   -1.562580    1.428420
  C      -0.013170   -0.007090    2.485710
  H      -0.885770    0.207900    3.087330
  H       0.853110   -0.222740    3.096160
--
0 1
 Br      -0.392680   -1.532160   -5.807870
 Br       0.375710    1.582330   -5.805130
  C       0.017240    0.017830   -4.755650
  H       0.898410   -0.200070   -4.168750
  H      -0.833770    0.227230   -4.123200
units angstrom
no_reorient
symmetry c1
}

set {
scf_type DF
mp2_type DF
e_convergence 7
reference rhf
}

energy('mp2/aug-cc-pv[tq]z', bsse_type='cp')
--------------------------------------------------------------------------

    Molecular point group: c1
  Charge       = 0
  Multiplicity = 1
  Basis Set: AUG-CC-PVTZ
    Blend: AUG-CC-PVTZ
  Basis Set: (AUG-CC-PVTZ AUX)
    Blend: AUG-CC-PVTZ-JKFIT
  @DF-RHF Final Energy: -5183.96416454182508
    Total Energy =                      -5183.9641645418250846
  Basis Set: (AUG-CC-PVTZ AUX)
    Blend: AUG-CC-PVTZ-RI
	 Reference Energy          =   -5183.9641645418250846 [Eh]
	 Singles Energy            =      -0.0000000000000000 [Eh]
	 Same-Spin Energy          =      -0.2177133864194535 [Eh]
	 Opposite-Spin Energy      =      -0.5531542876841813 [Eh]
	 Correlation Energy        =      -0.7708676741036348 [Eh]
	 Total Energy              =   -5184.7350322159290954 [Eh]
	 SCS Total Energy          =   -5184.7005208158525420 [Eh]
    Molecular point group: c1
  Basis Set: AUG-CC-PVQZ
    Blend: AUG-CC-PVQZ
  Basis Set: (AUG-CC-PVQZ AUX)
    Blend: AUG-CC-PVQZ-JKFIT
  @DF-RHF Final Energy: -5183.97200078291462
    Total Energy =                      -5183.9720007829155293
  Basis Set: (AUG-CC-PVQZ AUX)
  @DF-RHF Final Energy: -5183.96416675700584
    Total Energy =                      -5183.9641667570058416
  @DF-RHF Final Energy: -5183.97200212808002
    Total Energy =                      -5183.9720021280800211
  @DF-RHF Final Energy: -5183.96416361814317
    Total Energy =                      -5183.9641636181440845
  @DF-RHF Final Energy: -5183.97198903305616
    Total Energy =                      -5183.9719890330561611
  @DF-RHF Final Energy: -5183.96415525608427
    Total Energy =                      -5183.9641552560842683
  @DF-RHF Final Energy: -5183.97198700261106
    Total Energy =                      -5183.9719870026110584
  Multiplicity = 1
  @DF-RHF Final Energy: -10367.92877869104632
    Total Energy =                     -10367.9287786910463183
	 Singles Energy            =      -0.0000000000000000 [Eh]
	 Same-Spin Energy          =      -0.4356853156015287 [Eh]
	 Opposite-Spin Energy      =      -1.1067201034467378 [Eh]
	 Correlation Energy        =      -1.5424054190482663 [Eh]
	 Total Energy              =  -10369.4711841100943275 [Eh]
	 SCS Total Energy          =  -10369.4020712537167128 [Eh]
    Molecular point group: c1

    Geometry (in Angstrom), charge = 0, multiplicity = 1:

       Center              X                  Y                   Z               Mass
    ------------   -----------------  -----------------  -----------------  -----------------
         BR           0.384891376130     1.540749822517     3.528979007946    78.918337600000
         BR          -0.385838623870    -1.571560177483     3.522989007946    78.918337600000
         C           -0.005998623870    -0.016070177483     4.580279007946    12.000000000000
         H           -0.878598623870     0.198919822517     5.181899007946     1.007825032230
         H            0.860281376130    -0.231720177483     5.190729007946     1.007825032230
         BR          -0.385508623870    -1.541140177483    -3.713300992054    78.918337600000
         BR           0.382881376130     1.573349822517    -3.710560992054    78.918337600000
         C            0.024411376130     0.008849822517    -2.661080992054    12.000000000000
         H            0.905581376130    -0.209050177483    -2.074180992054     1.007825032230
         H           -0.826598623870     0.218249822517    -2.028630992054     1.007825032230

  Charge       = 0
  Multiplicity = 1
  Basis Set: AUG-CC-PVQZ
    Blend: AUG-CC-PVQZ
  Basis Set: (AUG-CC-PVQZ AUX)
    Blend: AUG-CC-PVQZ-JKFIT

    Orbital Energies [Eh]
    ---------------------

    Doubly Occupied:

       1A   -490.038378     2A   -490.038370     3A   -490.031149
       4A   -490.031144     5A    -65.178801     6A    -65.178793
       7A    -65.171576     8A    -65.171571     9A    -58.534250
      10A    -58.534241    11A    -58.532739    12A    -58.532730
      13A    -58.532702    14A    -58.532693    15A    -58.527024
      16A    -58.527018    17A    -58.525515    18A    -58.525510
      19A    -58.525479    20A    -58.525473    21A    -11.357655
      22A    -11.349813    23A     -9.852155    24A     -9.852145
      25A     -9.844933    26A     -9.844926    27A     -7.463868
      28A     -7.463859    29A     -7.456974    30A     -7.456964
      31A     -7.456801    32A     -7.456791    33A     -7.456647
      34A     -7.456641    35A     -7.449752    36A     -7.449746
      37A     -7.449586    38A     -7.449580    39A     -3.207649
      40A     -3.207621    41A     -3.204011    42A     -3.204001
      43A     -3.203830    44A     -3.203821    45A     -3.200429
      46A     -3.200401    47A     -3.196783    48A     -3.196777
      49A     -3.196613    50A     -3.196607    51A     -3.194881
      52A     -3.194881    53A     -3.194871    54A     -3.194871
      55A     -3.187665    56A     -3.187664    57A     -3.187658
      58A     -3.187658    59A     -1.124077    60A     -1.116947
      61A     -1.017812    62A     -1.010763    63A     -0.879757
      64A     -0.872533    65A     -0.667572    66A     -0.659378
      67A     -0.581882    68A     -0.575146    69A     -0.543676
      70A     -0.536644    71A     -0.436369    72A     -0.434220
      73A     -0.428847    74A     -0.427118    75A     -0.419277
      76A     -0.411863    77A     -0.410157    78A     -0.403121

  @DF-RHF Final Energy: -10367.94443467409474

   => Energetics <=

    Nuclear Repulsion Energy =           1137.5921765341158789
    One-Electron Energy =              -16707.7335205493363901
    Two-Electron Energy =                5202.1969093411280483
    Total Energy =                     -10367.9444346740929177

  Dipole Moment: [D]
     X:     0.0314      Y:    -0.0136      Z:     3.4713     Total:     3.4715

  Basis Set: (AUG-CC-PVQZ AUX)
    Blend: AUG-CC-PVQZ-RI
	 Reference Energy          =  -10367.9444346740947367 [Eh]
	 Singles Energy            =      -0.0000000000000000 [Eh]
	 Same-Spin Energy          =      -0.5687617838585907 [Eh]
	 Opposite-Spin Energy      =      -1.4270758279126470 [Eh]
	 Correlation Energy        =      -1.9958376117712375 [Eh]
	 Total Energy              =  -10369.9402722858667403 [Eh]

	 ================> DF-SCS-MP2 Energies <==================
	-----------------------------------------------------------
	 SCS Same-Spin Scale       =       0.3333333333333333 [-]
	 SCS Opposite-Spin Scale   =       1.2000000000000000 [-]
	 SCS Same-Spin Energy      =      -0.1895872612861969 [Eh]
	 SCS Opposite-Spin Energy  =      -1.7124909934951764 [Eh]
	 SCS Correlation Energy    =      -1.9020782547813733 [Eh]
	 SCS Total Energy          =  -10369.8465129288761091 [Eh]
	-----------------------------------------------------------

*** Psi4 exiting successfully. Buy a developer a beer!
