                               Psi4 1.4a2.dev224

  ==> Input File <==

--------------------------------------------------------------------------
#Generated by lconvert.py for cbs job

memory 40 GB

molecule  {
0 1
 Br        0.3777210     1.5497260     1.4344090
 Br       -0.3930130    -1.5625820     1.4284190
  C       -0.0131690    -0.0070870     2.4857150
  H       -0.8857710     0.2079010     3.0873280
  H        0.8531130    -0.2227370     3.0961620
--
0 1
 Br       -0.3933170    -1.5425890    -3.3675780
 Br        0.3750700     1.5719020    -3.3648440
  C        0.0166020     0.0074000    -2.3153580
  H        0.8977740    -0.2105020    -1.7284570
  H       -0.8344070     0.2168030    -1.6829060
units angstrom
no_reorient
symmetry c1
}

set {
scf_type DF
mp2_type DF
e_convergence 7
reference rhf
}

energy('mp2/aug-cc-pv[tq]z', bsse_type='cp')
--------------------------------------------------------------------------

    Molecular point group: c1
  Charge       = 0
  Multiplicity = 1
  Basis Set: AUG-CC-PVTZ
    Blend: AUG-CC-PVTZ
  Basis Set: (AUG-CC-PVTZ AUX)
    Blend: AUG-CC-PVTZ-JKFIT
  @DF-RHF Final Energy: -5183.96416451419009
    Total Energy =                      -5183.9641645141891786
  Basis Set: (AUG-CC-PVTZ AUX)
    Blend: AUG-CC-PVTZ-RI
	 Reference Energy          =   -5183.9641645141900881 [Eh]
	 Singles Energy            =      -0.0000000000000000 [Eh]
	 Same-Spin Energy          =      -0.2177133539598419 [Eh]
	 Opposite-Spin Energy      =      -0.5531542954588524 [Eh]
	 Correlation Energy        =      -0.7708676494186943 [Eh]
	 Total Energy              =   -5184.7350321636085937 [Eh]
	 SCS Total Energy          =   -5184.7005207867268837 [Eh]
    Molecular point group: c1
  Basis Set: AUG-CC-PVQZ
    Blend: AUG-CC-PVQZ
  Basis Set: (AUG-CC-PVQZ AUX)
    Blend: AUG-CC-PVQZ-JKFIT
  @DF-RHF Final Energy: -5183.97200074917237
    Total Energy =                      -5183.9720007491714568
  Basis Set: (AUG-CC-PVQZ AUX)
  @DF-RHF Final Energy: -5183.96420287154433
    Total Energy =                      -5183.9642028715443303
  @DF-RHF Final Energy: -5183.97201002313795
    Total Energy =                      -5183.9720100231379547
  @DF-RHF Final Energy: -5183.96420883246265
    Total Energy =                      -5183.9642088324617362
  @DF-RHF Final Energy: -5183.97199628189173
    Total Energy =                      -5183.9719962818926433
  @DF-RHF Final Energy: -5183.96415531217099
    Total Energy =                      -5183.9641553121709876
  @DF-RHF Final Energy: -5183.97198704995844
    Total Energy =                      -5183.9719870499593526
  Multiplicity = 1
  @DF-RHF Final Energy: -10367.92918627249128
    Total Energy =                     -10367.9291862724894600
	 Singles Energy            =      -0.0000000000000000 [Eh]
	 Same-Spin Energy          =      -0.4387612435901718 [Eh]
	 Opposite-Spin Energy      =      -1.1115716819236015 [Eh]
	 Correlation Energy        =      -1.5503329255137732 [Eh]
	 Total Energy              =  -10369.4795191980047093 [Eh]
	 SCS Total Energy          =  -10369.4093260386634938 [Eh]
    Molecular point group: c1

    Geometry (in Angstrom), charge = 0, multiplicity = 1:

       Center              X                  Y                   Z               Mass
    ------------   -----------------  -----------------  -----------------  -----------------
         BR           0.385212015387     1.545961391947     2.308833661468    78.918337600000
         BR          -0.385521984613    -1.566346608053     2.302843661468    78.918337600000
         C           -0.005677984613    -0.010851608053     3.360139661468    12.000000000000
         H           -0.878279984613     0.204136391947     3.961752661468     1.007825032230
         H            0.860604015387    -0.226501608053     3.970586661468     1.007825032230
         BR          -0.385825984613    -1.546353608053    -2.493153338532    78.918337600000
         BR           0.382561015387     1.568137391947    -2.490419338532    78.918337600000
         C            0.024093015387     0.003635391947    -1.440933338532    12.000000000000
         H            0.905265015387    -0.214266608053    -0.854032338532     1.007825032230
         H           -0.826915984613     0.213038391947    -0.808481338532     1.007825032230

  Charge       = 0
  Multiplicity = 1
  Basis Set: AUG-CC-PVQZ
    Blend: AUG-CC-PVQZ
  Basis Set: (AUG-CC-PVQZ AUX)
    Blend: AUG-CC-PVQZ-JKFIT

    Orbital Energies [Eh]
    ---------------------

    Doubly Occupied:

       1A   -490.043632     2A   -490.043590     3A   -490.027318
       4A   -490.027300     5A    -65.184071     6A    -65.184028
       7A    -65.167760     8A    -65.167742     9A    -58.539518
      10A    -58.539476    11A    -58.538004    12A    -58.537969
      13A    -58.537961    14A    -58.537926    15A    -58.523198
      16A    -58.523180    17A    -58.521708    18A    -58.521689
      19A    -58.521671    20A    -58.521653    21A    -11.362038
      22A    -11.344534    23A     -9.857448    24A     -9.857404
      25A     -9.841128    26A     -9.841109    27A     -7.469151
      28A     -7.469108    29A     -7.462278    30A     -7.462233
      31A     -7.462091    32A     -7.462046    33A     -7.452811
      34A     -7.452793    35A     -7.445979    36A     -7.445960
      37A     -7.445814    38A     -7.445796    39A     -3.212926
      40A     -3.212876    41A     -3.209304    42A     -3.209261
      43A     -3.209109    44A     -3.209065    45A     -3.200184
      46A     -3.200184    47A     -3.200138    48A     -3.200137
      49A     -3.196570    50A     -3.196537    51A     -3.192957
      52A     -3.192938    53A     -3.192790    54A     -3.192772
      55A     -3.183923    56A     -3.183923    57A     -3.183904
      58A     -3.183903    59A     -1.129277    60A     -1.112574
      61A     -1.023195    62A     -1.006996    63A     -0.884837
      64A     -0.867575    65A     -0.672104    66A     -0.654115
      67A     -0.586863    68A     -0.571041    69A     -0.548936
      70A     -0.532348    71A     -0.442136    72A     -0.439489
      73A     -0.424836    74A     -0.424660    75A     -0.423521
      76A     -0.416161    77A     -0.407940    78A     -0.399409

  @DF-RHF Final Energy: -10367.94477215127699

   => Energetics <=

    Nuclear Repulsion Energy =           1332.6825525043725520
    One-Electron Energy =              -17097.8136033440387109
    Two-Electron Energy =                5397.1862786883903027
    Total Energy =                     -10367.9447721512751741

  Dipole Moment: [D]
     X:     0.0305      Y:    -0.0152      Z:     3.7303     Total:     3.7305

  Basis Set: (AUG-CC-PVQZ AUX)
    Blend: AUG-CC-PVQZ-RI
	 Reference Energy          =  -10367.9447721512769931 [Eh]
	 Singles Energy            =      -0.0000000000000000 [Eh]
	 Same-Spin Energy          =      -0.5715014151572915 [Eh]
	 Opposite-Spin Energy      =      -1.4308714453635432 [Eh]
	 Correlation Energy        =      -2.0023728605208344 [Eh]
	 Total Energy              =  -10369.9471450117980567 [Eh]

	 ================> DF-SCS-MP2 Energies <==================
	-----------------------------------------------------------
	 SCS Same-Spin Scale       =       0.3333333333333333 [-]
	 SCS Opposite-Spin Scale   =       1.2000000000000000 [-]
	 SCS Same-Spin Energy      =      -0.1905004717190971 [Eh]
	 SCS Opposite-Spin Energy  =      -1.7170457344362517 [Eh]
	 SCS Correlation Energy    =      -1.9075462061553490 [Eh]
	 SCS Total Energy          =  -10369.8523183574325230 [Eh]
	-----------------------------------------------------------

*** Psi4 exiting successfully. Buy a developer a beer!
