                               Psi4 1.4a2.dev224

  ==> Input File <==

--------------------------------------------------------------------------
#Generated by lconvert.py for cbs job

memory 40 GB

molecule  {
0 1
 Br        0.3777210     1.5497260     1.4344090
 Br       -0.3930130    -1.5625820     1.4284190
  C       -0.0131690    -0.0070870     2.4857150
  H       -0.8857710     0.2079010     3.0873280
  H        0.8531130    -0.2227370     3.0961620
--
0 1
 Br       -0.3934700    -1.5450860    -2.7833370
 Br        0.3749170     1.5694050    -2.7806030
  C        0.0164490     0.0049030    -1.7311170
  H        0.8976210    -0.2129990    -1.1442160
  H       -0.8345600     0.2143060    -1.0986650
units angstrom
no_reorient
symmetry c1
}

set {
scf_type DF
mp2_type DF
e_convergence 7
reference rhf
}

energy('mp2/aug-cc-pv[tq]z', bsse_type='cp')
--------------------------------------------------------------------------

    Molecular point group: c1
  Charge       = 0
  Multiplicity = 1
  Basis Set: AUG-CC-PVTZ
    Blend: AUG-CC-PVTZ
  Basis Set: (AUG-CC-PVTZ AUX)
    Blend: AUG-CC-PVTZ-JKFIT
  @DF-RHF Final Energy: -5183.96416451372988
    Total Energy =                      -5183.9641645137298838
  Basis Set: (AUG-CC-PVTZ AUX)
    Blend: AUG-CC-PVTZ-RI
	 Reference Energy          =   -5183.9641645137298838 [Eh]
	 Singles Energy            =      -0.0000000000000000 [Eh]
	 Same-Spin Energy          =      -0.2177133539596657 [Eh]
	 Opposite-Spin Energy      =      -0.5531542954586195 [Eh]
	 Correlation Energy        =      -0.7708676494182852 [Eh]
	 Total Energy              =   -5184.7350321631483894 [Eh]
	 SCS Total Energy          =   -5184.7005207862666794 [Eh]
    Molecular point group: c1
  Basis Set: AUG-CC-PVQZ
    Blend: AUG-CC-PVQZ
  Basis Set: (AUG-CC-PVQZ AUX)
    Blend: AUG-CC-PVQZ-JKFIT
  @DF-RHF Final Energy: -5183.97200074933062
    Total Energy =                      -5183.9720007493306184
  Basis Set: (AUG-CC-PVQZ AUX)
  @DF-RHF Final Energy: -5183.96422695560159
    Total Energy =                      -5183.9642269556006795
  @DF-RHF Final Energy: -5183.97201609459898
    Total Energy =                      -5183.9720160945980751
  @DF-RHF Final Energy: -5183.96423453115312
    Total Energy =                      -5183.9642345311531244
  @DF-RHF Final Energy: -5183.97200018754847
    Total Energy =                      -5183.9720001875484741
  @DF-RHF Final Energy: -5183.96415531279308
    Total Energy =                      -5183.9641553127930820
  @DF-RHF Final Energy: -5183.97198704936727
    Total Energy =                      -5183.9719870493681810
  Multiplicity = 1
  @DF-RHF Final Energy: -10367.92558719646149
    Total Energy =                     -10367.9255871964614926
	 Singles Energy            =      -0.0000000000000000 [Eh]
	 Same-Spin Energy          =      -0.4420805761352444 [Eh]
	 Opposite-Spin Energy      =      -1.1164062238093446 [Eh]
	 Correlation Energy        =      -1.5584867999445891 [Eh]
	 Total Energy              =  -10369.4840739964056411 [Eh]
	 SCS Total Energy          =  -10369.4126348570771370 [Eh]
    Molecular point group: c1

    Geometry (in Angstrom), charge = 0, multiplicity = 1:

       Center              X                  Y                   Z               Mass
    ------------   -----------------  -----------------  -----------------  -----------------
         BR           0.385288515387     1.547209891947     2.016713161468    78.918337600000
         BR          -0.385445484613    -1.565098108053     2.010723161468    78.918337600000
         C           -0.005601484613    -0.009603108053     3.068019161468    12.000000000000
         H           -0.878203484613     0.205384891947     3.669632161468     1.007825032230
         H            0.860680515387    -0.225253108053     3.678466161468     1.007825032230
         BR          -0.385902484613    -1.547602108053    -2.201032838532    78.918337600000
         BR           0.382484515387     1.566888891947    -2.198298838532    78.918337600000
         C            0.024016515387     0.002386891947    -1.148812838532    12.000000000000
         H            0.905188515387    -0.215515108053    -0.561911838532     1.007825032230
         H           -0.826992484613     0.211789891947    -0.516360838532     1.007825032230

  Charge       = 0
  Multiplicity = 1
  Basis Set: AUG-CC-PVQZ
    Blend: AUG-CC-PVQZ
  Basis Set: (AUG-CC-PVQZ AUX)
    Blend: AUG-CC-PVQZ-JKFIT

    Orbital Energies [Eh]
    ---------------------

    Doubly Occupied:

       1A   -490.044851     2A   -490.044815     3A   -490.025546
       4A   -490.025497     5A    -65.185360     6A    -65.185320
       7A    -65.166004     8A    -65.165956     9A    -58.540803
      10A    -58.540764    11A    -58.539277    12A    -58.539253
      13A    -58.539237    14A    -58.539213    15A    -58.521435
      16A    -58.521387    17A    -58.519956    18A    -58.519922
      19A    -58.519908    20A    -58.519874    21A    -11.363325
      22A    -11.341780    23A     -9.858810    24A     -9.858767
      25A     -9.839384    26A     -9.839337    27A     -7.470513
      28A     -7.470471    29A     -7.463631    30A     -7.463587
      31A     -7.463469    32A     -7.463423    33A     -7.451042
      34A     -7.450994    35A     -7.444258    36A     -7.444210
      37A     -7.444099    38A     -7.444052    39A     -3.214288
      40A     -3.214239    41A     -3.210637    42A     -3.210596
      43A     -3.210493    44A     -3.210450    45A     -3.201537
      46A     -3.201536    47A     -3.201491    48A     -3.201490
      49A     -3.194782    50A     -3.194727    51A     -3.191192
      52A     -3.191144    53A     -3.191034    54A     -3.190987
      55A     -3.182229    56A     -3.182228    57A     -3.182181
      58A     -3.182180    59A     -1.131465    60A     -1.110693
      61A     -1.025276    62A     -1.005349    63A     -0.887549
      64A     -0.865271    65A     -0.673718    66A     -0.652199
      67A     -0.589053    68A     -0.570639    69A     -0.551895
      70A     -0.529879    71A     -0.441647    72A     -0.441544
      73A     -0.426779    74A     -0.423205    75A     -0.421883
      76A     -0.419263    77A     -0.406045    78A     -0.397348

  @DF-RHF Final Energy: -10367.94113462739188

   => Energetics <=

    Nuclear Repulsion Energy =           1407.3716212333370095
    One-Electron Energy =              -17247.2061768596722686
    Two-Electron Energy =                5471.8934209989429291
    Total Energy =                     -10367.9411346273918753

  Dipole Moment: [D]
     X:     0.0304      Y:    -0.0156      Z:     3.7924     Total:     3.7925

  Basis Set: (AUG-CC-PVQZ AUX)
    Blend: AUG-CC-PVQZ-RI
	 Reference Energy          =  -10367.9411346273918753 [Eh]
	 Singles Energy            =      -0.0000000000000000 [Eh]
	 Same-Spin Energy          =      -0.5747208781125293 [Eh]
	 Opposite-Spin Energy      =      -1.4352074352526736 [Eh]
	 Correlation Energy        =      -2.0099283133652026 [Eh]
	 Total Energy              =  -10369.9510629407577653 [Eh]

	 ================> DF-SCS-MP2 Energies <==================
	-----------------------------------------------------------
	 SCS Same-Spin Scale       =       0.3333333333333333 [-]
	 SCS Opposite-Spin Scale   =       1.2000000000000000 [-]
	 SCS Same-Spin Energy      =      -0.1915736260375097 [Eh]
	 SCS Opposite-Spin Energy  =      -1.7222489223032083 [Eh]
	 SCS Correlation Energy    =      -1.9138225483407181 [Eh]
	 SCS Total Energy          =  -10369.8549571757321246 [Eh]
	-----------------------------------------------------------

*** Psi4 exiting successfully. Buy a developer a beer!
