                               Psi4 1.4a2.dev224

  ==> Input File <==

--------------------------------------------------------------------------
#Generated by lconvert.py for cbs job

memory 40 GB

molecule  {
0 1
 Br        0.3777210     1.5497260     1.4344090
 Br       -0.3930130    -1.5625820     1.4284190
  C       -0.0131690    -0.0070870     2.4857150
  H       -0.8857710     0.2079010     3.0873280
  H        0.8531130    -0.2227370     3.0961620
--
0 1
 Br       -0.3935230    -1.5459590    -2.5789750
 Br        0.3748640     1.5685320    -2.5762410
  C        0.0163960     0.0040300    -1.5267550
  H        0.8975680    -0.2138720    -0.9398540
  H       -0.8346130     0.2134330    -0.8943030
units angstrom
no_reorient
symmetry c1
}

set {
scf_type DF
mp2_type DF
e_convergence 7
reference rhf
}

energy('mp2/aug-cc-pv[tq]z', bsse_type='cp')
--------------------------------------------------------------------------

    Molecular point group: c1
  Charge       = 0
  Multiplicity = 1
  Basis Set: AUG-CC-PVTZ
    Blend: AUG-CC-PVTZ
  Basis Set: (AUG-CC-PVTZ AUX)
    Blend: AUG-CC-PVTZ-JKFIT
  @DF-RHF Final Energy: -5183.96416451496589
    Total Energy =                      -5183.9641645149658871
  Basis Set: (AUG-CC-PVTZ AUX)
    Blend: AUG-CC-PVTZ-RI
	 Reference Energy          =   -5183.9641645149658871 [Eh]
	 Singles Energy            =      -0.0000000000000000 [Eh]
	 Same-Spin Energy          =      -0.2177133539590609 [Eh]
	 Opposite-Spin Energy      =      -0.5531542954582597 [Eh]
	 Correlation Energy        =      -0.7708676494173206 [Eh]
	 Total Energy              =   -5184.7350321643834832 [Eh]
	 SCS Total Energy          =   -5184.7005207875017732 [Eh]
    Molecular point group: c1
  Basis Set: AUG-CC-PVQZ
    Blend: AUG-CC-PVQZ
  Basis Set: (AUG-CC-PVQZ AUX)
    Blend: AUG-CC-PVQZ-JKFIT
  @DF-RHF Final Energy: -5183.97200074970260
    Total Energy =                      -5183.9720007497026018
  Basis Set: (AUG-CC-PVQZ AUX)
  @DF-RHF Final Energy: -5183.96423497238811
    Total Energy =                      -5183.9642349723881125
  @DF-RHF Final Energy: -5183.97201956298522
    Total Energy =                      -5183.9720195629852242
  @DF-RHF Final Energy: -5183.96424747854144
    Total Energy =                      -5183.9642474785414379
  @DF-RHF Final Energy: -5183.97200219192473
    Total Energy =                      -5183.9720021919247301
  @DF-RHF Final Energy: -5183.96415531203729
    Total Energy =                      -5183.9641553120382014
  @DF-RHF Final Energy: -5183.97198705060146
    Total Energy =                      -5183.9719870506014558
  Multiplicity = 1
  @DF-RHF Final Energy: -10367.92183870347071
    Total Energy =                     -10367.9218387034707121
	 Singles Energy            =      -0.0000000000000000 [Eh]
	 Same-Spin Energy          =      -0.4440101140580804 [Eh]
	 Opposite-Spin Energy      =      -1.1191102566045321 [Eh]
	 Correlation Energy        =      -1.5631203706626127 [Eh]
	 Total Energy              =  -10369.4849590741341672 [Eh]
	 SCS Total Energy          =  -10369.4127743827484665 [Eh]
    Molecular point group: c1

    Geometry (in Angstrom), charge = 0, multiplicity = 1:

       Center              X                  Y                   Z               Mass
    ------------   -----------------  -----------------  -----------------  -----------------
         BR           0.385315015387     1.547646391947     1.914532161468    78.918337600000
         BR          -0.385418984613    -1.564661608053     1.908542161468    78.918337600000
         C           -0.005574984613    -0.009166608053     2.965838161468    12.000000000000
         H           -0.878176984613     0.205821391947     3.567451161468     1.007825032230
         H            0.860707015387    -0.224816608053     3.576285161468     1.007825032230
         BR          -0.385928984613    -1.548038608053    -2.098851838532    78.918337600000
         BR           0.382458015387     1.566452391947    -2.096117838532    78.918337600000
         C            0.023990015387     0.001950391947    -1.046631838532    12.000000000000
         H            0.905162015387    -0.215951608053    -0.459730838532     1.007825032230
         H           -0.827018984613     0.211353391947    -0.414179838532     1.007825032230

  Charge       = 0
  Multiplicity = 1
  Basis Set: AUG-CC-PVQZ
    Blend: AUG-CC-PVQZ
  Basis Set: (AUG-CC-PVQZ AUX)
    Blend: AUG-CC-PVQZ-JKFIT

    Orbital Energies [Eh]
    ---------------------

    Doubly Occupied:

       1A   -490.044925     2A   -490.044898     3A   -490.024857
       4A   -490.024784     5A    -65.185490     6A    -65.185458
       7A    -65.165328     8A    -65.165256     9A    -58.540929
      10A    -58.540898    11A    -58.539394    12A    -58.539378
      13A    -58.539363    14A    -58.539346    15A    -58.520754
      16A    -58.520683    17A    -58.519282    18A    -58.519249
      19A    -58.519210    20A    -58.519177    21A    -11.363633
      22A    -11.340718    23A     -9.858999    24A     -9.858962
      25A     -9.838719    26A     -9.838648    27A     -7.470701
      28A     -7.470666    29A     -7.463813    30A     -7.463775
      31A     -7.463666    32A     -7.463627    33A     -7.450364
      34A     -7.450293    35A     -7.443602    36A     -7.443530
      37A     -7.443450    38A     -7.443380    39A     -3.214478
      40A     -3.214434    41A     -3.210804    42A     -3.210769
      43A     -3.210696    44A     -3.210659    45A     -3.201717
      46A     -3.201714    47A     -3.201678    48A     -3.201675
      49A     -3.194095    50A     -3.194019    51A     -3.190513
      52A     -3.190441    53A     -3.190365    54A     -3.190295
      55A     -3.181588    56A     -3.181586    57A     -3.181517
      58A     -3.181515    59A     -1.132520    60A     -1.110037
      61A     -1.026116    62A     -1.004746    63A     -0.889092
      64A     -0.864358    65A     -0.674326    66A     -0.651891
      67A     -0.590195    68A     -0.571030    69A     -0.553647
      70A     -0.528695    71A     -0.442377    72A     -0.439712
      73A     -0.427514    74A     -0.422849    75A     -0.421276
      76A     -0.420536    77A     -0.405295    78A     -0.396359

  @DF-RHF Final Energy: -10367.93737591862009

   => Energetics <=

    Nuclear Repulsion Energy =           1437.6873353553974084
    One-Electron Energy =              -17307.8567658857391507
    Two-Electron Energy =                5502.2320546117225604
    Total Energy =                     -10367.9373759186200914

  Dipole Moment: [D]
     X:     0.0304      Y:    -0.0157      Z:     3.7942     Total:     3.7944

  Basis Set: (AUG-CC-PVQZ AUX)
    Blend: AUG-CC-PVQZ-RI
	 Reference Energy          =  -10367.9373759186200914 [Eh]
	 Singles Energy            =      -0.0000000000000000 [Eh]
	 Same-Spin Energy          =      -0.5765648505715630 [Eh]
	 Opposite-Spin Energy      =      -1.4376124165313033 [Eh]
	 Correlation Energy        =      -2.0141772671028662 [Eh]
	 Total Energy              =  -10369.9515531857232418 [Eh]

	 ================> DF-SCS-MP2 Energies <==================
	-----------------------------------------------------------
	 SCS Same-Spin Scale       =       0.3333333333333333 [-]
	 SCS Opposite-Spin Scale   =       1.2000000000000000 [-]
	 SCS Same-Spin Energy      =      -0.1921882835238543 [Eh]
	 SCS Opposite-Spin Energy  =      -1.7251348998375640 [Eh]
	 SCS Correlation Energy    =      -1.9173231833614184 [Eh]
	 SCS Total Energy          =  -10369.8546991019811685 [Eh]
	-----------------------------------------------------------

*** Psi4 exiting successfully. Buy a developer a beer!
