                               Psi4 1.4a2.dev224

  ==> Input File <==

--------------------------------------------------------------------------
#Generated by lconvert.py for cbs job

memory 20 GB

molecule  {
0 1
 Br       0.377720    1.549730    1.434410
 Br      -0.393010   -1.562580    1.428420
  C      -0.013170   -0.007090    2.485710
  H      -0.885770    0.207900    3.087330
  H       0.853110   -0.222740    3.096160
--
0 1
 Br      -0.392300   -1.525900   -7.272040
 Br       0.376090    1.588590   -7.269310
  C       0.017620    0.024090   -6.219820
  H       0.898790   -0.193810   -5.632920
  H      -0.833390    0.233490   -5.587370
units angstrom
no_reorient
symmetry c1
}

set {
scf_type DF
mp2_type DF
e_convergence 7
reference rhf
}

energy('mp2/aug-cc-pv[tq]z', bsse_type='cp')
--------------------------------------------------------------------------

    Molecular point group: c1
  Charge       = 0
  Multiplicity = 1
  Basis Set: AUG-CC-PVTZ
    Blend: AUG-CC-PVTZ
  Basis Set: (AUG-CC-PVTZ AUX)
    Blend: AUG-CC-PVTZ-JKFIT
  @DF-RHF Final Energy: -5183.96416457051509
    Total Energy =                      -5183.9641645705141855
  Basis Set: (AUG-CC-PVTZ AUX)
    Blend: AUG-CC-PVTZ-RI
	 Reference Energy          =   -5183.9641645705150950 [Eh]
	 Singles Energy            =      -0.0000000000000000 [Eh]
	 Same-Spin Energy          =      -0.2177133281447865 [Eh]
	 Opposite-Spin Energy      =      -0.5531542666350708 [Eh]
	 Correlation Energy        =      -0.7708675947798573 [Eh]
	 Total Energy              =   -5184.7350321652947969 [Eh]
	 SCS Total Energy          =   -5184.7005207998590777 [Eh]
    Molecular point group: c1
  Basis Set: AUG-CC-PVQZ
    Blend: AUG-CC-PVQZ
  Basis Set: (AUG-CC-PVQZ AUX)
    Blend: AUG-CC-PVQZ-JKFIT
  @DF-RHF Final Energy: -5183.97200080564653
    Total Energy =                      -5183.9720008056465304
  Basis Set: (AUG-CC-PVQZ AUX)
  @DF-RHF Final Energy: -5183.96416528264945
    Total Energy =                      -5183.9641652826494465
  @DF-RHF Final Energy: -5183.97200144159888
    Total Energy =                      -5183.9720014415997866
  @DF-RHF Final Energy: -5183.96415871505542
    Total Energy =                      -5183.9641587150554187
  @DF-RHF Final Energy: -5183.97198783784097
    Total Energy =                      -5183.9719878378418798
  @DF-RHF Final Energy: -5183.96415525667362
    Total Energy =                      -5183.9641552566736209
  @DF-RHF Final Energy: -5183.97198700297758
    Total Energy =                      -5183.9719870029775848
  Multiplicity = 1
  @DF-RHF Final Energy: -10367.92856171532912
    Total Energy =                     -10367.9285617153291241
	 Singles Energy            =      -0.0000000000000000 [Eh]
	 Same-Spin Energy          =      -0.4355084864609199 [Eh]
	 Opposite-Spin Energy      =      -1.1064428288885586 [Eh]
	 Correlation Energy        =      -1.5419513153494786 [Eh]
	 Total Energy              =  -10369.4705130306792853 [Eh]
	 SCS Total Energy          =  -10369.4014626054831751 [Eh]
    Molecular point group: c1

    Geometry (in Angstrom), charge = 0, multiplicity = 1:

       Center              X                  Y                   Z               Mass
    ------------   -----------------  -----------------  -----------------  -----------------
         BR           0.384701376130     1.537619822517     4.261066304055    78.918337600000
         BR          -0.386028623870    -1.574690177483     4.255076304055    78.918337600000
         C           -0.006188623870    -0.019200177483     5.312366304055    12.000000000000
         H           -0.878788623870     0.195789822517     5.913986304055     1.007825032230
         H            0.860091376130    -0.234850177483     5.922816304055     1.007825032230
         BR          -0.385318623870    -1.538010177483    -4.445383695945    78.918337600000
         BR           0.383071376130     1.576479822517    -4.442653695945    78.918337600000
         C            0.024601376130     0.011979822517    -3.393163695945    12.000000000000
         H            0.905771376130    -0.205920177483    -2.806263695945     1.007825032230
         H           -0.826408623870     0.221379822517    -2.760713695945     1.007825032230

  Charge       = 0
  Multiplicity = 1
  Basis Set: AUG-CC-PVQZ
    Blend: AUG-CC-PVQZ
  Basis Set: (AUG-CC-PVQZ AUX)
    Blend: AUG-CC-PVQZ-JKFIT

    Orbital Energies [Eh]
    ---------------------

    Doubly Occupied:

       1A   -490.036955     2A   -490.036953     3A   -490.032038
       4A   -490.032034     5A    -65.177377     6A    -65.177375
       7A    -65.172463     8A    -65.172459     9A    -58.532826
      10A    -58.532824    11A    -58.531315    12A    -58.531312
      13A    -58.531278    14A    -58.531276    15A    -58.527911
      16A    -58.527908    17A    -58.526401    18A    -58.526397
      19A    -58.526364    20A    -58.526361    21A    -11.356396
      22A    -11.350901    23A     -9.850730    24A     -9.850725
      25A     -9.845819    26A     -9.845813    27A     -7.462445
      28A     -7.462442    29A     -7.457537    30A     -7.457532
      31A     -7.455544    32A     -7.455541    33A     -7.455375
      34A     -7.455372    35A     -7.450634    36A     -7.450630
      37A     -7.450467    38A     -7.450463    39A     -3.206229
      40A     -3.206202    41A     -3.202584    42A     -3.202579
      43A     -3.202408    44A     -3.202405    45A     -3.201321
      46A     -3.201294    47A     -3.197672    48A     -3.197667
      49A     -3.197500    50A     -3.197496    51A     -3.193452
      52A     -3.193452    53A     -3.193448    54A     -3.193448
      55A     -3.188542    56A     -3.188542    57A     -3.188537
      58A     -3.188537    59A     -1.122714    60A     -1.117925
      61A     -1.016402    62A     -1.011647    63A     -0.878437
      64A     -0.873596    65A     -0.666325    66A     -0.660504
      67A     -0.580559    68A     -0.576157    69A     -0.542304
      70A     -0.537579    71A     -0.434832    72A     -0.432829
      73A     -0.429742    74A     -0.427973    75A     -0.417882
      76A     -0.412758    77A     -0.408725    78A     -0.403979

  @DF-RHF Final Energy: -10367.94422520766784

   => Energetics <=

    Nuclear Repulsion Energy =           1068.9653875378110115
    One-Electron Energy =              -16570.5184607602786855
    Two-Electron Energy =                5133.6088480147991504
    Total Energy =                     -10367.9442252076678415

  Dipole Moment: [D]
     X:     0.0317      Y:    -0.0132      Z:     3.4142     Total:     3.4143

  Basis Set: (AUG-CC-PVQZ AUX)
    Blend: AUG-CC-PVQZ-RI
	 Reference Energy          =  -10367.9442252076678415 [Eh]
	 Singles Energy            =      -0.0000000000000000 [Eh]
	 Same-Spin Energy          =      -0.5685982251545451 [Eh]
	 Opposite-Spin Energy      =      -1.4268427486235717 [Eh]
	 Correlation Energy        =      -1.9954409737781167 [Eh]
	 Total Energy              =  -10369.9396661814462277 [Eh]

	 ================> DF-SCS-MP2 Energies <==================
	-----------------------------------------------------------
	 SCS Same-Spin Scale       =       0.3333333333333333 [-]
	 SCS Opposite-Spin Scale   =       1.2000000000000000 [-]
	 SCS Same-Spin Energy      =      -0.1895327417181817 [Eh]
	 SCS Opposite-Spin Energy  =      -1.7122112983482860 [Eh]
	 SCS Correlation Energy    =      -1.9017440400664678 [Eh]
	 SCS Total Energy          =  -10369.8459692477335921 [Eh]
	-----------------------------------------------------------

*** Psi4 exiting successfully. Buy a developer a beer!
