                               Psi4 1.4a2.dev224

  ==> Input File <==

--------------------------------------------------------------------------
#Generated by lconvert.py for cbs job

memory 40 GB

molecule  {
0 1
 Br        0.3777210     1.5497260     1.4344090
 Br       -0.3930130    -1.5625820     1.4284190
  C       -0.0131690    -0.0070870     2.4857150
  H       -0.8857710     0.2079010     3.0873280
  H        0.8531130    -0.2227370     3.0961620
--
0 1
 Br       -0.3936370    -1.5478070    -2.1466470
 Br        0.3747500     1.5666840    -2.1439130
  C        0.0162820     0.0021820    -1.0944270
  H        0.8974540    -0.2157200    -0.5075260
  H       -0.8347270     0.2115850    -0.4619750
units angstrom
no_reorient
symmetry c1
}

set {
scf_type DF
mp2_type DF
e_convergence 7
reference rhf
}

energy('mp2/aug-cc-pv[tq]z', bsse_type='cp')
--------------------------------------------------------------------------

    Molecular point group: c1
  Charge       = 0
  Multiplicity = 1
  Basis Set: AUG-CC-PVTZ
    Blend: AUG-CC-PVTZ
  Basis Set: (AUG-CC-PVTZ AUX)
    Blend: AUG-CC-PVTZ-JKFIT
  @DF-RHF Final Energy: -5183.96416451362620
    Total Energy =                      -5183.9641645136262014
  Basis Set: (AUG-CC-PVTZ AUX)
    Blend: AUG-CC-PVTZ-RI
	 Reference Energy          =   -5183.9641645136262014 [Eh]
	 Singles Energy            =      -0.0000000000000000 [Eh]
	 Same-Spin Energy          =      -0.2177133539582537 [Eh]
	 Opposite-Spin Energy      =      -0.5531542954552990 [Eh]
	 Correlation Energy        =      -0.7708676494135528 [Eh]
	 Total Energy              =   -5184.7350321630401595 [Eh]
	 SCS Total Energy          =   -5184.7005207861584495 [Eh]
    Molecular point group: c1
  Basis Set: AUG-CC-PVQZ
    Blend: AUG-CC-PVQZ
  Basis Set: (AUG-CC-PVQZ AUX)
    Blend: AUG-CC-PVQZ-JKFIT
  @DF-RHF Final Energy: -5183.97200074937518
    Total Energy =                      -5183.9720007493742742
  Basis Set: (AUG-CC-PVQZ AUX)
  @DF-RHF Final Energy: -5183.96425829879627
    Total Energy =                      -5183.9642582987962669
  @DF-RHF Final Energy: -5183.97202732948608
    Total Energy =                      -5183.9720273294860817
  @DF-RHF Final Energy: -5183.96427916119410
    Total Energy =                      -5183.9642791611950088
  @DF-RHF Final Energy: -5183.97200806001183
    Total Energy =                      -5183.9720080600127403
  @DF-RHF Final Energy: -5183.96415531242383
    Total Energy =                      -5183.9641553124238271
  @DF-RHF Final Energy: -5183.97198705115989
    Total Energy =                      -5183.9719870511598856
  Multiplicity = 1
  @DF-RHF Final Energy: -10367.90243577627916
    Total Energy =                     -10367.9024357762791624
	 Singles Energy            =      -0.0000000000000000 [Eh]
	 Same-Spin Energy          =      -0.4503429232210955 [Eh]
	 Opposite-Spin Energy      =      -1.1275993386503025 [Eh]
	 Correlation Energy        =      -1.5779422618713981 [Eh]
	 Total Energy              =  -10369.4803780381498655 [Eh]
	 SCS Total Energy          =  -10369.4056692903996009 [Eh]
    Molecular point group: c1

    Geometry (in Angstrom), charge = 0, multiplicity = 1:

       Center              X                  Y                   Z               Mass
    ------------   -----------------  -----------------  -----------------  -----------------
         BR           0.385372015387     1.548570391947     1.698368161468    78.918337600000
         BR          -0.385361984613    -1.563737608053     1.692378161468    78.918337600000
         C           -0.005517984613    -0.008242608053     2.749674161468    12.000000000000
         H           -0.878119984613     0.206745391947     3.351287161468     1.007825032230
         H            0.860764015387    -0.223892608053     3.360121161468     1.007825032230
         BR          -0.385985984613    -1.548962608053    -1.882687838532    78.918337600000
         BR           0.382401015387     1.565528391947    -1.879953838532    78.918337600000
         C            0.023933015387     0.001026391947    -0.830467838532    12.000000000000
         H            0.905105015387    -0.216875608053    -0.243566838532     1.007825032230
         H           -0.827075984613     0.210429391947    -0.198015838532     1.007825032230

  Charge       = 0
  Multiplicity = 1
  Basis Set: AUG-CC-PVQZ
    Blend: AUG-CC-PVQZ
  Basis Set: (AUG-CC-PVQZ AUX)
    Blend: AUG-CC-PVQZ-JKFIT

    Orbital Energies [Eh]
    ---------------------

    Doubly Occupied:

       1A   -490.043920     2A   -490.043913     3A   -490.023306
       4A   -490.023131     5A    -65.184718     6A    -65.184714
       7A    -65.163837     8A    -65.163665     9A    -58.540131
      10A    -58.540128    11A    -58.538576    12A    -58.538574
      13A    -58.538572    14A    -58.538571    15A    -58.519250
      16A    -58.519078    17A    -58.517789    18A    -58.517767
      19A    -58.517617    20A    -58.517596    21A    -11.363525
      22A    -11.338839    23A     -9.858484    24A     -9.858468
      25A     -9.837283    26A     -9.837115    27A     -7.470168
      28A     -7.470155    29A     -7.463293    30A     -7.463275
      31A     -7.463158    32A     -7.463139    33A     -7.448900
      34A     -7.448731    35A     -7.442184    36A     -7.442068
      37A     -7.442016    38A     -7.441903    39A     -3.213957
      40A     -3.213926    41A     -3.210217    42A     -3.210205
      43A     -3.210204    44A     -3.210189    45A     -3.201165
      46A     -3.201155    47A     -3.201147    48A     -3.201137
      49A     -3.192609    50A     -3.192437    51A     -3.189027
      52A     -3.188933    53A     -3.188856    54A     -3.188767
      55A     -3.180214    56A     -3.180209    57A     -3.180048
      58A     -3.180043    59A     -1.136932    60A     -1.108453
      61A     -1.028845    62A     -1.003335    63A     -0.894887
      64A     -0.862087    65A     -0.676234    66A     -0.653084
      67A     -0.594875    68A     -0.572364    69A     -0.560599
      70A     -0.525434    71A     -0.444919    72A     -0.428852
      73A     -0.428656    74A     -0.423690    75A     -0.423072
      76A     -0.419433    77A     -0.403694    78A     -0.393321

  @DF-RHF Final Energy: -10367.91796071905082

   => Energetics <=

    Nuclear Repulsion Energy =           1510.8527349502771813
    One-Electron Energy =              -17454.2518650851343409
    Two-Electron Energy =                5575.4811694158061073
    Total Energy =                     -10367.9179607190526440

  Dipole Moment: [D]
     X:     0.0311      Y:    -0.0153      Z:     3.7324     Total:     3.7325

  Basis Set: (AUG-CC-PVQZ AUX)
    Blend: AUG-CC-PVQZ-RI
	 Reference Energy          =  -10367.9179607190508250 [Eh]
	 Singles Energy            =      -0.0000000000000000 [Eh]
	 Same-Spin Energy          =      -0.5826513224203486 [Eh]
	 Opposite-Spin Energy      =      -1.4453165381626951 [Eh]
	 Correlation Energy        =      -2.0279678605830438 [Eh]
	 Total Energy              =  -10369.9459285796347103 [Eh]

	 ================> DF-SCS-MP2 Energies <==================
	-----------------------------------------------------------
	 SCS Same-Spin Scale       =       0.3333333333333333 [-]
	 SCS Opposite-Spin Scale   =       1.2000000000000000 [-]
	 SCS Same-Spin Energy      =      -0.1942171074734495 [Eh]
	 SCS Opposite-Spin Energy  =      -1.7343798457952342 [Eh]
	 SCS Correlation Energy    =      -1.9285969532686837 [Eh]
	 SCS Total Energy          =  -10369.8465576723192498 [Eh]
	-----------------------------------------------------------

*** Psi4 exiting successfully. Buy a developer a beer!
