                               Psi4 1.4a2.dev224

  ==> Input File <==

--------------------------------------------------------------------------
#Generated by lconvert.py for cbs job

memory 40 GB

molecule  {
1 1
  N       -0.6350970    -0.2416010     0.2731620
  H       -0.7015940    -1.1891620     0.6412360
  H       -1.1712720    -0.2180970    -0.5927110
  H        0.3654370    -0.0499530     0.0431460
  C       -1.1527530     0.7582030     1.2570020
  H       -1.0606550     1.7447240     0.8189950
  H       -2.1901300     0.5363150     1.4772400
  H       -0.5517780     0.6926060     2.1559360
--
0 1
  O        1.9079760     0.3765000    -0.2084430
  H        2.2533230     0.9236010    -0.9201820
  H        2.6895310     0.0218740     0.2258010
units angstrom
no_reorient
symmetry c1
}

set {
scf_type DF
mp2_type DF
e_convergence 7
reference rhf
}

energy('mp2/aug-cc-pv[tq]z', bsse_type='cp')
--------------------------------------------------------------------------

    Molecular point group: c1
  Charge       = 0
  Multiplicity = 1
  Basis Set: AUG-CC-PVTZ
    Blend: AUG-CC-PVTZ
  Basis Set: (AUG-CC-PVTZ AUX)
    Blend: AUG-CC-PVTZ-JKFIT
  @DF-RHF Final Energy:   -76.06026757488451
    Total Energy =                        -76.0602675748845058
  Basis Set: (AUG-CC-PVTZ AUX)
    Blend: AUG-CC-PVTZ-RI
	 Reference Energy          =     -76.0602675748845058 [Eh]
	 Singles Energy            =      -0.0000000000000000 [Eh]
	 Same-Spin Energy          =      -0.0684133600658992 [Eh]
	 Opposite-Spin Energy      =      -0.2153882695189523 [Eh]
	 Correlation Energy        =      -0.2838016295848516 [Eh]
	 Total Energy              =     -76.3440692044693634 [Eh]
	 SCS Total Energy          =     -76.3415379516625450 [Eh]
    Molecular point group: c1
  Basis Set: AUG-CC-PVQZ
    Blend: AUG-CC-PVQZ
  Basis Set: (AUG-CC-PVQZ AUX)
    Blend: AUG-CC-PVQZ-JKFIT
  @DF-RHF Final Energy:   -76.06563725674840
    Total Energy =                        -76.0656372567484027
  Basis Set: (AUG-CC-PVQZ AUX)
  @DF-RHF Final Energy:   -76.06037378689452
    Total Energy =                        -76.0603737868945160
  @DF-RHF Final Energy:   -76.06568641309809
    Total Energy =                        -76.0656864130980779
  @DF-RHF Final Energy:   -95.61779234825133
    Total Energy =                        -95.6177923482513279
  @DF-RHF Final Energy:   -95.62385991676133
    Total Energy =                        -95.6238599167613330
  @DF-RHF Final Energy:   -95.61774885270029
    Total Energy =                        -95.6177488527002879
  @DF-RHF Final Energy:   -95.62384687952353
    Total Energy =                        -95.6238468795235264
  Multiplicity = 1
  @DF-RHF Final Energy:  -171.70321197481206
    Total Energy =                       -171.7032119748120635
	 Singles Energy            =      -0.0000000000000000 [Eh]
	 Same-Spin Energy          =      -0.1613724376420757 [Eh]
	 Opposite-Spin Energy      =      -0.5673258536083381 [Eh]
	 Correlation Energy        =      -0.7286982912504139 [Eh]
	 Total Energy              =    -172.4319102660624878 [Eh]
	 SCS Total Energy          =    -172.4377938116894313 [Eh]
    Molecular point group: c1

    Geometry (in Angstrom), charge = 1, multiplicity = 1:

       Center              X                  Y                   Z               Mass
    ------------   -----------------  -----------------  -----------------  -----------------
         N           -0.783348473350    -0.525627566582    -0.115460812957    14.003074004430
         H           -0.849845473350    -1.473188566582     0.252613187043     1.007825032230
         H           -1.319523473350    -0.502123566582    -0.981333812957     1.007825032230
         H            0.217185526650    -0.333979566582    -0.345476812957     1.007825032230
         C           -1.301004473350     0.474176433418     0.868379187043    12.000000000000
         H           -1.208906473350     1.460697433418     0.430372187043     1.007825032230
         H           -2.338381473350     0.252288433418     1.088617187043     1.007825032230
         H           -0.700029473350     0.408579433418     1.767313187043     1.007825032230
         O            1.759724526650     0.092473433418    -0.597065812957    15.994914619570
         H            2.105071526650     0.639574433418    -1.308804812957     1.007825032230
         H            2.541279526650    -0.262152566582    -0.162821812957     1.007825032230

  Charge       = 1
  Multiplicity = 1
  Basis Set: AUG-CC-PVQZ
    Blend: AUG-CC-PVQZ
  Basis Set: (AUG-CC-PVQZ AUX)
    Blend: AUG-CC-PVQZ-JKFIT

    Orbital Energies [Eh]
    ---------------------

    Doubly Occupied:

       1A    -20.758198     2A    -15.856954     3A    -11.459569
       4A     -1.551514     5A     -1.482815     6A     -1.144431
       7A     -0.958291     8A     -0.946947     9A     -0.910548
      10A     -0.835968    11A     -0.791653    12A     -0.753180
      13A     -0.739972    14A     -0.709404

  @DF-RHF Final Energy:  -171.71465171672293

   => Energetics <=

    Nuclear Repulsion Energy =             89.9743313200978321
    One-Electron Energy =                -405.5790764020476331
    Two-Electron Energy =                 143.8900933652268463
    Total Energy =                       -171.7146517167229263

  Dipole Moment: [D]
     X:    -0.6917      Y:    -1.1582      Z:    -0.6482     Total:     1.4967

  Basis Set: (AUG-CC-PVQZ AUX)
    Blend: AUG-CC-PVQZ-RI
	 Reference Energy          =    -171.7146517167229263 [Eh]
	 Singles Energy            =      -0.0000000000000000 [Eh]
	 Same-Spin Energy          =      -0.1713385764352394 [Eh]
	 Opposite-Spin Energy      =      -0.6356977936354733 [Eh]
	 Correlation Energy        =      -0.8070363700707127 [Eh]
	 Total Energy              =    -172.5216880867936311 [Eh]

	 ================> DF-SCS-MP2 Energies <==================
	-----------------------------------------------------------
	 SCS Same-Spin Scale       =       0.3333333333333333 [-]
	 SCS Opposite-Spin Scale   =       1.2000000000000000 [-]
	 SCS Same-Spin Energy      =      -0.0571128588117465 [Eh]
	 SCS Opposite-Spin Energy  =      -0.7628373523625679 [Eh]
	 SCS Correlation Energy    =      -0.8199502111743143 [Eh]
	 SCS Total Energy          =    -172.5346019278972278 [Eh]
	-----------------------------------------------------------

*** Psi4 exiting successfully. Buy a developer a beer!
