                               Psi4 1.4a2.dev224

  ==> Input File <==

--------------------------------------------------------------------------
#Generated by lconvert.py for cbs job

memory 40 GB

molecule  {
1 1
  N       -0.6350970    -0.2416010     0.2731620
  H       -0.7015940    -1.1891620     0.6412360
  H       -1.1712720    -0.2180970    -0.5927110
  H        0.3654370    -0.0499530     0.0431460
  C       -1.1527530     0.7582030     1.2570020
  H       -1.0606550     1.7447240     0.8189950
  H       -2.1901300     0.5363150     1.4772400
  H       -0.5517780     0.6926060     2.1559360
--
0 1
  O        1.8267900     0.3540550    -0.1952020
  H        2.1721370     0.9011560    -0.9069410
  H        2.6083440    -0.0005710     0.2390420
units angstrom
no_reorient
symmetry c1
}

set {
scf_type DF
mp2_type DF
e_convergence 7
reference rhf
}

energy('mp2/aug-cc-pv[tq]z', bsse_type='cp')
--------------------------------------------------------------------------

    Molecular point group: c1
  Charge       = 0
  Multiplicity = 1
  Basis Set: AUG-CC-PVTZ
    Blend: AUG-CC-PVTZ
  Basis Set: (AUG-CC-PVTZ AUX)
    Blend: AUG-CC-PVTZ-JKFIT
  @DF-RHF Final Energy:   -76.06026761036989
    Total Energy =                        -76.0602676103698911
  Basis Set: (AUG-CC-PVTZ AUX)
    Blend: AUG-CC-PVTZ-RI
	 Reference Energy          =     -76.0602676103698911 [Eh]
	 Singles Energy            =      -0.0000000000000000 [Eh]
	 Same-Spin Energy          =      -0.0684133523301035 [Eh]
	 Opposite-Spin Energy      =      -0.2153882460179729 [Eh]
	 Correlation Energy        =      -0.2838015983480764 [Eh]
	 Total Energy              =     -76.3440692087179684 [Eh]
	 SCS Total Energy          =     -76.3415379563681569 [Eh]
    Molecular point group: c1
  Basis Set: AUG-CC-PVQZ
    Blend: AUG-CC-PVQZ
  Basis Set: (AUG-CC-PVQZ AUX)
    Blend: AUG-CC-PVQZ-JKFIT
  @DF-RHF Final Energy:   -76.06563729422395
    Total Energy =                        -76.0656372942239472
  Basis Set: (AUG-CC-PVQZ AUX)
  @DF-RHF Final Energy:   -76.06038544253018
    Total Energy =                        -76.0603854425301762
  @DF-RHF Final Energy:   -76.06568969988085
    Total Energy =                        -76.0656896998808350
  @DF-RHF Final Energy:   -95.61779615024287
    Total Energy =                        -95.6177961502428673
  @DF-RHF Final Energy:   -95.62386107977841
    Total Energy =                        -95.6238610797784077
  @DF-RHF Final Energy:   -95.61774885272483
    Total Energy =                        -95.6177488527248300
  @DF-RHF Final Energy:   -95.62384687935796
    Total Energy =                        -95.6238468793579557
  Multiplicity = 1
  @DF-RHF Final Energy:  -171.70101881903537
    Total Energy =                       -171.7010188190353688
	 Singles Energy            =      -0.0000000000000000 [Eh]
	 Same-Spin Energy          =      -0.1618723228985351 [Eh]
	 Opposite-Spin Energy      =      -0.5677230952295007 [Eh]
	 Correlation Energy        =      -0.7295954181280359 [Eh]
	 Total Energy              =    -172.4306142371634110 [Eh]
	 SCS Total Energy          =    -172.4362439742769482 [Eh]
    Molecular point group: c1

    Geometry (in Angstrom), charge = 1, multiplicity = 1:

       Center              X                  Y                   Z               Mass
    ------------   -----------------  -----------------  -----------------  -----------------
         N           -0.754139733603    -0.517552409390    -0.120224598048    14.003074004430
         H           -0.820636733603    -1.465113409390     0.247849401952     1.007825032230
         H           -1.290314733603    -0.494048409390    -0.986097598048     1.007825032230
         H            0.246394266397    -0.325904409390    -0.350240598048     1.007825032230
         C           -1.271795733603     0.482251590610     0.863615401952    12.000000000000
         H           -1.179697733603     1.468772590610     0.425608401952     1.007825032230
         H           -2.309172733603     0.260363590610     1.083853401952     1.007825032230
         H           -0.670820733603     0.416654590610     1.762549401952     1.007825032230
         O            1.707747266397     0.078103590610    -0.588588598048    15.994914619570
         H            2.053094266397     0.625204590610    -1.300327598048     1.007825032230
         H            2.489301266397    -0.276522409390    -0.154344598048     1.007825032230

  Charge       = 1
  Multiplicity = 1
  Basis Set: AUG-CC-PVQZ
    Blend: AUG-CC-PVQZ
  Basis Set: (AUG-CC-PVQZ AUX)
    Blend: AUG-CC-PVQZ-JKFIT

    Orbital Energies [Eh]
    ---------------------

    Doubly Occupied:

       1A    -20.765108     2A    -15.850115     3A    -11.457316
       4A     -1.561190     5A     -1.478532     6A     -1.141938
       7A     -0.962684     8A     -0.943240     9A     -0.918120
      10A     -0.834983    11A     -0.793730    12A     -0.750977
      13A     -0.736492    14A     -0.716693

  @DF-RHF Final Energy:  -171.71244695016364

   => Energetics <=

    Nuclear Repulsion Energy =             90.9204682752687887
    One-Electron Energy =                -407.4435901171106593
    Two-Electron Energy =                 144.8106748916782465
    Total Energy =                       -171.7124469501636383

  Dipole Moment: [D]
     X:    -0.4006      Y:    -1.1038      Z:    -0.7161     Total:     1.3754

  Basis Set: (AUG-CC-PVQZ AUX)
    Blend: AUG-CC-PVQZ-RI
	 Reference Energy          =    -171.7124469501636383 [Eh]
	 Singles Energy            =      -0.0000000000000000 [Eh]
	 Same-Spin Energy          =      -0.1718602496929534 [Eh]
	 Opposite-Spin Energy      =      -0.6361299855219262 [Eh]
	 Correlation Energy        =      -0.8079902352148796 [Eh]
	 Total Energy              =    -172.5204371853785119 [Eh]

	 ================> DF-SCS-MP2 Energies <==================
	-----------------------------------------------------------
	 SCS Same-Spin Scale       =       0.3333333333333333 [-]
	 SCS Opposite-Spin Scale   =       1.2000000000000000 [-]
	 SCS Same-Spin Energy      =      -0.0572867498976511 [Eh]
	 SCS Opposite-Spin Energy  =      -0.7633559826263114 [Eh]
	 SCS Correlation Energy    =      -0.8206427325239626 [Eh]
	 SCS Total Energy          =    -172.5330896826876028 [Eh]
	-----------------------------------------------------------

*** Psi4 exiting successfully. Buy a developer a beer!
