                               Psi4 1.4a2.dev224

  ==> Input File <==

--------------------------------------------------------------------------
#Generated by lconvert.py for cbs job

memory 40 GB

molecule  {
1 1
  N       -0.6350970    -0.2416010     0.2731620
  H       -0.7015940    -1.1891620     0.6412360
  H       -1.1712720    -0.2180970    -0.5927110
  H        0.3654370    -0.0499530     0.0431460
  C       -1.1527530     0.7582030     1.2570020
  H       -1.0606550     1.7447240     0.8189950
  H       -2.1901300     0.5363150     1.4772400
  H       -0.5517780     0.6926060     2.1559360
--
0 1
  O        1.6644170     0.3091650    -0.1687190
  H        2.0097640     0.8562660    -0.8804580
  H        2.4459720    -0.0454610     0.2655250
units angstrom
no_reorient
symmetry c1
}

set {
scf_type DF
mp2_type DF
e_convergence 7
reference rhf
}

energy('mp2/aug-cc-pv[tq]z', bsse_type='cp')
--------------------------------------------------------------------------

    Molecular point group: c1
  Charge       = 0
  Multiplicity = 1
  Basis Set: AUG-CC-PVTZ
    Blend: AUG-CC-PVTZ
  Basis Set: (AUG-CC-PVTZ AUX)
    Blend: AUG-CC-PVTZ-JKFIT
  @DF-RHF Final Energy:   -76.06026757488520
    Total Energy =                        -76.0602675748852164
  Basis Set: (AUG-CC-PVTZ AUX)
    Blend: AUG-CC-PVTZ-RI
	 Reference Energy          =     -76.0602675748852022 [Eh]
	 Singles Energy            =      -0.0000000000000000 [Eh]
	 Same-Spin Energy          =      -0.0684133600658880 [Eh]
	 Opposite-Spin Energy      =      -0.2153882695189487 [Eh]
	 Correlation Energy        =      -0.2838016295848367 [Eh]
	 Total Energy              =     -76.3440692044700455 [Eh]
	 SCS Total Energy          =     -76.3415379516632413 [Eh]
    Molecular point group: c1
  Basis Set: AUG-CC-PVQZ
    Blend: AUG-CC-PVQZ
  Basis Set: (AUG-CC-PVQZ AUX)
    Blend: AUG-CC-PVQZ-JKFIT
  @DF-RHF Final Energy:   -76.06563725672397
    Total Energy =                        -76.0656372567239742
  Basis Set: (AUG-CC-PVQZ AUX)
  @DF-RHF Final Energy:   -76.06041397642825
    Total Energy =                        -76.0604139764282507
  @DF-RHF Final Energy:   -76.06569731457694
    Total Energy =                        -76.0656973145769371
  @DF-RHF Final Energy:   -95.61780700965630
    Total Energy =                        -95.6178070096563033
  @DF-RHF Final Energy:   -95.62386393143493
    Total Energy =                        -95.6238639314349257
  @DF-RHF Final Energy:   -95.61774885259923
    Total Energy =                        -95.6177488525992345
  @DF-RHF Final Energy:   -95.62384687953885
    Total Energy =                        -95.6238468795388457
  Multiplicity = 1
  @DF-RHF Final Energy:  -171.69113419339087
    Total Energy =                       -171.6911341933908659
	 Singles Energy            =      -0.0000000000000000 [Eh]
	 Same-Spin Energy          =      -0.1630871887464524 [Eh]
	 Opposite-Spin Energy      =      -0.5686789968403212 [Eh]
	 Correlation Energy        =      -0.7317661855867736 [Eh]
	 Total Energy              =    -172.4229003789776300 [Eh]
	 SCS Total Energy          =    -172.4279113858480628 [Eh]
    Molecular point group: c1

    Geometry (in Angstrom), charge = 1, multiplicity = 1:

       Center              X                  Y                   Z               Mass
    ------------   -----------------  -----------------  -----------------  -----------------
         N           -0.695721954728    -0.501402095006    -0.129752528006    14.003074004430
         H           -0.762218954728    -1.448963095006     0.238321471994     1.007825032230
         H           -1.231896954728    -0.477898095006    -0.995625528006     1.007825032230
         H            0.304812045272    -0.309754095006    -0.359768528006     1.007825032230
         C           -1.213377954728     0.498401904994     0.854087471994    12.000000000000
         H           -1.121279954728     1.484922904994     0.416080471994     1.007825032230
         H           -2.250754954728     0.276513904994     1.074325471994     1.007825032230
         H           -0.612402954728     0.432804904994     1.753021471994     1.007825032230
         O            1.603792045272     0.049363904994    -0.571633528006    15.994914619570
         H            1.949139045272     0.596464904994    -1.283372528006     1.007825032230
         H            2.385347045272    -0.305262095006    -0.137389528006     1.007825032230

  Charge       = 1
  Multiplicity = 1
  Basis Set: AUG-CC-PVQZ
    Blend: AUG-CC-PVQZ
  Basis Set: (AUG-CC-PVQZ AUX)
    Blend: AUG-CC-PVQZ-JKFIT

    Orbital Energies [Eh]
    ---------------------

    Doubly Occupied:

       1A    -20.780635     2A    -15.832865     3A    -11.452010
       4A     -1.585328     5A     -1.468367     6A     -1.136427
       7A     -0.980573     8A     -0.941737     9A     -0.928456
      10A     -0.832831    11A     -0.792400    12A     -0.745802
      13A     -0.741491    14A     -0.718737

  @DF-RHF Final Energy:  -171.70255960477849

   => Energetics <=

    Nuclear Repulsion Energy =             93.0003839971922304
    One-Electron Energy =                -411.5305703461090161
    Two-Electron Energy =                 146.8276267441383141
    Total Energy =                       -171.7025596047784859

  Dipole Moment: [D]
     X:     0.2436      Y:    -0.9898      Z:    -0.8716     Total:     1.3411

  Basis Set: (AUG-CC-PVQZ AUX)
    Blend: AUG-CC-PVQZ-RI
	 Reference Energy          =    -171.7025596047784859 [Eh]
	 Singles Energy            =      -0.0000000000000000 [Eh]
	 Same-Spin Energy          =      -0.1731220365292213 [Eh]
	 Opposite-Spin Energy      =      -0.6371387107746549 [Eh]
	 Correlation Energy        =      -0.8102607473038762 [Eh]
	 Total Energy              =    -172.5128203520823718 [Eh]

	 ================> DF-SCS-MP2 Energies <==================
	-----------------------------------------------------------
	 SCS Same-Spin Scale       =       0.3333333333333333 [-]
	 SCS Opposite-Spin Scale   =       1.2000000000000000 [-]
	 SCS Same-Spin Energy      =      -0.0577073455097404 [Eh]
	 SCS Opposite-Spin Energy  =      -0.7645664529295858 [Eh]
	 SCS Correlation Energy    =      -0.8222737984393262 [Eh]
	 SCS Total Energy          =    -172.5248334032178263 [Eh]
	-----------------------------------------------------------

*** Psi4 exiting successfully. Buy a developer a beer!
