                               Psi4 1.4a2.dev224

  ==> Input File <==

--------------------------------------------------------------------------
#Generated by lconvert.py for cbs job

memory 40 GB

molecule  {
1 1
  N       -0.6350970    -0.2416010     0.2731620
  H       -0.7015940    -1.1891620     0.6412360
  H       -1.1712720    -0.2180970    -0.5927110
  H        0.3654370    -0.0499530     0.0431460
  C       -1.1527530     0.7582030     1.2570020
  H       -1.0606550     1.7447240     0.8189950
  H       -2.1901300     0.5363150     1.4772400
  H       -0.5517780     0.6926060     2.1559360
--
0 1
  O        2.0703480     0.4213900    -0.2349270
  H        2.4156950     0.9684910    -0.9466660
  H        2.8519030     0.0667640     0.1993170
units angstrom
no_reorient
symmetry c1
}

set {
scf_type DF
mp2_type DF
e_convergence 7
reference rhf
}

energy('mp2/aug-cc-pv[tq]z', bsse_type='cp')
--------------------------------------------------------------------------

    Molecular point group: c1
  Charge       = 0
  Multiplicity = 1
  Basis Set: AUG-CC-PVTZ
    Blend: AUG-CC-PVTZ
  Basis Set: (AUG-CC-PVTZ AUX)
    Blend: AUG-CC-PVTZ-JKFIT
  @DF-RHF Final Energy:   -76.06026757488397
    Total Energy =                        -76.0602675748839658
  Basis Set: (AUG-CC-PVTZ AUX)
    Blend: AUG-CC-PVTZ-RI
	 Reference Energy          =     -76.0602675748839658 [Eh]
	 Singles Energy            =      -0.0000000000000000 [Eh]
	 Same-Spin Energy          =      -0.0684133600658982 [Eh]
	 Opposite-Spin Energy      =      -0.2153882695189415 [Eh]
	 Correlation Energy        =      -0.2838016295848397 [Eh]
	 Total Energy              =     -76.3440692044688092 [Eh]
	 SCS Total Energy          =     -76.3415379516619907 [Eh]
    Molecular point group: c1
  Basis Set: AUG-CC-PVQZ
    Blend: AUG-CC-PVQZ
  Basis Set: (AUG-CC-PVQZ AUX)
    Blend: AUG-CC-PVQZ-JKFIT
  @DF-RHF Final Energy:   -76.06563725673330
    Total Energy =                        -76.0656372567332966
  Basis Set: (AUG-CC-PVQZ AUX)
  @DF-RHF Final Energy:   -76.06035425754469
    Total Energy =                        -76.0603542575446738
  @DF-RHF Final Energy:   -76.06567847869759
    Total Energy =                        -76.0656784786975919
  @DF-RHF Final Energy:   -95.61778525748123
    Total Energy =                        -95.6177852574812306
  @DF-RHF Final Energy:   -95.62385802100364
    Total Energy =                        -95.6238580210036417
  @DF-RHF Final Energy:   -95.61774885266550
    Total Energy =                        -95.6177488526654997
  @DF-RHF Final Energy:   -95.62384687929138
    Total Energy =                        -95.6238468792913778
  Multiplicity = 1
  @DF-RHF Final Energy:  -171.70453610231669
    Total Energy =                       -171.7045361023166947
	 Singles Energy            =      -0.0000000000000000 [Eh]
	 Same-Spin Energy          =      -0.1605637774022909 [Eh]
	 Opposite-Spin Energy      =      -0.5666648741201483 [Eh]
	 Correlation Energy        =      -0.7272286515224392 [Eh]
	 Total Energy              =    -172.4317647538391327 [Eh]
	 SCS Total Energy          =    -172.4380552103949640 [Eh]
    Molecular point group: c1

    Geometry (in Angstrom), charge = 1, multiplicity = 1:

       Center              X                  Y                   Z               Mass
    ------------   -----------------  -----------------  -----------------  -----------------
         N           -0.841765912581    -0.541777880965    -0.105932523224    14.003074004430
         H           -0.908262912581    -1.489338880965     0.262141476776     1.007825032230
         H           -1.377940912581    -0.518273880965    -0.971805523224     1.007825032230
         H            0.158768087419    -0.350129880965    -0.335948523224     1.007825032230
         C           -1.359421912581     0.458026119035     0.877907476776    12.000000000000
         H           -1.267323912581     1.444547119035     0.439900476776     1.007825032230
         H           -2.396798912581     0.236138119035     1.098145476776     1.007825032230
         H           -0.758446912581     0.392429119035     1.776841476776     1.007825032230
         O            1.863679087419     0.121213119035    -0.614021523224    15.994914619570
         H            2.209026087419     0.668314119035    -1.325760523224     1.007825032230
         H            2.645234087419    -0.233412880965    -0.179777523224     1.007825032230

  Charge       = 1
  Multiplicity = 1
  Basis Set: AUG-CC-PVQZ
    Blend: AUG-CC-PVQZ
  Basis Set: (AUG-CC-PVQZ AUX)
    Blend: AUG-CC-PVQZ-JKFIT

    Orbital Energies [Eh]
    ---------------------

    Doubly Occupied:

       1A    -20.745795     2A    -15.867815     3A    -11.463395
       4A     -1.535488     5A     -1.489983     6A     -1.148790
       7A     -0.955114     8A     -0.953530     9A     -0.896970
      10A     -0.838660    11A     -0.783697    12A     -0.756934
      13A     -0.746014    14A     -0.695452

  @DF-RHF Final Energy:  -171.71600019227466

   => Energetics <=

    Nuclear Repulsion Energy =             88.2402634819891034
    One-Electron Energy =                -402.1572515258180829
    Two-Electron Energy =                 142.2009878515542880
    Total Energy =                       -171.7160001922746630

  Dipole Moment: [D]
     X:    -1.2231      Y:    -1.2628      Z:    -0.5282     Total:     1.8357

  Basis Set: (AUG-CC-PVQZ AUX)
    Blend: AUG-CC-PVQZ-RI
	 Reference Energy          =    -171.7160001922746630 [Eh]
	 Singles Energy            =      -0.0000000000000000 [Eh]
	 Same-Spin Energy          =      -0.1704979286723316 [Eh]
	 Opposite-Spin Energy      =      -0.6350045725661180 [Eh]
	 Correlation Energy        =      -0.8055025012384496 [Eh]
	 Total Energy              =    -172.5215026935130993 [Eh]

	 ================> DF-SCS-MP2 Energies <==================
	-----------------------------------------------------------
	 SCS Same-Spin Scale       =       0.3333333333333333 [-]
	 SCS Opposite-Spin Scale   =       1.2000000000000000 [-]
	 SCS Same-Spin Energy      =      -0.0568326428907772 [Eh]
	 SCS Opposite-Spin Energy  =      -0.7620054870793416 [Eh]
	 SCS Correlation Energy    =      -0.8188381299701187 [Eh]
	 SCS Total Energy          =    -172.5348383222447808 [Eh]
	-----------------------------------------------------------

*** Psi4 exiting successfully. Buy a developer a beer!
