                               Psi4 1.4a2.dev224

  ==> Input File <==

--------------------------------------------------------------------------
#Generated by lconvert.py for cbs job

memory 20 GB

molecule  {
1 1
  N      -0.635100   -0.241600    0.273160
  H      -0.701590   -1.189160    0.641240
  H      -1.171270   -0.218100   -0.592710
  H       0.365440   -0.049950    0.043150
  C      -1.152750    0.758200    1.257000
  H      -1.060650    1.744720    0.819000
  H      -2.190130    0.536310    1.477240
  H      -0.551780    0.692610    2.155940
--
0 1
  O       3.450510    0.802950   -0.460030
  H       3.795860    1.350050   -1.171770
  H       4.232070    0.448320   -0.025790
units angstrom
no_reorient
symmetry c1
}

set {
scf_type DF
mp2_type DF
e_convergence 7
reference rhf
}

energy('mp2/aug-cc-pv[tq]z', bsse_type='cp')
--------------------------------------------------------------------------

    Molecular point group: c1
  Charge       = 0
  Multiplicity = 1
  Basis Set: AUG-CC-PVTZ
    Blend: AUG-CC-PVTZ
  Basis Set: (AUG-CC-PVTZ AUX)
    Blend: AUG-CC-PVTZ-JKFIT
  @DF-RHF Final Energy:   -76.06026734911887
    Total Energy =                        -76.0602673491188739
  Basis Set: (AUG-CC-PVTZ AUX)
    Blend: AUG-CC-PVTZ-RI
	 Reference Energy          =     -76.0602673491188739 [Eh]
	 Singles Energy            =      -0.0000000000000000 [Eh]
	 Same-Spin Energy          =      -0.0684134105667516 [Eh]
	 Opposite-Spin Energy      =      -0.2153884223669070 [Eh]
	 Correlation Energy        =      -0.2838018329336586 [Eh]
	 Total Energy              =     -76.3440691820525359 [Eh]
	 SCS Total Energy          =     -76.3415379261480780 [Eh]
    Molecular point group: c1
  Basis Set: AUG-CC-PVQZ
    Blend: AUG-CC-PVQZ
  Basis Set: (AUG-CC-PVQZ AUX)
    Blend: AUG-CC-PVQZ-JKFIT
  @DF-RHF Final Energy:   -76.06563701885570
    Total Energy =                        -76.0656370188556963
  Basis Set: (AUG-CC-PVQZ AUX)
  @DF-RHF Final Energy:   -76.06027852166866
    Total Energy =                        -76.0602785216686499
  @DF-RHF Final Energy:   -76.06564689853043
    Total Energy =                        -76.0656468985304315
  @DF-RHF Final Energy:   -95.61775534649379
    Total Energy =                        -95.6177553464937944
  @DF-RHF Final Energy:   -95.62384920984267
    Total Energy =                        -95.6238492098426747
  @DF-RHF Final Energy:   -95.61774862329501
    Total Energy =                        -95.6177486232950145
  @DF-RHF Final Energy:   -95.62384665406138
    Total Energy =                        -95.6238466540613814
  Multiplicity = 1
  @DF-RHF Final Energy:  -171.69069701293506
    Total Energy =                       -171.6906970129350611
	 Singles Energy            =      -0.0000000000000000 [Eh]
	 Same-Spin Energy          =      -0.1585254461612425 [Eh]
	 Opposite-Spin Energy      =      -0.5641339765115505 [Eh]
	 Correlation Energy        =      -0.7226594226727929 [Eh]
	 Total Energy              =    -172.4133564356078523 [Eh]
	 SCS Total Energy          =    -172.4204996001359973 [Eh]
    Molecular point group: c1

    Geometry (in Angstrom), charge = 1, multiplicity = 1:

       Center              X                  Y                   Z               Mass
    ------------   -----------------  -----------------  -----------------  -----------------
         N           -1.338317428648    -0.679052153886    -0.024947240871    14.003074004430
         H           -1.404807428648    -1.626612153886     0.343132759129     1.007825032230
         H           -1.874487428648    -0.655552153886    -0.890817240871     1.007825032230
         H           -0.337777428648    -0.487402153886    -0.254957240871     1.007825032230
         C           -1.855967428648     0.320747846114     0.958892759129    12.000000000000
         H           -1.763867428648     1.307267846114     0.520892759129     1.007825032230
         H           -2.893347428648     0.098857846114     1.179132759129     1.007825032230
         H           -1.254997428648     0.255157846114     1.857832759129     1.007825032230
         O            2.747292571352     0.365497846114    -0.758137240871    15.994914619570
         H            3.092642571352     0.912597846114    -1.469877240871     1.007825032230
         H            3.528852571352     0.010867846114    -0.323897240871     1.007825032230

  Charge       = 1
  Multiplicity = 1
  Basis Set: AUG-CC-PVQZ
    Blend: AUG-CC-PVQZ
  Basis Set: (AUG-CC-PVQZ AUX)
    Blend: AUG-CC-PVQZ-JKFIT

    Orbital Energies [Eh]
    ---------------------

    Doubly Occupied:

       1A    -20.682698     2A    -15.898688     3A    -11.477875
       4A     -1.514589     5A     -1.467908     6A     -1.165591
       7A     -0.976310     8A     -0.971279     9A     -0.856235
      10A     -0.832796    11A     -0.771733    12A     -0.771379
      13A     -0.706539    14A     -0.628851

  @DF-RHF Final Energy:  -171.70214316932851

   => Energetics <=

    Nuclear Repulsion Energy =             78.6752386490207982
    One-Electron Energy =                -383.3098264001833400
    Two-Electron Energy =                 132.9324445818340337
    Total Energy =                       -171.7021431693285081

  Dipole Moment: [D]
     X:    -4.4767      Y:    -2.0342      Z:     0.1032     Total:     4.9183

  Basis Set: (AUG-CC-PVQZ AUX)
    Blend: AUG-CC-PVQZ-RI
	 Reference Energy          =    -171.7021431693285081 [Eh]
	 Singles Energy            =      -0.0000000000000000 [Eh]
	 Same-Spin Energy          =      -0.1684635740015016 [Eh]
	 Opposite-Spin Energy      =      -0.6333266842003649 [Eh]
	 Correlation Energy        =      -0.8017902582018666 [Eh]
	 Total Energy              =    -172.5039334275303702 [Eh]

	 ================> DF-SCS-MP2 Energies <==================
	-----------------------------------------------------------
	 SCS Same-Spin Scale       =       0.3333333333333333 [-]
	 SCS Opposite-Spin Scale   =       1.2000000000000000 [-]
	 SCS Same-Spin Energy      =      -0.0561545246671672 [Eh]
	 SCS Opposite-Spin Energy  =      -0.7599920210404378 [Eh]
	 SCS Correlation Energy    =      -0.8161465457076050 [Eh]
	 SCS Total Energy          =    -172.5182897150361043 [Eh]
	-----------------------------------------------------------

*** Psi4 exiting successfully. Buy a developer a beer!
