                               Psi4 1.4a2.dev224

  ==> Input File <==

--------------------------------------------------------------------------
#Generated by lconvert.py for cbs job

memory 40 GB

molecule  {
1 1
  N       -0.6350970    -0.2416010     0.2731620
  H       -0.7015940    -1.1891620     0.6412360
  H       -1.1712720    -0.2180970    -0.5927110
  H        0.3654370    -0.0499530     0.0431460
  C       -1.1527530     0.7582030     1.2570020
  H       -1.0606550     1.7447240     0.8189950
  H       -2.1901300     0.5363150     1.4772400
  H       -0.5517780     0.6926060     2.1559360
--
0 1
  O        1.9891620     0.3989450    -0.2216850
  H        2.3345090     0.9460460    -0.9334240
  H        2.7707170     0.0443190     0.2125590
units angstrom
no_reorient
symmetry c1
}

set {
scf_type DF
mp2_type DF
e_convergence 7
reference rhf
}

energy('mp2/aug-cc-pv[tq]z', bsse_type='cp')
--------------------------------------------------------------------------

    Molecular point group: c1
  Charge       = 0
  Multiplicity = 1
  Basis Set: AUG-CC-PVTZ
    Blend: AUG-CC-PVTZ
  Basis Set: (AUG-CC-PVTZ AUX)
    Blend: AUG-CC-PVTZ-JKFIT
  @DF-RHF Final Energy:   -76.06026757488863
    Total Energy =                        -76.0602675748886270
  Basis Set: (AUG-CC-PVTZ AUX)
    Blend: AUG-CC-PVTZ-RI
	 Reference Energy          =     -76.0602675748886270 [Eh]
	 Singles Energy            =      -0.0000000000000000 [Eh]
	 Same-Spin Energy          =      -0.0684133600658846 [Eh]
	 Opposite-Spin Energy      =      -0.2153882695189287 [Eh]
	 Correlation Energy        =      -0.2838016295848133 [Eh]
	 Total Energy              =     -76.3440692044734419 [Eh]
	 SCS Total Energy          =     -76.3415379516666377 [Eh]
    Molecular point group: c1
  Basis Set: AUG-CC-PVQZ
    Blend: AUG-CC-PVQZ
  Basis Set: (AUG-CC-PVQZ AUX)
    Blend: AUG-CC-PVQZ-JKFIT
  @DF-RHF Final Energy:   -76.06563725674243
    Total Energy =                        -76.0656372567424341
  Basis Set: (AUG-CC-PVQZ AUX)
  @DF-RHF Final Energy:   -76.06036373439127
    Total Energy =                        -76.0603637343912737
  @DF-RHF Final Energy:   -76.06568257336887
    Total Energy =                        -76.0656825733688606
  @DF-RHF Final Energy:   -95.61778880169042
    Total Energy =                        -95.6177888016904234
  @DF-RHF Final Energy:   -95.62385891197296
    Total Energy =                        -95.6238589119729596
  @DF-RHF Final Energy:   -95.61774885271923
    Total Energy =                        -95.6177488527192310
  @DF-RHF Final Energy:   -95.62384687954658
    Total Energy =                        -95.6238468795465764
  Multiplicity = 1
  @DF-RHF Final Energy:  -171.70426822093555
    Total Energy =                       -171.7042682209355462
	 Singles Energy            =      -0.0000000000000000 [Eh]
	 Same-Spin Energy          =      -0.1609383639172230 [Eh]
	 Opposite-Spin Energy      =      -0.5669760095095688 [Eh]
	 Correlation Energy        =      -0.7279143734267919 [Eh]
	 Total Energy              =    -172.4321825943623310 [Eh]
	 SCS Total Energy          =    -172.4382855536527757 [Eh]
    Molecular point group: c1

    Geometry (in Angstrom), charge = 1, multiplicity = 1:

       Center              X                  Y                   Z               Mass
    ------------   -----------------  -----------------  -----------------  -----------------
         N           -0.812557192966    -0.533702723774    -0.110696668090    14.003074004430
         H           -0.879054192966    -1.481263723774     0.257377331910     1.007825032230
         H           -1.348732192966    -0.510198723774    -0.976569668090     1.007825032230
         H            0.187976807034    -0.342054723774    -0.340712668090     1.007825032230
         C           -1.330213192966     0.466101276226     0.873143331910    12.000000000000
         H           -1.238115192966     1.452622276226     0.435136331910     1.007825032230
         H           -2.367590192966     0.244213276226     1.093381331910     1.007825032230
         H           -0.729238192966     0.400504276226     1.772077331910     1.007825032230
         O            1.811701807034     0.106843276226    -0.605543668090    15.994914619570
         H            2.157048807034     0.653944276226    -1.317282668090     1.007825032230
         H            2.593256807034    -0.247782723774    -0.171299668090     1.007825032230

  Charge       = 1
  Multiplicity = 1
  Basis Set: AUG-CC-PVQZ
    Blend: AUG-CC-PVQZ
  Basis Set: (AUG-CC-PVQZ AUX)
    Blend: AUG-CC-PVQZ-JKFIT

    Orbital Energies [Eh]
    ---------------------

    Doubly Occupied:

       1A    -20.751779     2A    -15.862806     3A    -11.461587
       4A     -1.543022     5A     -1.486616     6A     -1.146714
       7A     -0.955981     8A     -0.950410     9A     -0.903484
      10A     -0.837204    11A     -0.788122    12A     -0.755157
      13A     -0.743275    14A     -0.702197

  @DF-RHF Final Energy:  -171.71572113975128

   => Energetics <=

    Nuclear Repulsion Energy =             89.0826040645763584
    One-Electron Energy =                -403.8199436546991024
    Two-Electron Energy =                 143.0216184503714771
    Total Energy =                       -171.7157211397512810

  Dipole Moment: [D]
     X:    -0.9652      Y:    -1.2112      Z:    -0.5858     Total:     1.6558

  Basis Set: (AUG-CC-PVQZ AUX)
    Blend: AUG-CC-PVQZ-RI
	 Reference Energy          =    -171.7157211397512810 [Eh]
	 Singles Energy            =      -0.0000000000000000 [Eh]
	 Same-Spin Energy          =      -0.1708865225890656 [Eh]
	 Opposite-Spin Energy      =      -0.6353240005132290 [Eh]
	 Correlation Energy        =      -0.8062105231022947 [Eh]
	 Total Energy              =    -172.5219316628535751 [Eh]

	 ================> DF-SCS-MP2 Energies <==================
	-----------------------------------------------------------
	 SCS Same-Spin Scale       =       0.3333333333333333 [-]
	 SCS Opposite-Spin Scale   =       1.2000000000000000 [-]
	 SCS Same-Spin Energy      =      -0.0569621741963552 [Eh]
	 SCS Opposite-Spin Energy  =      -0.7623888006158748 [Eh]
	 SCS Correlation Energy    =      -0.8193509748122300 [Eh]
	 SCS Total Energy          =    -172.5350721145635191 [Eh]
	-----------------------------------------------------------

*** Psi4 exiting successfully. Buy a developer a beer!
