                               Psi4 1.4a2.dev224

  ==> Input File <==

--------------------------------------------------------------------------
#Generated by lconvert.py for cbs job

memory 20 GB

molecule  {
1 1
  N      -0.635100   -0.241600    0.273160
  H      -0.701590   -1.189160    0.641240
  H      -1.171270   -0.218100   -0.592710
  H       0.365440   -0.049950    0.043150
  C      -1.152750    0.758200    1.257000
  H      -1.060650    1.744720    0.819000
  H      -2.190130    0.536310    1.477240
  H      -0.551780    0.692610    2.155940
--
0 1
  O       2.476280    0.533610   -0.301130
  H       2.821630    1.080710   -1.012870
  H       3.257830    0.178990    0.133110
units angstrom
no_reorient
symmetry c1
}

set {
scf_type DF
mp2_type DF
e_convergence 7
reference rhf
}

energy('mp2/aug-cc-pv[tq]z', bsse_type='cp')
--------------------------------------------------------------------------

    Molecular point group: c1
  Charge       = 0
  Multiplicity = 1
  Basis Set: AUG-CC-PVTZ
    Blend: AUG-CC-PVTZ
  Basis Set: (AUG-CC-PVTZ AUX)
    Blend: AUG-CC-PVTZ-JKFIT
  @DF-RHF Final Energy:   -76.06026784178421
    Total Energy =                        -76.0602678417842100
  Basis Set: (AUG-CC-PVTZ AUX)
    Blend: AUG-CC-PVTZ-RI
	 Reference Energy          =     -76.0602678417842100 [Eh]
	 Singles Energy            =      -0.0000000000000000 [Eh]
	 Same-Spin Energy          =      -0.0684133066886357 [Eh]
	 Opposite-Spin Energy      =      -0.2153881052050005 [Eh]
	 Correlation Energy        =      -0.2838014118936362 [Eh]
	 Total Energy              =     -76.3440692536778442 [Eh]
	 SCS Total Energy          =     -76.3415380035930866 [Eh]
    Molecular point group: c1
  Basis Set: AUG-CC-PVQZ
    Blend: AUG-CC-PVQZ
  Basis Set: (AUG-CC-PVQZ AUX)
    Blend: AUG-CC-PVQZ-JKFIT
  @DF-RHF Final Energy:   -76.06563754123988
    Total Energy =                        -76.0656375412398802
  Basis Set: (AUG-CC-PVQZ AUX)
  @DF-RHF Final Energy:   -76.06032536051940
    Total Energy =                        -76.0603253605193856
  @DF-RHF Final Energy:   -76.06566633515355
    Total Energy =                        -76.0656663351535514
  @DF-RHF Final Energy:   -95.61777414353355
    Total Energy =                        -95.6177741435335520
  @DF-RHF Final Energy:   -95.62385427104451
    Total Energy =                        -95.6238542710445074
  @DF-RHF Final Energy:   -95.61774862344043
    Total Energy =                        -95.6177486234404341
  @DF-RHF Final Energy:   -95.62384665422853
    Total Energy =                        -95.6238466542285295
  Multiplicity = 1
  @DF-RHF Final Energy:  -171.70081993165033
    Total Energy =                       -171.7008199316503294
	 Singles Energy            =      -0.0000000000000000 [Eh]
	 Same-Spin Energy          =      -0.1593595615408431 [Eh]
	 Opposite-Spin Energy      =      -0.5654161399733362 [Eh]
	 Correlation Energy        =      -0.7247757015141792 [Eh]
	 Total Energy              =    -172.4255956331645052 [Eh]
	 SCS Total Energy          =    -172.4324391534652818 [Eh]
    Molecular point group: c1

    Geometry (in Angstrom), charge = 1, multiplicity = 1:

       Center              X                  Y                   Z               Mass
    ------------   -----------------  -----------------  -----------------  -----------------
         N           -0.987813311492    -0.582150468906    -0.082115540171    14.003074004430
         H           -1.054303311492    -1.529710468906     0.285964459829     1.007825032230
         H           -1.523983311492    -0.558650468906    -0.947985540171     1.007825032230
         H            0.012726688508    -0.390500468906    -0.312125540171     1.007825032230
         C           -1.505463311492     0.417649531094     0.901724459829    12.000000000000
         H           -1.413363311492     1.404169531094     0.463724459829     1.007825032230
         H           -2.542843311492     0.195759531094     1.121964459829     1.007825032230
         H           -0.904493311492     0.352059531094     1.800664459829     1.007825032230
         O            2.123566688508     0.193059531094    -0.656405540171    15.994914619570
         H            2.468916688508     0.740159531094    -1.368145540171     1.007825032230
         H            2.905116688508    -0.161560468906    -0.222165540171     1.007825032230

  Charge       = 1
  Multiplicity = 1
  Basis Set: AUG-CC-PVQZ
    Blend: AUG-CC-PVQZ
  Basis Set: (AUG-CC-PVQZ AUX)
    Blend: AUG-CC-PVQZ-JKFIT

    Orbital Energies [Eh]
    ---------------------

    Doubly Occupied:

       1A    -20.720949     2A    -15.884156     3A    -11.470067
       4A     -1.507551     5A     -1.501564     6A     -1.156578
       7A     -0.964697     8A     -0.959366     9A     -0.870954
      10A     -0.846201    11A     -0.766613    12A     -0.763537
      13A     -0.746259    14A     -0.668340

  @DF-RHF Final Energy:  -171.71227061797504

   => Energetics <=

    Nuclear Repulsion Energy =             84.6346269977823908
    One-Electron Energy =                -395.0401355110061559
    Two-Electron Energy =                 138.6932378952487284
    Total Energy =                       -171.7122706179750367

  Dipole Moment: [D]
     X:    -2.3434      Y:    -1.5058      Z:    -0.2930     Total:     2.8009

  Basis Set: (AUG-CC-PVQZ AUX)
    Blend: AUG-CC-PVQZ-RI
	 Reference Energy          =    -171.7122706179750367 [Eh]
	 Singles Energy            =      -0.0000000000000000 [Eh]
	 Same-Spin Energy          =      -0.1692711645435336 [Eh]
	 Opposite-Spin Energy      =      -0.6340001168325873 [Eh]
	 Correlation Energy        =      -0.8032712813761209 [Eh]
	 Total Energy              =    -172.5155418993511489 [Eh]

	 ================> DF-SCS-MP2 Energies <==================
	-----------------------------------------------------------
	 SCS Same-Spin Scale       =       0.3333333333333333 [-]
	 SCS Opposite-Spin Scale   =       1.2000000000000000 [-]
	 SCS Same-Spin Energy      =      -0.0564237215145112 [Eh]
	 SCS Opposite-Spin Energy  =      -0.7608001401991047 [Eh]
	 SCS Correlation Energy    =      -0.8172238617136158 [Eh]
	 SCS Total Energy          =    -172.5294944796886512 [Eh]
	-----------------------------------------------------------

*** Psi4 exiting successfully. Buy a developer a beer!
