                               Psi4 1.4a2.dev224

  ==> Input File <==

--------------------------------------------------------------------------
#Generated by lconvert.py for cbs job

memory 40 GB

molecule  {
1 1
  N       -0.6350970    -0.2416010     0.2731620
  H       -0.7015940    -1.1891620     0.6412360
  H       -1.1712720    -0.2180970    -0.5927110
  H        0.3654370    -0.0499530     0.0431460
  C       -1.1527530     0.7582030     1.2570020
  H       -1.0606550     1.7447240     0.8189950
  H       -2.1901300     0.5363150     1.4772400
  H       -0.5517780     0.6926060     2.1559360
--
0 1
  O        2.1515340     0.4438350    -0.2481680
  H        2.4968820     0.9909360    -0.9599070
  H        2.9330890     0.0892090     0.1860760
units angstrom
no_reorient
symmetry c1
}

set {
scf_type DF
mp2_type DF
e_convergence 7
reference rhf
}

energy('mp2/aug-cc-pv[tq]z', bsse_type='cp')
--------------------------------------------------------------------------

    Molecular point group: c1
  Charge       = 0
  Multiplicity = 1
  Basis Set: AUG-CC-PVTZ
    Blend: AUG-CC-PVTZ
  Basis Set: (AUG-CC-PVTZ AUX)
    Blend: AUG-CC-PVTZ-JKFIT
  @DF-RHF Final Energy:   -76.06026755715710
    Total Energy =                        -76.0602675571571041
  Basis Set: (AUG-CC-PVTZ AUX)
    Blend: AUG-CC-PVTZ-RI
	 Reference Energy          =     -76.0602675571571041 [Eh]
	 Singles Energy            =      -0.0000000000000000 [Eh]
	 Same-Spin Energy          =      -0.0684133642509816 [Eh]
	 Opposite-Spin Energy      =      -0.2153882820912424 [Eh]
	 Correlation Energy        =      -0.2838016463422240 [Eh]
	 Total Energy              =     -76.3440692034993305 [Eh]
	 SCS Total Energy          =     -76.3415379504169209 [Eh]
    Molecular point group: c1
  Basis Set: AUG-CC-PVQZ
    Blend: AUG-CC-PVQZ
  Basis Set: (AUG-CC-PVQZ AUX)
    Blend: AUG-CC-PVQZ-JKFIT
  @DF-RHF Final Energy:   -76.06563723815012
    Total Energy =                        -76.0656372381501313
  Basis Set: (AUG-CC-PVQZ AUX)
  @DF-RHF Final Energy:   -76.06034523738376
    Total Energy =                        -76.0603452373837570
  @DF-RHF Final Energy:   -76.06567492432804
    Total Energy =                        -76.0656749243280217
  @DF-RHF Final Energy:   -95.61778192070190
    Total Energy =                        -95.6177819207019013
  @DF-RHF Final Energy:   -95.62385721657897
    Total Energy =                        -95.6238572165789691
  @DF-RHF Final Energy:   -95.61774885269536
    Total Energy =                        -95.6177488526953567
  @DF-RHF Final Energy:   -95.62384687937966
    Total Energy =                        -95.6238468793796557
  Multiplicity = 1
  @DF-RHF Final Energy:  -171.70426976606194
    Total Energy =                       -171.7042697660619410
	 Singles Energy            =      -0.0000000000000000 [Eh]
	 Same-Spin Energy          =      -0.1602420692397831 [Eh]
	 Opposite-Spin Energy      =      -0.5663827431220785 [Eh]
	 Correlation Energy        =      -0.7266248123618616 [Eh]
	 Total Energy              =    -172.4308945784237892 [Eh]
	 SCS Total Energy          =    -172.4373430808883541 [Eh]
    Molecular point group: c1

    Geometry (in Angstrom), charge = 1, multiplicity = 1:

       Center              X                  Y                   Z               Mass
    ------------   -----------------  -----------------  -----------------  -----------------
         N           -0.870974652329    -0.549853038157    -0.101168738132    14.003074004430
         H           -0.937471652329    -1.497414038157     0.266905261868     1.007825032230
         H           -1.407149652329    -0.526349038157    -0.967041738132     1.007825032230
         H            0.129559347671    -0.358205038157    -0.331184738132     1.007825032230
         C           -1.388630652329     0.449950961843     0.882671261868    12.000000000000
         H           -1.296532652329     1.436471961843     0.444664261868     1.007825032230
         H           -2.426007652329     0.228062961843     1.102909261868     1.007825032230
         H           -0.787655652329     0.384353961843     1.781605261868     1.007825032230
         O            1.915656347671     0.135582961843    -0.622498738132    15.994914619570
         H            2.261004347671     0.682683961843    -1.334237738132     1.007825032230
         H            2.697211347671    -0.219043038157    -0.188254738132     1.007825032230

  Charge       = 1
  Multiplicity = 1
  Basis Set: AUG-CC-PVQZ
    Blend: AUG-CC-PVQZ
  Basis Set: (AUG-CC-PVQZ AUX)
    Blend: AUG-CC-PVQZ-JKFIT

    Orbital Energies [Eh]
    ---------------------

    Doubly Occupied:

       1A    -20.740198     2A    -15.872111     3A    -11.465018
       4A     -1.528738     5A     -1.492963     6A     -1.150671
       7A     -0.956313     8A     -0.955192     9A     -0.890965
      10A     -0.840232    11A     -0.778948    12A     -0.758533
      13A     -0.748088    14A     -0.689201

  @DF-RHF Final Energy:  -171.71574063388286

   => Energetics <=

    Nuclear Repulsion Energy =             87.4429583925350897
    One-Electron Energy =                -400.5830568767156024
    Two-Electron Energy =                 141.4243578502976391
    Total Energy =                       -171.7157406338828594

  Dipole Moment: [D]
     X:    -1.4676      Y:    -1.3132      Z:    -0.4748     Total:     2.0258

  Basis Set: (AUG-CC-PVQZ AUX)
    Blend: AUG-CC-PVQZ-RI
	 Reference Energy          =    -171.7157406338828594 [Eh]
	 Singles Energy            =      -0.0000000000000000 [Eh]
	 Same-Spin Energy          =      -0.1701657904242510 [Eh]
	 Opposite-Spin Energy      =      -0.6347321460728848 [Eh]
	 Correlation Energy        =      -0.8048979364971357 [Eh]
	 Total Energy              =    -172.5206385703799867 [Eh]

	 ================> DF-SCS-MP2 Energies <==================
	-----------------------------------------------------------
	 SCS Same-Spin Scale       =       0.3333333333333333 [-]
	 SCS Opposite-Spin Scale   =       1.2000000000000000 [-]
	 SCS Same-Spin Energy      =      -0.0567219301414170 [Eh]
	 SCS Opposite-Spin Energy  =      -0.7616785752874616 [Eh]
	 SCS Correlation Energy    =      -0.8184005054288787 [Eh]
	 SCS Total Energy          =    -172.5341411393117426 [Eh]
	-----------------------------------------------------------

*** Psi4 exiting successfully. Buy a developer a beer!
