                               Psi4 1.4a2.dev224

  ==> Input File <==

--------------------------------------------------------------------------
#Generated by lconvert.py for cbs job

memory 20 GB

molecule  {
1 1
  N      -0.635100   -0.241600    0.273160
  H      -0.701590   -1.189160    0.641240
  H      -1.171270   -0.218100   -0.592710
  H       0.365440   -0.049950    0.043150
  C      -1.152750    0.758200    1.257000
  H      -1.060650    1.744720    0.819000
  H      -2.190130    0.536310    1.477240
  H      -0.551780    0.692610    2.155940
--
0 1
  O       2.963390    0.668280   -0.380580
  H       3.308740    1.215380   -1.092320
  H       3.744950    0.313650    0.053660
units angstrom
no_reorient
symmetry c1
}

set {
scf_type DF
mp2_type DF
e_convergence 7
reference rhf
}

energy('mp2/aug-cc-pv[tq]z', bsse_type='cp')
--------------------------------------------------------------------------

    Molecular point group: c1
  Charge       = 0
  Multiplicity = 1
  Basis Set: AUG-CC-PVTZ
    Blend: AUG-CC-PVTZ
  Basis Set: (AUG-CC-PVTZ AUX)
    Blend: AUG-CC-PVTZ-JKFIT
  @DF-RHF Final Energy:   -76.06026734910139
    Total Energy =                        -76.0602673491013945
  Basis Set: (AUG-CC-PVTZ AUX)
    Blend: AUG-CC-PVTZ-RI
	 Reference Energy          =     -76.0602673491013945 [Eh]
	 Singles Energy            =      -0.0000000000000000 [Eh]
	 Same-Spin Energy          =      -0.0684134105667918 [Eh]
	 Opposite-Spin Energy      =      -0.2153884223669791 [Eh]
	 Correlation Energy        =      -0.2838018329337708 [Eh]
	 Total Energy              =     -76.3440691820351702 [Eh]
	 SCS Total Energy          =     -76.3415379261306981 [Eh]
    Molecular point group: c1
  Basis Set: AUG-CC-PVQZ
    Blend: AUG-CC-PVQZ
  Basis Set: (AUG-CC-PVQZ AUX)
    Blend: AUG-CC-PVQZ-JKFIT
  @DF-RHF Final Energy:   -76.06563701887379
    Total Energy =                        -76.0656370188737867
  Basis Set: (AUG-CC-PVQZ AUX)
  @DF-RHF Final Energy:   -76.06030157726434
    Total Energy =                        -76.0603015772643403
  @DF-RHF Final Energy:   -76.06565397071803
    Total Energy =                        -76.0656539707180315
  @DF-RHF Final Energy:   -95.61776337672990
    Total Energy =                        -95.6177633767298971
  @DF-RHF Final Energy:   -95.62385136400123
    Total Energy =                        -95.6238513640012258
  @DF-RHF Final Energy:   -95.61774862336060
    Total Energy =                        -95.6177486233605975
  @DF-RHF Final Energy:   -95.62384665432235
    Total Energy =                        -95.6238466543223495
  Multiplicity = 1
  @DF-RHF Final Energy:  -171.69491477958942
    Total Energy =                       -171.6949147795894248
	 Singles Energy            =      -0.0000000000000000 [Eh]
	 Same-Spin Energy          =      -0.1587528333981708 [Eh]
	 Opposite-Spin Energy      =      -0.5644910484155797 [Eh]
	 Correlation Energy        =      -0.7232438818137505 [Eh]
	 Total Energy              =    -172.4181586614031687 [Eh]
	 SCS Total Energy          =    -172.4252216488208376 [Eh]
    Molecular point group: c1

    Geometry (in Angstrom), charge = 1, multiplicity = 1:

       Center              X                  Y                   Z               Mass
    ------------   -----------------  -----------------  -----------------  -----------------
         N           -1.163063671854    -0.630601210735    -0.053531390521    14.003074004430
         H           -1.229553671854    -1.578161210735     0.314548609479     1.007825032230
         H           -1.699233671854    -0.607101210735    -0.919401390521     1.007825032230
         H           -0.162523671854    -0.438951210735    -0.283541390521     1.007825032230
         C           -1.680713671854     0.369198789265     0.930308609479    12.000000000000
         H           -1.588613671854     1.355718789265     0.492308609479     1.007825032230
         H           -2.718093671854     0.147308789265     1.150548609479     1.007825032230
         H           -1.079743671854     0.303608789265     1.829248609479     1.007825032230
         O            2.435426328146     0.279278789265    -0.707271390521    15.994914619570
         H            2.780776328146     0.826378789265    -1.419011390521     1.007825032230
         H            3.216986328146    -0.075351210735    -0.273031390521     1.007825032230

  Charge       = 1
  Multiplicity = 1
  Basis Set: AUG-CC-PVQZ
    Blend: AUG-CC-PVQZ
  Basis Set: (AUG-CC-PVQZ AUX)
    Blend: AUG-CC-PVQZ-JKFIT

    Orbital Energies [Eh]
    ---------------------

    Doubly Occupied:

       1A    -20.698995     2A    -15.893653     3A    -11.474867
       4A     -1.510080     5A     -1.484237     6A     -1.162164
       7A     -0.972064     8A     -0.966460     9A     -0.852424
      10A     -0.848948    11A     -0.768656    12A     -0.768343
      13A     -0.724574    14A     -0.645505

  @DF-RHF Final Energy:  -171.70634858794534

   => Energetics <=

    Nuclear Repulsion Energy =             81.2907160104463031
    One-Electron Energy =                -388.4521883916493152
    Two-Electron Energy =                 135.4551237932576555
    Total Energy =                       -171.7063485879453424

  Dipole Moment: [D]
     X:    -3.4686      Y:    -1.7766      Z:    -0.0777     Total:     3.8979

  Basis Set: (AUG-CC-PVQZ AUX)
    Blend: AUG-CC-PVQZ-RI
	 Reference Energy          =    -171.7063485879453424 [Eh]
	 Singles Energy            =      -0.0000000000000000 [Eh]
	 Same-Spin Energy          =      -0.1686780860668495 [Eh]
	 Opposite-Spin Energy      =      -0.6334914732000437 [Eh]
	 Correlation Energy        =      -0.8021695592668933 [Eh]
	 Total Energy              =    -172.5085181472122429 [Eh]

	 ================> DF-SCS-MP2 Energies <==================
	-----------------------------------------------------------
	 SCS Same-Spin Scale       =       0.3333333333333333 [-]
	 SCS Opposite-Spin Scale   =       1.2000000000000000 [-]
	 SCS Same-Spin Energy      =      -0.0562260286889498 [Eh]
	 SCS Opposite-Spin Energy  =      -0.7601897678400524 [Eh]
	 SCS Correlation Energy    =      -0.8164157965290023 [Eh]
	 SCS Total Energy          =    -172.5227643844743568 [Eh]
	-----------------------------------------------------------

*** Psi4 exiting successfully. Buy a developer a beer!
