                               Psi4 1.4a2.dev224

  ==> Input File <==

--------------------------------------------------------------------------
#Generated by lconvert.py for cbs job

memory 40 GB

molecule  {
1 1
  C       -3.7195090    -0.0093720     0.0318270
  C       -2.6580580    -0.8707070     0.1044850
  N       -1.5214890    -0.1124320     0.0049090
  C       -1.8486950     1.1719820    -0.1250300
  N       -3.1843230     1.2449730    -0.1097680
  H       -3.7097160     2.1036050    -0.1913600
  H       -0.5489970    -0.4684270     0.0257510
  H       -4.7780470    -0.1865730     0.0687330
  H       -2.6303350    -1.9383690     0.2166920
  H       -1.1679570     1.9973030    -0.2238380
--
0 1
  O        0.5795330    -0.8491090     0.0465340
  H        1.1287590    -1.0042730     0.8199660
  H        1.1028660    -1.1641540    -0.6956200
units angstrom
no_reorient
symmetry c1
}

set {
scf_type DF
mp2_type DF
e_convergence 7
reference rhf
}

energy('mp2/aug-cc-pv[tq]z', bsse_type='cp')
--------------------------------------------------------------------------

    Molecular point group: c1
  Charge       = 0
  Multiplicity = 1
  Basis Set: AUG-CC-PVTZ
    Blend: AUG-CC-PVTZ
  Basis Set: (AUG-CC-PVTZ AUX)
    Blend: AUG-CC-PVTZ-JKFIT
  @DF-RHF Final Energy:   -76.06033366190196
    Total Energy =                        -76.0603336619019643
  Basis Set: (AUG-CC-PVTZ AUX)
    Blend: AUG-CC-PVTZ-RI
	 Reference Energy          =     -76.0603336619019643 [Eh]
	 Singles Energy            =      -0.0000000000000000 [Eh]
	 Same-Spin Energy          =      -0.0683964199492639 [Eh]
	 Opposite-Spin Energy      =      -0.2153375313285344 [Eh]
	 Correlation Energy        =      -0.2837339512777983 [Eh]
	 Total Energy              =     -76.3440676131797602 [Eh]
	 SCS Total Energy          =     -76.3415375061459542 [Eh]
    Molecular point group: c1
  Basis Set: AUG-CC-PVQZ
    Blend: AUG-CC-PVQZ
  Basis Set: (AUG-CC-PVQZ AUX)
    Blend: AUG-CC-PVQZ-JKFIT
  @DF-RHF Final Energy:   -76.06570621672449
    Total Energy =                        -76.0657062167244931
  Basis Set: (AUG-CC-PVQZ AUX)
  @DF-RHF Final Energy:   -76.06052506975554
    Total Energy =                        -76.0605250697555562
  @DF-RHF Final Energy:   -76.06577702635522
    Total Energy =                        -76.0657770263552209
  @DF-RHF Final Energy:  -225.27750631456874
    Total Energy =                       -225.2775063145687398
  @DF-RHF Final Energy:  -225.29101525817268
    Total Energy =                       -225.2910152581726777
  @DF-RHF Final Energy:  -225.27734015579469
    Total Energy =                       -225.2773401557946897
  @DF-RHF Final Energy:  -225.29098264531035
    Total Energy =                       -225.2909826453103506
  Multiplicity = 1
  @DF-RHF Final Energy:  -301.32479016248266
    Total Energy =                       -301.3247901624826568
	 Singles Energy            =      -0.0000000000000000 [Eh]
	 Same-Spin Energy          =      -0.3115048819219039 [Eh]
	 Opposite-Spin Energy      =      -0.9591408364088331 [Eh]
	 Correlation Energy        =      -1.2706457183307369 [Eh]
	 Total Energy              =    -302.5954358808133975 [Eh]
	 SCS Total Energy          =    -302.5795941268139018 [Eh]
    Molecular point group: c1

    Geometry (in Angstrom), charge = 1, multiplicity = 1:

       Center              X                  Y                   Z               Mass
    ------------   -----------------  -----------------  -----------------  -----------------
         C           -1.812367559709    -0.068120570280     0.038353546159    12.000000000000
         C           -0.750916559709    -0.929455570280     0.111011546159    12.000000000000
         N            0.385652440291    -0.171180570280     0.011435546159    14.003074004430
         C            0.058446440291     1.113233429720    -0.118503453841    12.000000000000
         N           -1.277181559709     1.186224429720    -0.103241453841    14.003074004430
         H           -1.802574559709     2.044856429720    -0.184833453841     1.007825032230
         H            1.358144440291    -0.527175570280     0.032277546159     1.007825032230
         H           -2.870905559709    -0.245321570280     0.075259546159     1.007825032230
         H           -0.723193559709    -1.997117570280     0.223218546159     1.007825032230
         H            0.739184440291     1.938554429720    -0.217311453841     1.007825032230
         O            2.486674440291    -0.907857570280     0.053060546159    15.994914619570
         H            3.035900440291    -1.063021570280     0.826492546159     1.007825032230
         H            3.010007440291    -1.222902570280    -0.689093453841     1.007825032230

  Charge       = 1
  Multiplicity = 1
  Basis Set: AUG-CC-PVQZ
    Blend: AUG-CC-PVQZ
  Basis Set: (AUG-CC-PVQZ AUX)
    Blend: AUG-CC-PVQZ-JKFIT

    Orbital Energies [Eh]
    ---------------------

    Doubly Occupied:

       1A    -20.776294     2A    -15.810821     3A    -15.767371
       4A    -11.504800     5A    -11.438962     6A    -11.433353
       7A     -1.596604     8A     -1.548778     9A     -1.387234
      10A     -1.207200    11A     -1.076815    12A     -1.010500
      13A     -0.965288    14A     -0.939094    15A     -0.923229
      16A     -0.802911    17A     -0.799924    18A     -0.788196
      19A     -0.779649    20A     -0.740233    21A     -0.710061
      22A     -0.618683    23A     -0.507446

  @DF-RHF Final Energy:  -301.34366406322323

   => Energetics <=

    Nuclear Repulsion Energy =            241.9814550796079686
    One-Electron Energy =                -880.3833426790031353
    Two-Electron Energy =                 337.0582235361719654
    Total Energy =                       -301.3436640632232297

  Dipole Moment: [D]
     X:     2.5615      Y:     0.5817      Z:    -0.1053     Total:     2.6289

  Basis Set: (AUG-CC-PVQZ AUX)
    Blend: AUG-CC-PVQZ-RI
	 Reference Energy          =    -301.3436640632232297 [Eh]
	 Singles Energy            =      -0.0000000000000000 [Eh]
	 Same-Spin Energy          =      -0.3299233639766774 [Eh]
	 Opposite-Spin Energy      =      -1.0799071061685037 [Eh]
	 Correlation Energy        =      -1.4098304701451811 [Eh]
	 Total Energy              =    -302.7534945333684391 [Eh]

	 ================> DF-SCS-MP2 Energies <==================
	-----------------------------------------------------------
	 SCS Same-Spin Scale       =       0.3333333333333333 [-]
	 SCS Opposite-Spin Scale   =       1.2000000000000000 [-]
	 SCS Same-Spin Energy      =      -0.1099744546588925 [Eh]
	 SCS Opposite-Spin Energy  =      -1.2958885274022045 [Eh]
	 SCS Correlation Energy    =      -1.4058629820610971 [Eh]
	 SCS Total Energy          =    -302.7495270452843101 [Eh]
	-----------------------------------------------------------

*** Psi4 exiting successfully. Buy a developer a beer!
