                               Psi4 1.4a2.dev224

  ==> Input File <==

--------------------------------------------------------------------------
#Generated by lconvert.py for cbs job

memory 40 GB

molecule  {
1 1
  C       -3.7195090    -0.0093720     0.0318270
  C       -2.6580580    -0.8707070     0.1044850
  N       -1.5214890    -0.1124320     0.0049090
  C       -1.8486950     1.1719820    -0.1250300
  N       -3.1843230     1.2449730    -0.1097680
  H       -3.7097160     2.1036050    -0.1913600
  H       -0.5489970    -0.4684270     0.0257510
  H       -4.7780470    -0.1865730     0.0687330
  H       -2.6303350    -1.9383690     0.2166920
  H       -1.1679570     1.9973030    -0.2238380
--
0 1
  O        0.5795330    -0.8491090     0.0465340
  H        1.1287590    -1.0042730     0.8199660
  H        1.1028660    -1.1641540    -0.6956200
units angstrom
no_reorient
symmetry c1
}

set {
scf_type DF
mp2_type DF
e_convergence 7
reference rhf
}

energy('mp2/aug-cc-pv[tq]z', bsse_type='cp')
--------------------------------------------------------------------------

    Molecular point group: c1
  Charge       = 0
  Multiplicity = 1
  Basis Set: AUG-CC-PVTZ
    Blend: AUG-CC-PVTZ
  Basis Set: (AUG-CC-PVTZ AUX)
    Blend: AUG-CC-PVTZ-JKFIT
  @DF-RHF Final Energy:   -76.06033366190196
    Total Energy =                        -76.0603336619019643
  Basis Set: (AUG-CC-PVTZ AUX)
    Blend: AUG-CC-PVTZ-RI
	 Reference Energy          =     -76.0603336619019643 [Eh]
	 Singles Energy            =      -0.0000000000000000 [Eh]
	 Same-Spin Energy          =      -0.0683964199492639 [Eh]
	 Opposite-Spin Energy      =      -0.2153375313285344 [Eh]
	 Correlation Energy        =      -0.2837339512777983 [Eh]
	 Total Energy              =     -76.3440676131797602 [Eh]
	 SCS Total Energy          =     -76.3415375061459542 [Eh]
    Molecular point group: c1
  Basis Set: AUG-CC-PVQZ
    Blend: AUG-CC-PVQZ
  Basis Set: (AUG-CC-PVQZ AUX)
    Blend: AUG-CC-PVQZ-JKFIT
  @DF-RHF Final Energy:   -76.06570621672449
    Total Energy =                        -76.0657062167244931
  Basis Set: (AUG-CC-PVQZ AUX)
  @DF-RHF Final Energy:   -76.06052506975554
    Total Energy =                        -76.0605250697555562
  @DF-RHF Final Energy:   -76.06577702635522
    Total Energy =                        -76.0657770263552209
  @DF-RHF Final Energy:  -225.27750631456874
    Total Energy =                       -225.2775063145687398
  @DF-RHF Final Energy:  -225.29101525817268
    Total Energy =                       -225.2910152581726777
  @DF-RHF Final Energy:  -225.27734015579469
    Total Energy =                       -225.2773401557946897
  @DF-RHF Final Energy:  -225.29098264531035
    Total Energy =                       -225.2909826453103506
  @DF-RHF Final Energy:  -301.32479016248266
    Total Energy =                       -301.3247901624826568
  @DF-RHF Final Energy:  -301.34366406322323
    Total Energy =                       -301.3436640632232297
*** Psi4 exiting successfully. Buy a developer a beer!
                               Psi4 1.4a2.dev224
  @DF-RHF Final Energy:   -76.06033363721725
    Total Energy =                        -76.0603336372172407
  @DF-RHF Final Energy:   -76.06570619060690
    Total Energy =                        -76.0657061906069174
  @DF-RHF Final Energy:   -76.06049115288226
    Total Energy =                        -76.0604911528822640
  @DF-RHF Final Energy:   -76.06576726209462
    Total Energy =                        -76.0657672620946101
  @DF-RHF Final Energy:  -225.27748823039843
    Total Energy =                       -225.2774882303984327
  @DF-RHF Final Energy:  -225.29101072502317
    Total Energy =                       -225.2910107250231704
  @DF-RHF Final Energy:  -225.27734015581026
    Total Energy =                       -225.2773401558102648
  @DF-RHF Final Energy:  -225.29098264463036
    Total Energy =                       -225.2909826446303612
  @DF-RHF Final Energy:  -301.34759137239189
    Total Energy =                       -301.3475913723918893
  @DF-RHF Final Energy:  -301.36643744936799
    Total Energy =                       -301.3664374493679929
*** Psi4 exiting successfully. Buy a developer a beer!
                               Psi4 1.4a2.dev224
                               Psi4 1.4a2.dev224
                               Psi4 1.4a2.dev224
                               Psi4 1.4a2.dev224
                               Psi4 1.4a2.dev224
                               Psi4 1.4a2.dev224
                               Psi4 1.4a2.dev224
  @DF-RHF Final Energy:   -76.06033386257451
    Total Energy =                        -76.0603338625744954
  @DF-RHF Final Energy:   -76.06570642744443
    Total Energy =                        -76.0657064274444394
  @DF-RHF Final Energy:   -76.06037012139802
    Total Energy =                        -76.0603701213980088
  @DF-RHF Final Energy:   -76.06572353180685
    Total Energy =                        -76.0657235318068530
  @DF-RHF Final Energy:  -225.27737696163314
    Total Energy =                       -225.2773769616331379
  @DF-RHF Final Energy:  -225.29098974944023
    Total Energy =                       -225.2909897494402287
  @DF-RHF Final Energy:  -225.27734023119422
    Total Energy =                       -225.2773402311942164
  @DF-RHF Final Energy:  -225.29098272585219
    Total Energy =                       -225.2909827258521887
  @DF-RHF Final Energy:  -301.35241414498347
    Total Energy =                       -301.3524141449834701
  @DF-RHF Final Energy:  -301.37137130983552
    Total Energy =                       -301.3713713098355242
*** Psi4 exiting successfully. Buy a developer a beer!
                               Psi4 1.4a2.dev224
  @DF-RHF Final Energy:   -76.06033391514326
    Total Energy =                        -76.0603339151432607
  @DF-RHF Final Energy:   -76.06570648600562
    Total Energy =                        -76.0657064860056096
  @DF-RHF Final Energy:   -76.06034624754756
    Total Energy =                        -76.0603462475475567
  @DF-RHF Final Energy:   -76.06571699301961
    Total Energy =                        -76.0657169930196062
  @DF-RHF Final Energy:  -225.27735611051804
    Total Energy =                       -225.2773561105180420
  @DF-RHF Final Energy:  -225.29098598292586
    Total Energy =                       -225.2909859829258608
  @DF-RHF Final Energy:  -225.27734023175989
    Total Energy =                       -225.2773402317598936
  @DF-RHF Final Energy:  -225.29098272495469
    Total Energy =                       -225.2909827249546879
  Multiplicity = 1
  @DF-RHF Final Energy:  -301.34866502176885
    Total Energy =                       -301.3486650217688521
	 Singles Energy            =      -0.0000000000000000 [Eh]
	 Same-Spin Energy          =      -0.3045811909331531 [Eh]
	 Opposite-Spin Energy      =      -0.9525594875975869 [Eh]
	 Correlation Energy        =      -1.2571406785307400 [Eh]
	 Total Energy              =    -302.6058057002995838 [Eh]
	 SCS Total Energy          =    -302.5932634705303599 [Eh]
    Molecular point group: c1

    Geometry (in Angstrom), charge = 1, multiplicity = 1:

       Center              X                  Y                   Z               Mass
    ------------   -----------------  -----------------  -----------------  -----------------
         C           -2.212612591003     0.066895494442     0.030986559915    12.000000000000
         C           -1.151162591003    -0.794444505558     0.103636559915    12.000000000000
         N           -0.014592591003    -0.036164505558     0.004066559915    14.003074004430
         C           -0.341792591003     1.248245494442    -0.125873440085    12.000000000000
         N           -1.677422591003     1.321235494442    -0.110613440085    14.003074004430
         H           -2.202822591003     2.179865494442    -0.192203440085     1.007825032230
         H            0.957897408997    -0.392164505558     0.024906559915     1.007825032230
         H           -3.271152591003    -0.110304505558     0.067886559915     1.007825032230
         H           -1.123442591003    -1.862104505558     0.215846559915     1.007825032230
         H            0.338937408997     2.073565494442    -0.224683440085     1.007825032230
         O            4.021047408997    -1.425444505558     0.081316559915    15.994914619570
         H            4.570277408997    -1.580604505558     0.854746559915     1.007825032230
         H            4.544377408997    -1.740484505558    -0.660833440085     1.007825032230

  Charge       = 1
  Multiplicity = 1
  Basis Set: AUG-CC-PVQZ
    Blend: AUG-CC-PVQZ
  Basis Set: (AUG-CC-PVQZ AUX)
    Blend: AUG-CC-PVQZ-JKFIT

    Orbital Energies [Eh]
    ---------------------

    Doubly Occupied:

       1A    -20.670656     2A    -15.841028     3A    -15.840811
       4A    -11.541891     5A    -11.466385     6A    -11.464648
       7A     -1.587570     8A     -1.456203     9A     -1.424651
      10A     -1.238047    11A     -1.087640    12A     -1.039501
      13A     -0.985671    14A     -0.888057    15A     -0.835300
      16A     -0.827766    17A     -0.821900    18A     -0.810682
      19A     -0.796354    20A     -0.693640    21A     -0.659006
      22A     -0.616848    23A     -0.535374

  @DF-RHF Final Energy:  -301.36764649252706

   => Energetics <=

    Nuclear Repulsion Energy =            218.5228120675883758
    One-Electron Energy =                -833.5216611510312532
    Two-Electron Energy =                 313.6312025909158478
    Total Energy =                       -301.3676464925270579

  Dipole Moment: [D]
     X:    -1.6951      Y:     2.1394      Z:    -0.1965     Total:     2.7366

  Basis Set: (AUG-CC-PVQZ AUX)
    Blend: AUG-CC-PVQZ-RI
	 Reference Energy          =    -301.3676464925270579 [Eh]
	 Singles Energy            =      -0.0000000000000000 [Eh]
	 Same-Spin Energy          =      -0.3229502722722590 [Eh]
	 Opposite-Spin Energy      =      -1.0744258486819500 [Eh]
	 Correlation Energy        =      -1.3973761209542090 [Eh]
	 Total Energy              =    -302.7650226134812783 [Eh]

	 ================> DF-SCS-MP2 Energies <==================
	-----------------------------------------------------------
	 SCS Same-Spin Scale       =       0.3333333333333333 [-]
	 SCS Opposite-Spin Scale   =       1.2000000000000000 [-]
	 SCS Same-Spin Energy      =      -0.1076500907574197 [Eh]
	 SCS Opposite-Spin Energy  =      -1.2893110184183401 [Eh]
	 SCS Correlation Energy    =      -1.3969611091757597 [Eh]
	 SCS Total Energy          =    -302.7646076017028349 [Eh]
	-----------------------------------------------------------

*** Psi4 exiting successfully. Buy a developer a beer!
