                               Psi4 1.4a2.dev224

  ==> Input File <==

--------------------------------------------------------------------------
#Generated by lconvert.py for cbs job

memory 20 GB

molecule  {
1 1
  C      -3.719510   -0.009370    0.031830
  C      -2.658060   -0.870710    0.104480
  N      -1.521490   -0.112430    0.004910
  C      -1.848690    1.171980   -0.125030
  N      -3.184320    1.244970   -0.109770
  H      -3.709720    2.103600   -0.191360
  H      -0.549000   -0.468430    0.025750
  H      -4.778050   -0.186570    0.068730
  H      -2.630340   -1.938370    0.216690
  H      -1.167960    1.997300   -0.223840
--
0 1
  O       1.546840   -1.175410    0.064350
  H       2.096070   -1.330570    0.837780
  H       2.070180   -1.490450   -0.677810
units angstrom
no_reorient
symmetry c1
}

set {
scf_type DF
mp2_type DF
e_convergence 7
reference rhf
}

energy('mp2/aug-cc-pv[tq]z', bsse_type='cp')
--------------------------------------------------------------------------

    Molecular point group: c1
  Charge       = 0
  Multiplicity = 1
  Basis Set: AUG-CC-PVTZ
    Blend: AUG-CC-PVTZ
  Basis Set: (AUG-CC-PVTZ AUX)
    Blend: AUG-CC-PVTZ-JKFIT
  @DF-RHF Final Energy:   -76.06033337918491
    Total Energy =                        -76.0603333791849110
  Basis Set: (AUG-CC-PVTZ AUX)
    Blend: AUG-CC-PVTZ-RI
	 Reference Energy          =     -76.0603333791849110 [Eh]
	 Singles Energy            =      -0.0000000000000000 [Eh]
	 Same-Spin Energy          =      -0.0683964822545031 [Eh]
	 Opposite-Spin Energy      =      -0.2153377211559480 [Eh]
	 Correlation Energy        =      -0.2837342034104511 [Eh]
	 Total Energy              =     -76.3440675825953576 [Eh]
	 SCS Total Energy          =     -76.3415374719902218 [Eh]
    Molecular point group: c1
  Basis Set: AUG-CC-PVQZ
    Blend: AUG-CC-PVQZ
  Basis Set: (AUG-CC-PVQZ AUX)
    Blend: AUG-CC-PVQZ-JKFIT
  @DF-RHF Final Energy:   -76.06570591691656
    Total Energy =                        -76.0657059169165422
  Basis Set: (AUG-CC-PVQZ AUX)
  @DF-RHF Final Energy:   -76.06039378505747
    Total Energy =                        -76.0603937850574710
  @DF-RHF Final Energy:   -76.06573553765908
    Total Energy =                        -76.0657355376590658
  @DF-RHF Final Energy:  -225.27741534066621
    Total Energy =                       -225.2774153406662094
  @DF-RHF Final Energy:  -225.29099445248616
    Total Energy =                       -225.2909944524861601
  @DF-RHF Final Energy:  -225.27734023127542
    Total Energy =                       -225.2773402312754172
  @DF-RHF Final Energy:  -225.29098272518078
    Total Energy =                       -225.2909827251807826
  Multiplicity = 1
  @DF-RHF Final Energy:  -301.35774020814426
    Total Energy =                       -301.3577402081442642
	 Singles Energy            =      -0.0000000000000000 [Eh]
	 Same-Spin Energy          =      -0.3055491707752312 [Eh]
	 Opposite-Spin Energy      =      -0.9540571744792399 [Eh]
	 Correlation Energy        =      -1.2596063452544710 [Eh]
	 Total Energy              =    -302.6173465533987610 [Eh]
	 SCS Total Energy          =    -302.6044585411111143 [Eh]
    Molecular point group: c1

    Geometry (in Angstrom), charge = 1, multiplicity = 1:

       Center              X                  Y                   Z               Mass
    ------------   -----------------  -----------------  -----------------  -----------------
         C           -2.012490581087    -0.000611147287     0.034671301148    12.000000000000
         C           -0.951040581087    -0.861951147287     0.107321301148    12.000000000000
         N            0.185529418913    -0.103671147287     0.007751301148    14.003074004430
         C           -0.141670581087     1.180738852713    -0.122188698852    12.000000000000
         N           -1.477300581087     1.253728852713    -0.106928698852    14.003074004430
         H           -2.002700581087     2.112358852713    -0.188518698852     1.007825032230
         H            1.158019418913    -0.459671147287     0.028591301148     1.007825032230
         H           -3.071030581087    -0.177811147287     0.071571301148     1.007825032230
         H           -0.923320581087    -1.929611147287     0.219531301148     1.007825032230
         H            0.539059418913     2.006058852713    -0.220998698852     1.007825032230
         O            3.253859418913    -1.166651147287     0.067191301148    15.994914619570
         H            3.803089418913    -1.321811147287     0.840621301148     1.007825032230
         H            3.777199418913    -1.481691147287    -0.674968698852     1.007825032230

  Charge       = 1
  Multiplicity = 1
  Basis Set: AUG-CC-PVQZ
    Blend: AUG-CC-PVQZ
  Basis Set: (AUG-CC-PVQZ AUX)
    Blend: AUG-CC-PVQZ-JKFIT

    Orbital Energies [Eh]
    ---------------------

    Doubly Occupied:

       1A    -20.704340     2A    -15.834300     3A    -15.829499
       4A    -11.534186     5A    -11.460175     6A    -11.458058
       7A     -1.579871     8A     -1.490596     9A     -1.416498
      10A     -1.231198    11A     -1.079500    12A     -1.032259
      13A     -0.979191    14A     -0.880162    15A     -0.855468
      16A     -0.827789    17A     -0.820961    18A     -0.804373
      19A     -0.790490    20A     -0.730917    21A     -0.651772
      22A     -0.650733    23A     -0.529161

  @DF-RHF Final Energy:  -301.37668521168530

   => Energetics <=

    Nuclear Repulsion Energy =            227.1980891841634502
    One-Electron Energy =                -850.8065494272626665
    Two-Electron Energy =                 322.2317750314139175
    Total Energy =                       -301.3766852116852988

  Dipole Moment: [D]
     X:    -0.2459      Y:     1.6302      Z:    -0.1677     Total:     1.6571

  Basis Set: (AUG-CC-PVQZ AUX)
    Blend: AUG-CC-PVQZ-RI
	 Reference Energy          =    -301.3766852116852988 [Eh]
	 Singles Energy            =      -0.0000000000000000 [Eh]
	 Same-Spin Energy          =      -0.3238567460347140 [Eh]
	 Opposite-Spin Energy      =      -1.0751776455719708 [Eh]
	 Correlation Energy        =      -1.3990343916066847 [Eh]
	 Total Energy              =    -302.7757196032919751 [Eh]

	 ================> DF-SCS-MP2 Energies <==================
	-----------------------------------------------------------
	 SCS Same-Spin Scale       =       0.3333333333333333 [-]
	 SCS Opposite-Spin Scale   =       1.2000000000000000 [-]
	 SCS Same-Spin Energy      =      -0.1079522486782380 [Eh]
	 SCS Opposite-Spin Energy  =      -1.2902131746863650 [Eh]
	 SCS Correlation Energy    =      -1.3981654233646030 [Eh]
	 SCS Total Energy          =    -302.7748506350499156 [Eh]
	-----------------------------------------------------------

*** Psi4 exiting successfully. Buy a developer a beer!
