                               Psi4 1.4a2.dev224

  ==> Input File <==

--------------------------------------------------------------------------
#Generated by lconvert.py for cbs job

memory 40 GB

molecule  {
1 1
  C       -3.7195090    -0.0093720     0.0318270
  C       -2.6580580    -0.8707070     0.1044850
  N       -1.5214890    -0.1124320     0.0049090
  C       -1.8486950     1.1719820    -0.1250300
  N       -3.1843230     1.2449730    -0.1097680
  H       -3.7097160     2.1036050    -0.1913600
  H       -0.5489970    -0.4684270     0.0257510
  H       -4.7780470    -0.1865730     0.0687330
  H       -2.6303350    -1.9383690     0.2166920
  H       -1.1679570     1.9973030    -0.2238380
--
0 1
  O        1.0631880    -1.0122580     0.0554410
  H        1.6124150    -1.1674220     0.8288730
  H        1.5865210    -1.3273030    -0.6867130
units angstrom
no_reorient
symmetry c1
}

set {
scf_type DF
mp2_type DF
e_convergence 7
reference rhf
}

energy('mp2/aug-cc-pv[tq]z', bsse_type='cp')
--------------------------------------------------------------------------

    Molecular point group: c1
  Charge       = 0
  Multiplicity = 1
  Basis Set: AUG-CC-PVTZ
    Blend: AUG-CC-PVTZ
  Basis Set: (AUG-CC-PVTZ AUX)
    Blend: AUG-CC-PVTZ-JKFIT
  @DF-RHF Final Energy:   -76.06033363721671
    Total Energy =                        -76.0603336372167149
  Basis Set: (AUG-CC-PVTZ AUX)
    Blend: AUG-CC-PVTZ-RI
	 Reference Energy          =     -76.0603336372167149 [Eh]
	 Singles Energy            =      -0.0000000000000000 [Eh]
	 Same-Spin Energy          =      -0.0683964256981198 [Eh]
	 Opposite-Spin Energy      =      -0.2153375487697842 [Eh]
	 Correlation Energy        =      -0.2837339744679040 [Eh]
	 Total Energy              =     -76.3440676116846220 [Eh]
	 SCS Total Energy          =     -76.3415375043065012 [Eh]
    Molecular point group: c1
  Basis Set: AUG-CC-PVQZ
    Blend: AUG-CC-PVQZ
  Basis Set: (AUG-CC-PVQZ AUX)
    Blend: AUG-CC-PVQZ-JKFIT
  @DF-RHF Final Energy:   -76.06570619062308
    Total Energy =                        -76.0657061906230751
  Basis Set: (AUG-CC-PVQZ AUX)
  @DF-RHF Final Energy:   -76.06043549670747
    Total Energy =                        -76.0604354967074698
  @DF-RHF Final Energy:   -76.06575233916742
    Total Energy =                        -76.0657523391674317
  @DF-RHF Final Energy:  -225.27745650486872
    Total Energy =                       -225.2774565048687236
  @DF-RHF Final Energy:  -225.29100182069925
    Total Energy =                       -225.2910018206992504
  @DF-RHF Final Energy:  -225.27734015548879
    Total Energy =                       -225.2773401554887869
  @DF-RHF Final Energy:  -225.29098264538678
    Total Energy =                       -225.2909826453867765
  Multiplicity = 1
  @DF-RHF Final Energy:  -301.36068930939814
    Total Energy =                       -301.3606893093981398
	 Singles Energy            =      -0.0000000000000000 [Eh]
	 Same-Spin Energy          =      -0.3073237101533792 [Eh]
	 Opposite-Spin Energy      =      -0.9559086690410068 [Eh]
	 Correlation Energy        =      -1.2632323791943860 [Eh]
	 Total Energy              =    -302.6239216885925316 [Eh]
	 SCS Total Energy          =    -302.6102209489651500 [Eh]
    Molecular point group: c1

    Geometry (in Angstrom), charge = 1, multiplicity = 1:

       Center              X                  Y                   Z               Mass
    ------------   -----------------  -----------------  -----------------  -----------------
         C           -1.912428634127    -0.034367456301     0.036510819656    12.000000000000
         C           -0.850977634127    -0.895702456301     0.109168819656    12.000000000000
         N            0.285591365873    -0.137427456301     0.009592819656    14.003074004430
         C           -0.041614634127     1.146986543699    -0.120346180344    12.000000000000
         N           -1.377242634127     1.219977543699    -0.105084180344    14.003074004430
         H           -1.902635634127     2.078609543699    -0.186676180344     1.007825032230
         H            1.258083365873    -0.493422456301     0.030434819656     1.007825032230
         H           -2.970966634127    -0.211568456301     0.073416819656     1.007825032230
         H           -0.823254634127    -1.963364456301     0.221375819656     1.007825032230
         H            0.639123365873     1.972307543699    -0.219154180344     1.007825032230
         O            2.870268365873    -1.037253456301     0.060124819656    15.994914619570
         H            3.419495365873    -1.192417456301     0.833556819656     1.007825032230
         H            3.393601365873    -1.352298456301    -0.682029180344     1.007825032230

  Charge       = 1
  Multiplicity = 1
  Basis Set: AUG-CC-PVQZ
    Blend: AUG-CC-PVQZ
  Basis Set: (AUG-CC-PVQZ AUX)
    Blend: AUG-CC-PVQZ-JKFIT

    Orbital Energies [Eh]
    ---------------------

    Doubly Occupied:

       1A    -20.732290     2A    -15.826607     3A    -15.812151
       4A    -11.524735     5A    -11.453076     6A    -11.450110
       7A     -1.570720     8A     -1.522921     9A     -1.406731
      10A     -1.223172    11A     -1.071968    12A     -1.024092
      13A     -0.972359    14A     -0.885180    15A     -0.880953
      16A     -0.818704    17A     -0.814312    18A     -0.797711
      19A     -0.790183    20A     -0.746597    21A     -0.683127
      22A     -0.640436    23A     -0.521981

  @DF-RHF Final Energy:  -301.37959321654449

   => Energetics <=

    Nuclear Repulsion Energy =            233.4407671842185437
    One-Electron Energy =                -863.3004846476239891
    Two-Electron Energy =                 328.4801242468609530
    Total Energy =                       -301.3795932165444924

  Dipole Moment: [D]
     X:     0.8331      Y:     1.2361      Z:    -0.1447     Total:     1.4977

  Basis Set: (AUG-CC-PVQZ AUX)
    Blend: AUG-CC-PVQZ-RI
	 Reference Energy          =    -301.3795932165444924 [Eh]
	 Singles Energy            =      -0.0000000000000000 [Eh]
	 Same-Spin Energy          =      -0.3256475874772378 [Eh]
	 Opposite-Spin Energy      =      -1.0766460370412374 [Eh]
	 Correlation Energy        =      -1.4022936245184752 [Eh]
	 Total Energy              =    -302.7818868410629420 [Eh]

	 ================> DF-SCS-MP2 Energies <==================
	-----------------------------------------------------------
	 SCS Same-Spin Scale       =       0.3333333333333333 [-]
	 SCS Opposite-Spin Scale   =       1.2000000000000000 [-]
	 SCS Same-Spin Energy      =      -0.1085491958257459 [Eh]
	 SCS Opposite-Spin Energy  =      -1.2919752444494847 [Eh]
	 SCS Correlation Energy    =      -1.4005244402752306 [Eh]
	 SCS Total Energy          =    -302.7801176568196979 [Eh]
	-----------------------------------------------------------

*** Psi4 exiting successfully. Buy a developer a beer!
