                               Psi4 1.4a2.dev224

  ==> Input File <==

--------------------------------------------------------------------------
#Generated by lconvert.py for cbs job

memory 40 GB

molecule  {
1 1
  C       -3.7195090    -0.0093720     0.0318270
  C       -2.6580580    -0.8707070     0.1044850
  N       -1.5214890    -0.1124320     0.0049090
  C       -1.8486950     1.1719820    -0.1250300
  N       -3.1843230     1.2449730    -0.1097680
  H       -3.7097160     2.1036050    -0.1913600
  H       -0.5489970    -0.4684270     0.0257510
  H       -4.7780470    -0.1865730     0.0687330
  H       -2.6303350    -1.9383690     0.2166920
  H       -1.1679570     1.9973030    -0.2238380
--
0 1
  O        1.2244060    -1.0666410     0.0584100
  H        1.7736340    -1.2218050     0.8318420
  H        1.7477400    -1.3816860    -0.6837440
units angstrom
no_reorient
symmetry c1
}

set {
scf_type DF
mp2_type DF
e_convergence 7
reference rhf
}

energy('mp2/aug-cc-pv[tq]z', bsse_type='cp')
--------------------------------------------------------------------------

    Molecular point group: c1
  Charge       = 0
  Multiplicity = 1
  Basis Set: AUG-CC-PVTZ
    Blend: AUG-CC-PVTZ
  Basis Set: (AUG-CC-PVTZ AUX)
    Blend: AUG-CC-PVTZ-JKFIT
  @DF-RHF Final Energy:   -76.06033358886661
    Total Energy =                        -76.0603335888666123
  Basis Set: (AUG-CC-PVTZ AUX)
    Blend: AUG-CC-PVTZ-RI
	 Reference Energy          =     -76.0603335888666123 [Eh]
	 Singles Energy            =      -0.0000000000000000 [Eh]
	 Same-Spin Energy          =      -0.0683964369842060 [Eh]
	 Opposite-Spin Energy      =      -0.2153375830028263 [Eh]
	 Correlation Energy        =      -0.2837340199870322 [Eh]
	 Total Energy              =     -76.3440676088536492 [Eh]
	 SCS Total Energy          =     -76.3415375007980685 [Eh]
    Molecular point group: c1
  Basis Set: AUG-CC-PVQZ
    Blend: AUG-CC-PVQZ
  Basis Set: (AUG-CC-PVQZ AUX)
    Blend: AUG-CC-PVQZ-JKFIT
  @DF-RHF Final Energy:   -76.06570613956936
    Total Energy =                        -76.0657061395693574
  Basis Set: (AUG-CC-PVQZ AUX)
  @DF-RHF Final Energy:   -76.06041618233382
    Total Energy =                        -76.0604161823338245
  @DF-RHF Final Energy:   -76.06574450737142
    Total Energy =                        -76.0657445073714200
  @DF-RHF Final Energy:  -225.27744142930462
    Total Energy =                       -225.2774414293046163
  @DF-RHF Final Energy:  -225.29099890867622
    Total Energy =                       -225.2909989086762153
  @DF-RHF Final Energy:  -225.27734015480792
    Total Energy =                       -225.2773401548079164
  @DF-RHF Final Energy:  -225.29098264627581
    Total Energy =                       -225.2909826462758076
  Multiplicity = 1
  @DF-RHF Final Energy:  -301.36081811087752
    Total Energy =                       -301.3608181108775170
	 Singles Energy            =      -0.0000000000000000 [Eh]
	 Same-Spin Energy          =      -0.3065413941409373 [Eh]
	 Opposite-Spin Energy      =      -0.9552191676818323 [Eh]
	 Correlation Energy        =      -1.2617605618227696 [Eh]
	 Total Energy              =    -302.6225786727002856 [Eh]
	 SCS Total Energy          =    -302.6092615768093879 [Eh]
    Molecular point group: c1

    Geometry (in Angstrom), charge = 1, multiplicity = 1:

       Center              X                  Y                   Z               Mass
    ------------   -----------------  -----------------  -----------------  -----------------
         C           -1.945782275933    -0.023116418308     0.035896577489    12.000000000000
         C           -0.884331275933    -0.884451418308     0.108554577489    12.000000000000
         N            0.252237724067    -0.126176418308     0.008978577489    14.003074004430
         C           -0.074968275933     1.158237581692    -0.120960422511    12.000000000000
         N           -1.410596275933     1.231228581692    -0.105698422511    14.003074004430
         H           -1.935989275933     2.089860581692    -0.187290422511     1.007825032230
         H            1.224729724067    -0.482171418308     0.029820577489     1.007825032230
         H           -3.004320275933    -0.200317418308     0.072802577489     1.007825032230
         H           -0.856608275933    -1.952113418308     0.220761577489     1.007825032230
         H            0.605769724067     1.983558581692    -0.219768422511     1.007825032230
         O            2.998132724067    -1.080385418308     0.062479577489    15.994914619570
         H            3.547360724067    -1.235549418308     0.835911577489     1.007825032230
         H            3.521466724067    -1.395430418308    -0.679674422511     1.007825032230

  Charge       = 1
  Multiplicity = 1
  Basis Set: AUG-CC-PVQZ
    Blend: AUG-CC-PVQZ
  Basis Set: (AUG-CC-PVQZ AUX)
    Blend: AUG-CC-PVQZ-JKFIT

    Orbital Energies [Eh]
    ---------------------

    Doubly Occupied:

       1A    -20.721693     2A    -15.829791     3A    -15.819782
       4A    -11.528680     5A    -11.455987     6A    -11.453422
       7A     -1.574467     8A     -1.509985     9A     -1.410769
      10A     -1.226481    11A     -1.074674    12A     -1.027389
      13A     -0.975049    14A     -0.878530    15A     -0.873580
      16A     -0.822480    17A     -0.816778    18A     -0.800225
      19A     -0.789351    20A     -0.744609    21A     -0.670843
      22A     -0.644742    23A     -0.524938

  @DF-RHF Final Energy:  -301.37975545695230

   => Energetics <=

    Nuclear Repulsion Energy =            231.1609807638741074
    One-Electron Energy =                -858.7329767422515943
    Two-Electron Energy =                 326.1922405214251626
    Total Energy =                       -301.3797554569522958

  Dipole Moment: [D]
     X:     0.4241      Y:     1.3871      Z:    -0.1536     Total:     1.4586

  Basis Set: (AUG-CC-PVQZ AUX)
    Blend: AUG-CC-PVQZ-RI
	 Reference Energy          =    -301.3797554569522958 [Eh]
	 Singles Energy            =      -0.0000000000000000 [Eh]
	 Same-Spin Energy          =      -0.3248463334487284 [Eh]
	 Opposite-Spin Energy      =      -1.0759861233827932 [Eh]
	 Correlation Energy        =      -1.4008324568315216 [Eh]
	 Total Energy              =    -302.7805879137837906 [Eh]

	 ================> DF-SCS-MP2 Energies <==================
	-----------------------------------------------------------
	 SCS Same-Spin Scale       =       0.3333333333333333 [-]
	 SCS Opposite-Spin Scale   =       1.2000000000000000 [-]
	 SCS Same-Spin Energy      =      -0.1082821111495761 [Eh]
	 SCS Opposite-Spin Energy  =      -1.2911833480593518 [Eh]
	 SCS Correlation Energy    =      -1.3994654592089280 [Eh]
	 SCS Total Energy          =    -302.7792209161612504 [Eh]
	-----------------------------------------------------------

*** Psi4 exiting successfully. Buy a developer a beer!
