                               Psi4 1.4a2.dev224

  ==> Input File <==

--------------------------------------------------------------------------
#Generated by lconvert.py for cbs job

memory 40 GB

molecule  {
1 1
  C       -3.7195090    -0.0093720     0.0318270
  C       -2.6580580    -0.8707070     0.1044850
  N       -1.5214890    -0.1124320     0.0049090
  C       -1.8486950     1.1719820    -0.1250300
  N       -3.1843230     1.2449730    -0.1097680
  H       -3.7097160     2.1036050    -0.1913600
  H       -0.5489970    -0.4684270     0.0257510
  H       -4.7780470    -0.1865730     0.0687330
  H       -2.6303350    -1.9383690     0.2166920
  H       -1.1679570     1.9973030    -0.2238380
--
0 1
  O        1.1437970    -1.0394500     0.0569250
  H        1.6930240    -1.1946140     0.8303570
  H        1.6671300    -1.3544950    -0.6852290
units angstrom
no_reorient
symmetry c1
}

set {
scf_type DF
mp2_type DF
e_convergence 7
reference rhf
}

energy('mp2/aug-cc-pv[tq]z', bsse_type='cp')
--------------------------------------------------------------------------

    Molecular point group: c1
  Charge       = 0
  Multiplicity = 1
  Basis Set: AUG-CC-PVTZ
    Blend: AUG-CC-PVTZ
  Basis Set: (AUG-CC-PVTZ AUX)
    Blend: AUG-CC-PVTZ-JKFIT
  @DF-RHF Final Energy:   -76.06033363721832
    Total Energy =                        -76.0603336372183065
  Basis Set: (AUG-CC-PVTZ AUX)
    Blend: AUG-CC-PVTZ-RI
	 Reference Energy          =     -76.0603336372183207 [Eh]
	 Singles Energy            =      -0.0000000000000000 [Eh]
	 Same-Spin Energy          =      -0.0683964256981275 [Eh]
	 Opposite-Spin Energy      =      -0.2153375487698052 [Eh]
	 Correlation Energy        =      -0.2837339744679327 [Eh]
	 Total Energy              =     -76.3440676116862562 [Eh]
	 SCS Total Energy          =     -76.3415375043081355 [Eh]
    Molecular point group: c1
  Basis Set: AUG-CC-PVQZ
    Blend: AUG-CC-PVQZ
  Basis Set: (AUG-CC-PVQZ AUX)
    Blend: AUG-CC-PVQZ-JKFIT
  @DF-RHF Final Energy:   -76.06570619062806
    Total Energy =                        -76.0657061906280632
  Basis Set: (AUG-CC-PVQZ AUX)
  @DF-RHF Final Energy:   -76.06042563635097
    Total Energy =                        -76.0604256363509705
  @DF-RHF Final Energy:   -76.06574817983632
    Total Energy =                        -76.0657481798363193
  @DF-RHF Final Energy:  -225.27744887561656
    Total Energy =                       -225.2774488756165567
  @DF-RHF Final Energy:  -225.29100028316009
    Total Energy =                       -225.2910002831600877
  @DF-RHF Final Energy:  -225.27734015561319
    Total Energy =                       -225.2773401556131887
  @DF-RHF Final Energy:  -225.29098264517179
    Total Energy =                       -225.2909826451717947
  Multiplicity = 1
  @DF-RHF Final Energy:  -301.36101278966646
    Total Energy =                       -301.3610127896664608
	 Singles Energy            =      -0.0000000000000000 [Eh]
	 Same-Spin Energy          =      -0.3069025338533105 [Eh]
	 Opposite-Spin Energy      =      -0.9555535312334458 [Eh]
	 Correlation Energy        =      -1.2624560650867562 [Eh]
	 Total Energy              =    -302.6234688547532414 [Eh]
	 SCS Total Energy          =    -302.6099778717643858 [Eh]
    Molecular point group: c1

    Geometry (in Angstrom), charge = 1, multiplicity = 1:

       Center              X                  Y                   Z               Mass
    ------------   -----------------  -----------------  -----------------  -----------------
         C           -1.929105443453    -0.028741833862     0.036203802015    12.000000000000
         C           -0.867654443453    -0.890076833862     0.108861802015    12.000000000000
         N            0.268914556547    -0.131801833862     0.009285802015    14.003074004430
         C           -0.058291443453     1.152612166138    -0.120653197985    12.000000000000
         N           -1.393919443453     1.225603166138    -0.105391197985    14.003074004430
         H           -1.919312443453     2.084235166138    -0.186983197985     1.007825032230
         H            1.241406556547    -0.487796833862     0.030127802015     1.007825032230
         H           -2.987643443453    -0.205942833862     0.073109802015     1.007825032230
         H           -0.839931443453    -1.957738833862     0.221068802015     1.007825032230
         H            0.622446556547     1.977933166138    -0.219461197985     1.007825032230
         O            2.934200556547    -1.058819833862     0.061301802015    15.994914619570
         H            3.483427556547    -1.213983833862     0.834733802015     1.007825032230
         H            3.457533556547    -1.373864833862    -0.680852197985     1.007825032230

  Charge       = 1
  Multiplicity = 1
  Basis Set: AUG-CC-PVQZ
    Blend: AUG-CC-PVQZ
  Basis Set: (AUG-CC-PVQZ AUX)
    Blend: AUG-CC-PVQZ-JKFIT

    Orbital Energies [Eh]
    ---------------------

    Doubly Occupied:

       1A    -20.726800     2A    -15.828296     3A    -15.816272
       4A    -11.526833     5A    -11.454616     6A    -11.451870
       7A     -1.572693     8A     -1.516100     9A     -1.408871
      10A     -1.224925    11A     -1.073318    12A     -1.025824
      13A     -0.973759    14A     -0.879243    15A     -0.879112
      16A     -0.820709    17A     -0.815563    18A     -0.798972
      19A     -0.789701    20A     -0.746293    21A     -0.676696
      22A     -0.642726    23A     -0.523547

  @DF-RHF Final Energy:  -301.37993568138847

   => Energetics <=

    Nuclear Repulsion Energy =            232.2726128381026740
    One-Electron Energy =                -860.9596161193419448
    Two-Electron Energy =                 327.3070675998508250
    Total Energy =                       -301.3799356813884742

  Dipole Moment: [D]
     X:     0.6209      Y:     1.3147      Z:    -0.1493     Total:     1.4616

  Basis Set: (AUG-CC-PVQZ AUX)
    Blend: AUG-CC-PVQZ-RI
	 Reference Energy          =    -301.3799356813884742 [Eh]
	 Singles Energy            =      -0.0000000000000000 [Eh]
	 Same-Spin Energy          =      -0.3252150898702951 [Eh]
	 Opposite-Spin Energy      =      -1.0762897549794592 [Eh]
	 Correlation Energy        =      -1.4015048448497542 [Eh]
	 Total Energy              =    -302.7814405262382138 [Eh]

	 ================> DF-SCS-MP2 Energies <==================
	-----------------------------------------------------------
	 SCS Same-Spin Scale       =       0.3333333333333333 [-]
	 SCS Opposite-Spin Scale   =       1.2000000000000000 [-]
	 SCS Same-Spin Energy      =      -0.1084050299567650 [Eh]
	 SCS Opposite-Spin Energy  =      -1.2915477059753511 [Eh]
	 SCS Correlation Energy    =      -1.3999527359321160 [Eh]
	 SCS Total Energy          =    -302.7798884173205920 [Eh]
	-----------------------------------------------------------

*** Psi4 exiting successfully. Buy a developer a beer!
