                               Psi4 1.4a2.dev224

  ==> Input File <==

--------------------------------------------------------------------------
#Generated by lconvert.py for cbs job

memory 20 GB

molecule  {
1 1
  C      -3.719510   -0.009370    0.031830
  C      -2.658060   -0.870710    0.104480
  N      -1.521490   -0.112430    0.004910
  C      -1.848690    1.171980   -0.125030
  N      -3.184320    1.244970   -0.109770
  H      -3.709720    2.103600   -0.191360
  H      -0.549000   -0.468430    0.025750
  H      -4.778050   -0.186570    0.068730
  H      -2.630340   -1.938370    0.216690
  H      -1.167960    1.997300   -0.223840
--
0 1
  O       2.030500   -1.338560    0.073260
  H       2.579720   -1.493720    0.846690
  H       2.553830   -1.653600   -0.668900
units angstrom
no_reorient
symmetry c1
}

set {
scf_type DF
mp2_type DF
e_convergence 7
reference rhf
}

energy('mp2/aug-cc-pv[tq]z', bsse_type='cp')
--------------------------------------------------------------------------

    Molecular point group: c1
  Charge       = 0
  Multiplicity = 1
  Basis Set: AUG-CC-PVTZ
    Blend: AUG-CC-PVTZ
  Basis Set: (AUG-CC-PVTZ AUX)
    Blend: AUG-CC-PVTZ-JKFIT
  @DF-RHF Final Energy:   -76.06033386257451
    Total Energy =                        -76.0603338625744954
  Basis Set: (AUG-CC-PVTZ AUX)
    Blend: AUG-CC-PVTZ-RI
	 Reference Energy          =     -76.0603338625745096 [Eh]
	 Singles Energy            =      -0.0000000000000000 [Eh]
	 Same-Spin Energy          =      -0.0683963693945655 [Eh]
	 Opposite-Spin Energy      =      -0.2153373788274093 [Eh]
	 Correlation Energy        =      -0.2837337482219747 [Eh]
	 Total Energy              =     -76.3440676107964862 [Eh]
	 SCS Total Energy          =     -76.3415375069655937 [Eh]
    Molecular point group: c1
  Basis Set: AUG-CC-PVQZ
    Blend: AUG-CC-PVQZ
  Basis Set: (AUG-CC-PVQZ AUX)
    Blend: AUG-CC-PVQZ-JKFIT
  @DF-RHF Final Energy:   -76.06570642744443
    Total Energy =                        -76.0657064274444394
  Basis Set: (AUG-CC-PVQZ AUX)
  @DF-RHF Final Energy:   -76.06037012139802
    Total Energy =                        -76.0603701213980088
  @DF-RHF Final Energy:   -76.06572353180685
    Total Energy =                        -76.0657235318068530
  @DF-RHF Final Energy:  -225.27737696163314
    Total Energy =                       -225.2773769616331379
  @DF-RHF Final Energy:  -225.29098974944023
    Total Energy =                       -225.2909897494402287
  @DF-RHF Final Energy:  -225.27734023119422
    Total Energy =                       -225.2773402311942164
  @DF-RHF Final Energy:  -225.29098272585219
    Total Energy =                       -225.2909827258521887
  Multiplicity = 1
  @DF-RHF Final Energy:  -301.35241414498347
    Total Energy =                       -301.3524141449834701
	 Singles Energy            =      -0.0000000000000000 [Eh]
	 Same-Spin Energy          =      -0.3048534955379982 [Eh]
	 Opposite-Spin Energy      =      -0.9529865657378815 [Eh]
	 Correlation Energy        =      -1.2578400612758798 [Eh]
	 Total Energy              =    -302.6102542062593557 [Eh]
	 SCS Total Energy          =    -302.5976158557149347 [Eh]
    Molecular point group: c1

    Geometry (in Angstrom), charge = 1, multiplicity = 1:

       Center              X                  Y                   Z               Mass
    ------------   -----------------  -----------------  -----------------  -----------------
         C           -2.112552446820     0.033142173578     0.032827953990    12.000000000000
         C           -1.051102446820    -0.828197826422     0.105477953990    12.000000000000
         N            0.085467553180    -0.069917826422     0.005907953990    14.003074004430
         C           -0.241732446820     1.214492173578    -0.124032046010    12.000000000000
         N           -1.577362446820     1.287482173578    -0.108772046010    14.003074004430
         H           -2.102762446820     2.146112173578    -0.190362046010     1.007825032230
         H            1.057957553180    -0.425917826422     0.026747953990     1.007825032230
         H           -3.171092446820    -0.144057826422     0.069727953990     1.007825032230
         H           -1.023382446820    -1.895857826422     0.217687953990     1.007825032230
         H            0.438997553180     2.039812173578    -0.222842046010     1.007825032230
         O            3.637457553180    -1.296047826422     0.074257953990    15.994914619570
         H            4.186677553180    -1.451207826422     0.847687953990     1.007825032230
         H            4.160787553180    -1.611087826422    -0.667902046010     1.007825032230

  Charge       = 1
  Multiplicity = 1
  Basis Set: AUG-CC-PVQZ
    Blend: AUG-CC-PVQZ
  Basis Set: (AUG-CC-PVQZ AUX)
    Blend: AUG-CC-PVQZ-JKFIT

    Orbital Energies [Eh]
    ---------------------

    Doubly Occupied:

       1A    -20.684896     2A    -15.838368     3A    -15.837038
       4A    -11.539039     5A    -11.464029     6A    -11.462185
       7A     -1.584712     8A     -1.470500     9A     -1.421627
      10A     -1.235474    11A     -1.084515    12A     -1.036776
      13A     -0.983185    14A     -0.884753    15A     -0.836003
      16A     -0.832502    17A     -0.825158    18A     -0.808296
      19A     -0.793898    20A     -0.709578    21A     -0.655967
      22A     -0.631439    23A     -0.533021

  @DF-RHF Final Energy:  -301.37137130983552

   => Energetics <=

    Nuclear Repulsion Energy =            222.3776609442357426
    One-Electron Energy =                -841.1921451881405574
    Two-Electron Energy =                 317.4431129340693474
    Total Energy =                       -301.3713713098355242

  Dipole Moment: [D]
     X:    -1.0359      Y:     1.9101      Z:    -0.1837     Total:     2.1807

  Basis Set: (AUG-CC-PVQZ AUX)
    Blend: AUG-CC-PVQZ-RI
	 Reference Energy          =    -301.3713713098355242 [Eh]
	 Singles Energy            =      -0.0000000000000000 [Eh]
	 Same-Spin Energy          =      -0.3231972347684182 [Eh]
	 Opposite-Spin Energy      =      -1.0746165471533105 [Eh]
	 Correlation Energy        =      -1.3978137819217287 [Eh]
	 Total Energy              =    -302.7691850917572651 [Eh]

	 ================> DF-SCS-MP2 Energies <==================
	-----------------------------------------------------------
	 SCS Same-Spin Scale       =       0.3333333333333333 [-]
	 SCS Opposite-Spin Scale   =       1.2000000000000000 [-]
	 SCS Same-Spin Energy      =      -0.1077324115894727 [Eh]
	 SCS Opposite-Spin Energy  =      -1.2895398565839724 [Eh]
	 SCS Correlation Energy    =      -1.3972722681734451 [Eh]
	 SCS Total Energy          =    -302.7686435780089482 [Eh]
	-----------------------------------------------------------

*** Psi4 exiting successfully. Buy a developer a beer!
