                               Psi4 1.4a2.dev224

  ==> Input File <==

--------------------------------------------------------------------------
#Generated by lconvert.py for cbs job

memory 40 GB

molecule  {
1 1
  C       -3.7195090    -0.0093720     0.0318270
  C       -2.6580580    -0.8707070     0.1044850
  N       -1.5214890    -0.1124320     0.0049090
  C       -1.8486950     1.1719820    -0.1250300
  N       -3.1843230     1.2449730    -0.1097680
  H       -3.7097160     2.1036050    -0.1913600
  H       -0.5489970    -0.4684270     0.0257510
  H       -4.7780470    -0.1865730     0.0687330
  H       -2.6303350    -1.9383690     0.2166920
  H       -1.1679570     1.9973030    -0.2238380
--
0 1
  O        0.9019690    -0.9578750     0.0524720
  H        1.4511970    -1.1130390     0.8259040
  H        1.4253020    -1.2729200    -0.6896820
units angstrom
no_reorient
symmetry c1
}

set {
scf_type DF
mp2_type DF
e_convergence 7
reference rhf
}

energy('mp2/aug-cc-pv[tq]z', bsse_type='cp')
--------------------------------------------------------------------------

    Molecular point group: c1
  Charge       = 0
  Multiplicity = 1
  Basis Set: AUG-CC-PVTZ
    Blend: AUG-CC-PVTZ
  Basis Set: (AUG-CC-PVTZ AUX)
    Blend: AUG-CC-PVTZ-JKFIT
  @DF-RHF Final Energy:   -76.06033361252140
    Total Energy =                        -76.0603336125214184
  Basis Set: (AUG-CC-PVTZ AUX)
    Blend: AUG-CC-PVTZ-RI
	 Reference Energy          =     -76.0603336125214042 [Eh]
	 Singles Energy            =      -0.0000000000000000 [Eh]
	 Same-Spin Energy          =      -0.0683964314470555 [Eh]
	 Opposite-Spin Energy      =      -0.2153375662112469 [Eh]
	 Correlation Energy        =      -0.2837339976583024 [Eh]
	 Total Energy              =     -76.3440676101797067 [Eh]
	 SCS Total Energy          =     -76.3415375024572569 [Eh]
    Molecular point group: c1
  Basis Set: AUG-CC-PVQZ
    Blend: AUG-CC-PVQZ
  Basis Set: (AUG-CC-PVQZ AUX)
    Blend: AUG-CC-PVQZ-JKFIT
  @DF-RHF Final Energy:   -76.06570616451269
    Total Energy =                        -76.0657061645126760
  Basis Set: (AUG-CC-PVQZ AUX)
  @DF-RHF Final Energy:   -76.06045892505360
    Total Energy =                        -76.0604589250536094
  @DF-RHF Final Energy:   -76.06575959896917
    Total Energy =                        -76.0657595989691657
  @DF-RHF Final Energy:  -225.27747154451549
    Total Energy =                       -225.2774715445154925
  @DF-RHF Final Energy:  -225.29100573948006
    Total Energy =                       -225.2910057394800560
  @DF-RHF Final Energy:  -225.27734015519704
    Total Energy =                       -225.2773401551970380
  @DF-RHF Final Energy:  -225.29098264468371
    Total Energy =                       -225.2909826446837087
  Multiplicity = 1
  @DF-RHF Final Energy:  -301.35739651582912
    Total Energy =                       -301.3573965158291230
	 Singles Energy            =      -0.0000000000000000 [Eh]
	 Same-Spin Energy          =      -0.3083799406865244 [Eh]
	 Opposite-Spin Energy      =      -0.9567261105165611 [Eh]
	 Correlation Energy        =      -1.2651060512030854 [Eh]
	 Total Energy              =    -302.6225025670321997 [Eh]
	 SCS Total Energy          =    -302.6082611620111606 [Eh]
    Molecular point group: c1

    Geometry (in Angstrom), charge = 1, multiplicity = 1:

       Center              X                  Y                   Z               Mass
    ------------   -----------------  -----------------  -----------------  -----------------
         C           -1.879074820166    -0.045618494294     0.037125061824    12.000000000000
         C           -0.817623820166    -0.906953494294     0.109783061824    12.000000000000
         N            0.318945179834    -0.148678494294     0.010207061824    14.003074004430
         C           -0.008260820166     1.135735505706    -0.119731938176    12.000000000000
         N           -1.343888820166     1.208726505706    -0.104469938176    14.003074004430
         H           -1.869281820166     2.067358505706    -0.186061938176     1.007825032230
         H            1.291437179834    -0.504673494294     0.031049061824     1.007825032230
         H           -2.937612820166    -0.222819494294     0.074031061824     1.007825032230
         H           -0.789900820166    -1.974615494294     0.221990061824     1.007825032230
         H            0.672477179834     1.961056505706    -0.218539938176     1.007825032230
         O            2.742403179834    -0.994121494294     0.057770061824    15.994914619570
         H            3.291631179834    -1.149285494294     0.831202061824     1.007825032230
         H            3.265736179834    -1.309166494294    -0.684383938176     1.007825032230

  Charge       = 1
  Multiplicity = 1
  Basis Set: AUG-CC-PVQZ
    Blend: AUG-CC-PVQZ
  Basis Set: (AUG-CC-PVQZ AUX)
    Blend: AUG-CC-PVQZ-JKFIT

    Orbital Energies [Eh]
    ---------------------

    Doubly Occupied:

       1A    -20.744629     2A    -15.822534     3A    -15.801599
       4A    -11.519639     5A    -11.449393     6A    -11.445835
       7A     -1.566350     8A     -1.539102     9A     -1.401597
      10A     -1.218971    11A     -1.069671    12A     -1.020096
      13A     -0.969295    14A     -0.899309    15A     -0.889006
      16A     -0.813858    17A     -0.811692    18A     -0.795637
      19A     -0.789655    20A     -0.742190    21A     -0.698122
      22A     -0.634866    23A     -0.518217

  @DF-RHF Final Energy:  -301.37626035009617

   => Energetics <=

    Nuclear Repulsion Energy =            235.9675847312320514
    One-Electron Energy =                -868.3651599513430028
    Two-Electron Energy =                 331.0213148700148054
    Total Energy =                       -301.3762603500961745

  Dipole Moment: [D]
     X:     1.3135      Y:     1.0566      Z:    -0.1340     Total:     1.6910

  Basis Set: (AUG-CC-PVQZ AUX)
    Blend: AUG-CC-PVQZ-RI
	 Reference Energy          =    -301.3762603500961745 [Eh]
	 Singles Energy            =      -0.0000000000000000 [Eh]
	 Same-Spin Energy          =      -0.3267374108327227 [Eh]
	 Opposite-Spin Energy      =      -1.0775464134618651 [Eh]
	 Correlation Energy        =      -1.4042838242945876 [Eh]
	 Total Energy              =    -302.7805441743907409 [Eh]

	 ================> DF-SCS-MP2 Energies <==================
	-----------------------------------------------------------
	 SCS Same-Spin Scale       =       0.3333333333333333 [-]
	 SCS Opposite-Spin Scale   =       1.2000000000000000 [-]
	 SCS Same-Spin Energy      =      -0.1089124702775742 [Eh]
	 SCS Opposite-Spin Energy  =      -1.2930556961542381 [Eh]
	 SCS Correlation Energy    =      -1.4019681664318124 [Eh]
	 SCS Total Energy          =    -302.7782285165279745 [Eh]
	-----------------------------------------------------------

*** Psi4 exiting successfully. Buy a developer a beer!
