                               Psi4 1.4a2.dev224

  ==> Input File <==

--------------------------------------------------------------------------
#Generated by lconvert.py for cbs job

memory 40 GB

molecule  {
1 1
  C       -3.7195090    -0.0093720     0.0318270
  C       -2.6580580    -0.8707070     0.1044850
  N       -1.5214890    -0.1124320     0.0049090
  C       -1.8486950     1.1719820    -0.1250300
  N       -3.1843230     1.2449730    -0.1097680
  H       -3.7097160     2.1036050    -0.1913600
  H       -0.5489970    -0.4684270     0.0257510
  H       -4.7780470    -0.1865730     0.0687330
  H       -2.6303350    -1.9383690     0.2166920
  H       -1.1679570     1.9973030    -0.2238380
--
0 1
  O        0.9825790    -0.9850660     0.0539560
  H        1.5318060    -1.1402300     0.8273880
  H        1.5059120    -1.3001110    -0.6881980
units angstrom
no_reorient
symmetry c1
}

set {
scf_type DF
mp2_type DF
e_convergence 7
reference rhf
}

energy('mp2/aug-cc-pv[tq]z', bsse_type='cp')
--------------------------------------------------------------------------

    Molecular point group: c1
  Charge       = 0
  Multiplicity = 1
  Basis Set: AUG-CC-PVTZ
    Blend: AUG-CC-PVTZ
  Basis Set: (AUG-CC-PVTZ AUX)
    Blend: AUG-CC-PVTZ-JKFIT
  @DF-RHF Final Energy:   -76.06033363721860
    Total Energy =                        -76.0603336372186050
  Basis Set: (AUG-CC-PVTZ AUX)
    Blend: AUG-CC-PVTZ-RI
	 Reference Energy          =     -76.0603336372186050 [Eh]
	 Singles Energy            =      -0.0000000000000000 [Eh]
	 Same-Spin Energy          =      -0.0683964256981172 [Eh]
	 Opposite-Spin Energy      =      -0.2153375487698216 [Eh]
	 Correlation Energy        =      -0.2837339744679389 [Eh]
	 Total Energy              =     -76.3440676116865404 [Eh]
	 SCS Total Energy          =     -76.3415375043084339 [Eh]
    Molecular point group: c1
  Basis Set: AUG-CC-PVQZ
    Blend: AUG-CC-PVQZ
  Basis Set: (AUG-CC-PVQZ AUX)
    Blend: AUG-CC-PVQZ-JKFIT
  @DF-RHF Final Energy:   -76.06570619062323
    Total Energy =                        -76.0657061906232457
  Basis Set: (AUG-CC-PVQZ AUX)
  @DF-RHF Final Energy:   -76.06044620820865
    Total Energy =                        -76.0604462082086457
  @DF-RHF Final Energy:   -76.06575625372626
    Total Energy =                        -76.0657562537262493
  @DF-RHF Final Energy:  -225.27746404128541
    Total Energy =                       -225.2774640412854126
  @DF-RHF Final Energy:  -225.29100361835464
    Total Energy =                       -225.2910036183546367
  @DF-RHF Final Energy:  -225.27734015533801
    Total Energy =                       -225.2773401553380097
  @DF-RHF Final Energy:  -225.29098264455948
    Total Energy =                       -225.2909826445594774
  Multiplicity = 1
  @DF-RHF Final Energy:  -301.35959839296561
    Total Energy =                       -301.3595983929656086
	 Singles Energy            =      -0.0000000000000000 [Eh]
	 Same-Spin Energy          =      -0.3078133810257934 [Eh]
	 Opposite-Spin Energy      =      -0.9562947429888736 [Eh]
	 Correlation Energy        =      -1.2641081240146670 [Eh]
	 Total Energy              =    -302.6237065169802918 [Eh]
	 SCS Total Energy          =    -302.6097565448941964 [Eh]
    Molecular point group: c1

    Geometry (in Angstrom), charge = 1, multiplicity = 1:

       Center              X                  Y                   Z               Mass
    ------------   -----------------  -----------------  -----------------  -----------------
         C           -1.895751824801    -0.039993078740     0.036818044183    12.000000000000
         C           -0.834300824801    -0.901328078740     0.109476044183    12.000000000000
         N            0.302268175199    -0.143053078740     0.009900044183    14.003074004430
         C           -0.024937824801     1.141360921260    -0.120038955817    12.000000000000
         N           -1.360565824801     1.214351921260    -0.104776955817    14.003074004430
         H           -1.885958824801     2.072983921260    -0.186368955817     1.007825032230
         H            1.274760175199    -0.499048078740     0.030742044183     1.007825032230
         H           -2.954289824801    -0.217194078740     0.073724044183     1.007825032230
         H           -0.806577824801    -1.968990078740     0.221683044183     1.007825032230
         H            0.655800175199     1.966681921260    -0.218846955817     1.007825032230
         O            2.806336175199    -1.015687078740     0.058947044183    15.994914619570
         H            3.355563175199    -1.170851078740     0.832379044183     1.007825032230
         H            3.329669175199    -1.330732078740    -0.683206955817     1.007825032230

  Charge       = 1
  Multiplicity = 1
  Basis Set: AUG-CC-PVQZ
    Blend: AUG-CC-PVQZ
  Basis Set: (AUG-CC-PVQZ AUX)
    Blend: AUG-CC-PVQZ-JKFIT

    Orbital Energies [Eh]
    ---------------------

    Doubly Occupied:

       1A    -20.738214     2A    -15.824697     3A    -15.807304
       4A    -11.522351     5A    -11.451343     6A    -11.448110
       7A     -1.568564     8A     -1.530568     9A     -1.404318
      10A     -1.221197    11A     -1.070703    12A     -1.022183
      13A     -0.970861    14A     -0.891876    15A     -0.884074
      16A     -0.816432    17A     -0.813033    18A     -0.796578
      19A     -0.790345    20A     -0.745272    21A     -0.690233
      22A     -0.637830    23A     -0.520213

  @DF-RHF Final Energy:  -301.37848137132016

   => Energetics <=

    Nuclear Repulsion Energy =            234.6704956582360921
    One-Electron Energy =                -865.7653530531653132
    Two-Electron Energy =                 329.7163760236090866
    Total Energy =                       -301.3784813713201629

  Dipole Moment: [D]
     X:     1.0632      Y:     1.1504      Z:    -0.1396     Total:     1.5727

  Basis Set: (AUG-CC-PVQZ AUX)
    Blend: AUG-CC-PVQZ-RI
	 Reference Energy          =    -301.3784813713201629 [Eh]
	 Singles Energy            =      -0.0000000000000000 [Eh]
	 Same-Spin Energy          =      -0.3261523208720264 [Eh]
	 Opposite-Spin Energy      =      -1.0770627954882097 [Eh]
	 Correlation Energy        =      -1.4032151163602360 [Eh]
	 Total Energy              =    -302.7816964876803922 [Eh]

	 ================> DF-SCS-MP2 Energies <==================
	-----------------------------------------------------------
	 SCS Same-Spin Scale       =       0.3333333333333333 [-]
	 SCS Opposite-Spin Scale   =       1.2000000000000000 [-]
	 SCS Same-Spin Energy      =      -0.1087174402906755 [Eh]
	 SCS Opposite-Spin Energy  =      -1.2924753545858516 [Eh]
	 SCS Correlation Energy    =      -1.4011927948765270 [Eh]
	 SCS Total Energy          =    -302.7796741661966848 [Eh]
	-----------------------------------------------------------

*** Psi4 exiting successfully. Buy a developer a beer!
