                               Psi4 1.4a2.dev224

  ==> Input File <==

--------------------------------------------------------------------------
#Generated by lconvert.py for cbs job

memory 40 GB

molecule  {
1 1
  C       -3.7195090    -0.0093720     0.0318270
  C       -2.6580580    -0.8707070     0.1044850
  N       -1.5214890    -0.1124320     0.0049090
  C       -1.8486950     1.1719820    -0.1250300
  N       -3.1843230     1.2449730    -0.1097680
  H       -3.7097160     2.1036050    -0.1913600
  H       -0.5489970    -0.4684270     0.0257510
  H       -4.7780470    -0.1865730     0.0687330
  H       -2.6303350    -1.9383690     0.2166920
  H       -1.1679570     1.9973030    -0.2238380
--
0 1
  O        0.7407510    -0.9034920     0.0495030
  H        1.2899780    -1.0586560     0.8229350
  H        1.2640840    -1.2185370    -0.6926510
units angstrom
no_reorient
symmetry c1
}

set {
scf_type DF
mp2_type DF
e_convergence 7
reference rhf
}

energy('mp2/aug-cc-pv[tq]z', bsse_type='cp')
--------------------------------------------------------------------------

    Molecular point group: c1
  Charge       = 0
  Multiplicity = 1
  Basis Set: AUG-CC-PVTZ
    Blend: AUG-CC-PVTZ
  Basis Set: (AUG-CC-PVTZ AUX)
    Blend: AUG-CC-PVTZ-JKFIT
  @DF-RHF Final Energy:   -76.06033363721725
    Total Energy =                        -76.0603336372172407
  Basis Set: (AUG-CC-PVTZ AUX)
    Blend: AUG-CC-PVTZ-RI
	 Reference Energy          =     -76.0603336372172549 [Eh]
	 Singles Energy            =      -0.0000000000000000 [Eh]
	 Same-Spin Energy          =      -0.0683964256981228 [Eh]
	 Opposite-Spin Energy      =      -0.2153375487698072 [Eh]
	 Correlation Energy        =      -0.2837339744679299 [Eh]
	 Total Energy              =     -76.3440676116851904 [Eh]
	 SCS Total Energy          =     -76.3415375043070696 [Eh]
    Molecular point group: c1
  Basis Set: AUG-CC-PVQZ
    Blend: AUG-CC-PVQZ
  Basis Set: (AUG-CC-PVQZ AUX)
    Blend: AUG-CC-PVQZ-JKFIT
  @DF-RHF Final Energy:   -76.06570619060690
    Total Energy =                        -76.0657061906069174
  Basis Set: (AUG-CC-PVQZ AUX)
  @DF-RHF Final Energy:   -76.06049115288226
    Total Energy =                        -76.0604911528822640
  @DF-RHF Final Energy:   -76.06576726209462
    Total Energy =                        -76.0657672620946101
  @DF-RHF Final Energy:  -225.27748823039843
    Total Energy =                       -225.2774882303984327
  @DF-RHF Final Energy:  -225.29101072502317
    Total Energy =                       -225.2910107250231704
  @DF-RHF Final Energy:  -225.27734015581026
    Total Energy =                       -225.2773401558102648
  @DF-RHF Final Energy:  -225.29098264463036
    Total Energy =                       -225.2909826446303612
  Multiplicity = 1
  @DF-RHF Final Energy:  -301.34759137239189
    Total Energy =                       -301.3475913723918893
	 Singles Energy            =      -0.0000000000000000 [Eh]
	 Same-Spin Energy          =      -0.3097699158228256 [Eh]
	 Opposite-Spin Energy      =      -0.9577792791581483 [Eh]
	 Correlation Energy        =      -1.2675491949809738 [Eh]
	 Total Energy              =    -302.6151405673728618 [Eh]
	 SCS Total Energy          =    -302.6001831459892628 [Eh]
    Molecular point group: c1

    Geometry (in Angstrom), charge = 1, multiplicity = 1:

       Center              X                  Y                   Z               Mass
    ------------   -----------------  -----------------  -----------------  -----------------
         C           -1.845721189937    -0.056869532287     0.037739303991    12.000000000000
         C           -0.784270189937    -0.918204532287     0.110397303991    12.000000000000
         N            0.352298810063    -0.159929532287     0.010821303991    14.003074004430
         C            0.025092810063     1.124484467713    -0.119117696009    12.000000000000
         N           -1.310535189937     1.197475467713    -0.103855696009    14.003074004430
         H           -1.835928189937     2.056107467713    -0.185447696009     1.007825032230
         H            1.324790810063    -0.515924532287     0.031663303991     1.007825032230
         H           -2.904259189937    -0.234070532287     0.074645303991     1.007825032230
         H           -0.756547189937    -1.985866532287     0.222604303991     1.007825032230
         H            0.705830810063     1.949805467713    -0.217925696009     1.007825032230
         O            2.614538810063    -0.950989532287     0.055415303991    15.994914619570
         H            3.163765810063    -1.106153532287     0.828847303991     1.007825032230
         H            3.137871810063    -1.266034532287    -0.686738696009     1.007825032230

  Charge       = 1
  Multiplicity = 1
  Basis Set: AUG-CC-PVQZ
    Blend: AUG-CC-PVQZ
  Basis Set: (AUG-CC-PVQZ AUX)
    Blend: AUG-CC-PVQZ-JKFIT

    Orbital Energies [Eh]
    ---------------------

    Doubly Occupied:

       1A    -20.759171     2A    -15.817334     3A    -15.787036
       4A    -11.513075     5A    -11.444739     6A    -11.440323
       7A     -1.567991     8A     -1.553659     9A     -1.395122
      10A     -1.213673    11A     -1.069535    12A     -1.015449
      13A     -0.966329    14A     -0.916905    15A     -0.904707
      16A     -0.808261    17A     -0.807665    18A     -0.793028
      19A     -0.785689    20A     -0.730605    21A     -0.716593
      22A     -0.627697    23A     -0.513429

  @DF-RHF Final Energy:  -301.36643744936799

   => Energetics <=

    Nuclear Repulsion Energy =            238.7916299345178572
    One-Electron Energy =                -874.0201013259604679
    Two-Electron Energy =                 333.8620339420745609
    Total Energy =                       -301.3664374493679929

  Dipole Moment: [D]
     X:     1.8848      Y:     0.8405      Z:    -0.1210     Total:     2.0672

  Basis Set: (AUG-CC-PVQZ AUX)
    Blend: AUG-CC-PVQZ-RI
	 Reference Energy          =    -301.3664374493679929 [Eh]
	 Singles Energy            =      -0.0000000000000000 [Eh]
	 Same-Spin Energy          =      -0.3281669074895595 [Eh]
	 Opposite-Spin Energy      =      -1.0786877603534215 [Eh]
	 Correlation Energy        =      -1.4068546678429810 [Eh]
	 Total Energy              =    -302.7732921172109855 [Eh]

	 ================> DF-SCS-MP2 Energies <==================
	-----------------------------------------------------------
	 SCS Same-Spin Scale       =       0.3333333333333333 [-]
	 SCS Opposite-Spin Scale   =       1.2000000000000000 [-]
	 SCS Same-Spin Energy      =      -0.1093889691631865 [Eh]
	 SCS Opposite-Spin Energy  =      -1.2944253124241059 [Eh]
	 SCS Correlation Energy    =      -1.4038142815872923 [Eh]
	 SCS Total Energy          =    -302.7702517309552945 [Eh]
	-----------------------------------------------------------

*** Psi4 exiting successfully. Buy a developer a beer!
