                               Psi4 1.4a2.dev224

  ==> Input File <==

--------------------------------------------------------------------------
#Generated by lconvert.py for cbs job

memory 40 GB

molecule  {
1 1
  C       -2.4829410     0.1455680     0.1158820
  N       -3.7412650     0.5451140     0.2945210
  N       -2.2230010    -1.0650260    -0.3624870
  N       -1.4721240     0.9526640     0.4138500
  H       -0.5254700     0.6273740     0.2698000
  H       -1.6318070     1.8741450     0.7774880
  H       -3.9495100     1.4582400     0.6554170
  H       -4.5132720    -0.0567230     0.0726920
  H       -2.9623560    -1.7010510    -0.5984670
  H       -1.2599090    -1.3461520    -0.4895060
--
0 1
  O        0.5943570    -0.8315050    -0.3208890
  H        1.1421930    -0.7332280    -1.1062220
  H        1.1670810    -1.2856100     0.3054540
units angstrom
no_reorient
symmetry c1
}

set {
scf_type DF
mp2_type DF
e_convergence 7
reference rhf
}

energy('mp2/aug-cc-pv[tq]z', bsse_type='cp')
--------------------------------------------------------------------------

    Molecular point group: c1
  Charge       = 0
  Multiplicity = 1
  Basis Set: AUG-CC-PVTZ
    Blend: AUG-CC-PVTZ
  Basis Set: (AUG-CC-PVTZ AUX)
    Blend: AUG-CC-PVTZ-JKFIT
  @DF-RHF Final Energy:   -76.06016051854726
    Total Energy =                        -76.0601605185472636
  Basis Set: (AUG-CC-PVTZ AUX)
    Blend: AUG-CC-PVTZ-RI
	 Reference Energy          =     -76.0601605185472636 [Eh]
	 Singles Energy            =      -0.0000000000000000 [Eh]
	 Same-Spin Energy          =      -0.0684394732056082 [Eh]
	 Opposite-Spin Energy      =      -0.2154645012207818 [Eh]
	 Correlation Energy        =      -0.2839039744263899 [Eh]
	 Total Energy              =     -76.3440644929736578 [Eh]
	 SCS Total Energy          =     -76.3415310777474048 [Eh]
    Molecular point group: c1
  Basis Set: AUG-CC-PVQZ
    Blend: AUG-CC-PVQZ
  Basis Set: (AUG-CC-PVQZ AUX)
    Blend: AUG-CC-PVQZ-JKFIT
  @DF-RHF Final Energy:   -76.06552741115745
    Total Energy =                        -76.0655274111574613
  Basis Set: (AUG-CC-PVQZ AUX)
  @DF-RHF Final Energy:   -76.06030567316776
    Total Energy =                        -76.0603056731677611
  @DF-RHF Final Energy:   -76.06558778582404
    Total Energy =                        -76.0655877858240359
  @DF-RHF Final Energy:  -204.61555910835042
    Total Energy =                       -204.6155591083504248
  @DF-RHF Final Energy:  -204.62855449878472
    Total Energy =                       -204.6285544987847231
  @DF-RHF Final Energy:  -204.61546847347546
    Total Energy =                       -204.6154684734754596
  @DF-RHF Final Energy:  -204.62853892745233
    Total Energy =                       -204.6285389274523254
  Multiplicity = 1
  @DF-RHF Final Energy:  -280.69790492725019
    Total Energy =                       -280.6979049272501925
	 Singles Energy            =      -0.0000000000000000 [Eh]
	 Same-Spin Energy          =      -0.2750418867531925 [Eh]
	 Opposite-Spin Energy      =      -0.8730608026185008 [Eh]
	 Correlation Energy        =      -1.1481026893716932 [Eh]
	 Total Energy              =    -281.8460076166218755 [Eh]
	 SCS Total Energy          =    -281.8372585193101258 [Eh]
    Molecular point group: c1

    Geometry (in Angstrom), charge = 1, multiplicity = 1:

       Center              X                  Y                   Z               Mass
    ------------   -----------------  -----------------  -----------------  -----------------
         C           -0.727365590984     0.230947292337     0.103236407133    12.000000000000
         N           -1.985689590984     0.630493292337     0.281875407133    14.003074004430
         N           -0.467425590984    -0.979646707663    -0.375132592867    14.003074004430
         N            0.283451409016     1.038043292337     0.401204407133    14.003074004430
         H            1.230105409016     0.712753292337     0.257154407133     1.007825032230
         H            0.123768409016     1.959524292337     0.764842407133     1.007825032230
         H           -2.193934590984     1.543619292337     0.642771407133     1.007825032230
         H           -2.757696590984     0.028656292337     0.060046407133     1.007825032230
         H           -1.206780590984    -1.615671707663    -0.611112592867     1.007825032230
         H            0.495666409016    -1.260772707663    -0.502151592867     1.007825032230
         O            2.349932409016    -0.746125707663    -0.333534592867    15.994914619570
         H            2.897768409016    -0.647848707663    -1.118867592867     1.007825032230
         H            2.922656409016    -1.200230707663     0.292808407133     1.007825032230

  Charge       = 1
  Multiplicity = 1
  Basis Set: AUG-CC-PVQZ
    Blend: AUG-CC-PVQZ
  Basis Set: (AUG-CC-PVQZ AUX)
    Blend: AUG-CC-PVQZ-JKFIT

    Orbital Energies [Eh]
    ---------------------

    Doubly Occupied:

       1A    -20.744146     2A    -15.773624     3A    -15.762294
       4A    -15.762268     5A    -11.578270     6A     -1.537238
       7A     -1.523083     8A     -1.379355     9A     -1.372539
      10A     -1.051609    11A     -0.964251    12A     -0.957551
      13A     -0.894429    14A     -0.857978    15A     -0.849267
      16A     -0.843681    17A     -0.792135    18A     -0.761416
      19A     -0.695072    20A     -0.609384    21A     -0.601204

  @DF-RHF Final Energy:  -280.71627136037603

   => Energetics <=

    Nuclear Repulsion Energy =            195.7374658235904974
    One-Electron Energy =                -762.2858849401906127
    Two-Electron Energy =                 285.8321477562241171
    Total Energy =                       -280.7162713603760267

  Dipole Moment: [D]
     X:    -0.1475      Y:     0.0468      Z:     0.0210     Total:     0.1561

  Basis Set: (AUG-CC-PVQZ AUX)
    Blend: AUG-CC-PVQZ-RI
	 Reference Energy          =    -280.7162713603760267 [Eh]
	 Singles Energy            =      -0.0000000000000000 [Eh]
	 Same-Spin Energy          =      -0.2919913294341309 [Eh]
	 Opposite-Spin Energy      =      -0.9845954403077113 [Eh]
	 Correlation Energy        =      -1.2765867697418423 [Eh]
	 Total Energy              =    -281.9928581301178951 [Eh]

	 ================> DF-SCS-MP2 Energies <==================
	-----------------------------------------------------------
	 SCS Same-Spin Scale       =       0.3333333333333333 [-]
	 SCS Opposite-Spin Scale   =       1.2000000000000000 [-]
	 SCS Same-Spin Energy      =      -0.0973304431447103 [Eh]
	 SCS Opposite-Spin Energy  =      -1.1815145283692534 [Eh]
	 SCS Correlation Energy    =      -1.2788449715139638 [Eh]
	 SCS Total Energy          =    -281.9951163318900171 [Eh]
	-----------------------------------------------------------

*** Psi4 exiting successfully. Buy a developer a beer!
