                               Psi4 1.4a2.dev224

  ==> Input File <==

--------------------------------------------------------------------------
#Generated by lconvert.py for cbs job

memory 40 GB

molecule  {
1 1
  C       -2.4829410     0.1455680     0.1158820
  N       -3.7412650     0.5451140     0.2945210
  N       -2.2230010    -1.0650260    -0.3624870
  N       -1.4721240     0.9526640     0.4138500
  H       -0.5254700     0.6273740     0.2698000
  H       -1.6318070     1.8741450     0.7774880
  H       -3.9495100     1.4582400     0.6554170
  H       -4.5132720    -0.0567230     0.0726920
  H       -2.9623560    -1.7010510    -0.5984670
  H       -1.2599090    -1.3461520    -0.4895060
--
0 1
  O       -0.0620850    -0.6230940    -0.2277290
  H        0.4857510    -0.5248170    -1.0130620
  H        0.5106390    -1.0771990     0.3986140
units angstrom
no_reorient
symmetry c1
}

set {
scf_type DF
mp2_type DF
e_convergence 7
reference rhf
}

energy('mp2/aug-cc-pv[tq]z', bsse_type='cp')
--------------------------------------------------------------------------

    Molecular point group: c1
  Charge       = 0
  Multiplicity = 1
  Basis Set: AUG-CC-PVTZ
    Blend: AUG-CC-PVTZ
  Basis Set: (AUG-CC-PVTZ AUX)
    Blend: AUG-CC-PVTZ-JKFIT
  @DF-RHF Final Energy:   -76.06016051854921
    Total Energy =                        -76.0601605185492105
  Basis Set: (AUG-CC-PVTZ AUX)
    Blend: AUG-CC-PVTZ-RI
	 Reference Energy          =     -76.0601605185492105 [Eh]
	 Singles Energy            =      -0.0000000000000000 [Eh]
	 Same-Spin Energy          =      -0.0684394732055970 [Eh]
	 Opposite-Spin Energy      =      -0.2154645012208229 [Eh]
	 Correlation Energy        =      -0.2839039744264198 [Eh]
	 Total Energy              =     -76.3440644929756331 [Eh]
	 SCS Total Energy          =     -76.3415310777493943 [Eh]
    Molecular point group: c1
  Basis Set: AUG-CC-PVQZ
    Blend: AUG-CC-PVQZ
  Basis Set: (AUG-CC-PVQZ AUX)
    Blend: AUG-CC-PVQZ-JKFIT
  @DF-RHF Final Energy:   -76.06552741115524
    Total Energy =                        -76.0655274111552444
  Basis Set: (AUG-CC-PVQZ AUX)
  @DF-RHF Final Energy:   -76.06044881247431
    Total Energy =                        -76.0604488124743057
  @DF-RHF Final Energy:   -76.06562442215539
    Total Energy =                        -76.0656244221553948
  @DF-RHF Final Energy:  -204.61563305603858
    Total Energy =                       -204.6156330560385754
  @DF-RHF Final Energy:  -204.62856601515151
    Total Energy =                       -204.6285660151515060
  @DF-RHF Final Energy:  -204.61546847361384
    Total Energy =                       -204.6154684736138449
  @DF-RHF Final Energy:  -204.62853892792930
    Total Energy =                       -204.6285389279292986
  Multiplicity = 1
  @DF-RHF Final Energy:  -280.62265405280044
    Total Energy =                       -280.6226540528004421
	 Singles Energy            =      -0.0000000000000000 [Eh]
	 Same-Spin Energy          =      -0.2822564025841767 [Eh]
	 Opposite-Spin Energy      =      -0.8812214473052131 [Eh]
	 Correlation Energy        =      -1.1634778498893898 [Eh]
	 Total Energy              =    -281.7861319026898173 [Eh]
	 SCS Total Energy          =    -281.7742052570947635 [Eh]
    Molecular point group: c1

    Geometry (in Angstrom), charge = 1, multiplicity = 1:

       Center              X                  Y                   Z               Mass
    ------------   -----------------  -----------------  -----------------  -----------------
         C           -0.575919641362     0.182865356984     0.081743716741    12.000000000000
         N           -1.834243641362     0.582411356984     0.260382716741    14.003074004430
         N           -0.315979641362    -1.027728643016    -0.396625283259    14.003074004430
         N            0.434897358638     0.989961356984     0.379711716741    14.003074004430
         H            1.381551358638     0.664671356984     0.235661716741     1.007825032230
         H            0.275214358638     1.911442356984     0.743349716741     1.007825032230
         H           -2.042488641362     1.495537356984     0.621278716741     1.007825032230
         H           -2.606250641362    -0.019425643016     0.038553716741     1.007825032230
         H           -1.055334641362    -1.663753643016    -0.632605283259     1.007825032230
         H            0.647112358638    -1.308854643016    -0.523644283259     1.007825032230
         O            1.844936358638    -0.585796643016    -0.261867283259    15.994914619570
         H            2.392772358638    -0.487519643016    -1.047200283259     1.007825032230
         H            2.417660358638    -1.039901643016     0.364475716741     1.007825032230

  Charge       = 1
  Multiplicity = 1
  Basis Set: AUG-CC-PVQZ
    Blend: AUG-CC-PVQZ
  Basis Set: (AUG-CC-PVQZ AUX)
    Blend: AUG-CC-PVQZ-JKFIT

    Orbital Energies [Eh]
    ---------------------

    Doubly Occupied:

       1A    -20.782939     2A    -15.761975     3A    -15.734505
       4A    -15.734479     5A    -11.563070     6A     -1.615157
       7A     -1.506627     8A     -1.366031     9A     -1.359892
      10A     -1.042673    11A     -0.973716    12A     -0.970369
      13A     -0.951833    14A     -0.887538    15A     -0.872151
      16A     -0.828271    17A     -0.777444    18A     -0.730466
      19A     -0.709490    20A     -0.596138    21A     -0.583676

  @DF-RHF Final Energy:  -280.64091937593770

   => Energetics <=

    Nuclear Repulsion Energy =            208.9379329428610106
    One-Electron Energy =                -788.4608181180744850
    Two-Electron Energy =                 298.8819657992757470
    Total Energy =                       -280.6409193759376990

  Dipole Moment: [D]
     X:     1.3440      Y:    -0.4268      Z:    -0.1907     Total:     1.4230

  Basis Set: (AUG-CC-PVQZ AUX)
    Blend: AUG-CC-PVQZ-RI
	 Reference Energy          =    -280.6409193759376990 [Eh]
	 Singles Energy            =      -0.0000000000000000 [Eh]
	 Same-Spin Energy          =      -0.2993774061091964 [Eh]
	 Opposite-Spin Energy      =      -0.9920910110360522 [Eh]
	 Correlation Energy        =      -1.2914684171452486 [Eh]
	 Total Energy              =    -281.9323877930829667 [Eh]

	 ================> DF-SCS-MP2 Energies <==================
	-----------------------------------------------------------
	 SCS Same-Spin Scale       =       0.3333333333333333 [-]
	 SCS Opposite-Spin Scale   =       1.2000000000000000 [-]
	 SCS Same-Spin Energy      =      -0.0997924687030655 [Eh]
	 SCS Opposite-Spin Energy  =      -1.1905092132432626 [Eh]
	 SCS Correlation Energy    =      -1.2903016819463282 [Eh]
	 SCS Total Energy          =    -281.9312210578840450 [Eh]
	-----------------------------------------------------------

*** Psi4 exiting successfully. Buy a developer a beer!
