                               Psi4 1.4a2.dev224

  ==> Input File <==

--------------------------------------------------------------------------
#Generated by lconvert.py for cbs job

memory 20 GB

molecule  {
1 1
  C      -2.482940    0.145570    0.115880
  N      -3.741260    0.545110    0.294520
  N      -2.223000   -1.065030   -0.362490
  N      -1.472120    0.952660    0.413850
  H      -0.525470    0.627370    0.269800
  H      -1.631810    1.874140    0.777490
  H      -3.949510    1.458240    0.655420
  H      -4.513270   -0.056720    0.072690
  H      -2.962360   -1.701050   -0.598470
  H      -1.259910   -1.346150   -0.489510
--
0 1
  O       2.358110   -1.391480   -0.571200
  H       2.905950   -1.293200   -1.356530
  H       2.930840   -1.845580    0.055140
units angstrom
no_reorient
symmetry c1
}

set {
scf_type DF
mp2_type DF
e_convergence 7
reference rhf
}

energy('mp2/aug-cc-pv[tq]z', bsse_type='cp')
--------------------------------------------------------------------------

    Molecular point group: c1
  Charge       = 0
  Multiplicity = 1
  Basis Set: AUG-CC-PVTZ
    Blend: AUG-CC-PVTZ
  Basis Set: (AUG-CC-PVTZ AUX)
    Blend: AUG-CC-PVTZ-JKFIT
  @DF-RHF Final Energy:   -76.06016049553041
    Total Energy =                        -76.0601604955304111
  Basis Set: (AUG-CC-PVTZ AUX)
    Blend: AUG-CC-PVTZ-RI
	 Reference Energy          =     -76.0601604955304111 [Eh]
	 Singles Energy            =      -0.0000000000000000 [Eh]
	 Same-Spin Energy          =      -0.0684394795486917 [Eh]
	 Opposite-Spin Energy      =      -0.2154645169312455 [Eh]
	 Correlation Energy        =      -0.2839039964799372 [Eh]
	 Total Energy              =     -76.3440644920103466 [Eh]
	 SCS Total Energy          =     -76.3415310756974748 [Eh]
    Molecular point group: c1
  Basis Set: AUG-CC-PVQZ
    Blend: AUG-CC-PVQZ
  Basis Set: (AUG-CC-PVQZ AUX)
    Blend: AUG-CC-PVQZ-JKFIT
  @DF-RHF Final Energy:   -76.06552739035521
    Total Energy =                        -76.0655273903552143
  Basis Set: (AUG-CC-PVQZ AUX)
  @DF-RHF Final Energy:   -76.06017338380337
    Total Energy =                        -76.0601733838033738
  @DF-RHF Final Energy:   -76.06553538615793
    Total Energy =                        -76.0655353861579329
  @DF-RHF Final Energy:  -204.61548454043188
    Total Energy =                       -204.6154845404318792
  @DF-RHF Final Energy:  -204.62854140405366
    Total Energy =                       -204.6285414040536637
  @DF-RHF Final Energy:  -204.61546855004008
    Total Energy =                       -204.6154685500400774
  @DF-RHF Final Energy:  -204.62853900505365
    Total Energy =                       -204.6285390050536535
  Multiplicity = 1
  @DF-RHF Final Energy:  -280.68659170178000
    Total Energy =                       -280.6865917017800029
	 Singles Energy            =      -0.0000000000000000 [Eh]
	 Same-Spin Energy          =      -0.2716729007238440 [Eh]
	 Opposite-Spin Energy      =      -0.8687099366792066 [Eh]
	 Correlation Energy        =      -1.1403828374030507 [Eh]
	 Total Energy              =    -281.8269745391830270 [Eh]
	 SCS Total Energy          =    -281.8196012593696764 [Eh]
    Molecular point group: c1

    Geometry (in Angstrom), charge = 1, multiplicity = 1:

       Center              X                  Y                   Z               Mass
    ------------   -----------------  -----------------  -----------------  -----------------
         C           -1.134277250849     0.360141383084     0.160984054163    12.000000000000
         N           -2.392597250849     0.759681383084     0.339624054163    14.003074004430
         N           -0.874337250849    -0.850458616916    -0.317385945837    14.003074004430
         N           -0.123457250849     1.167231383084     0.458954054163    14.003074004430
         H            0.823192749151     0.841941383084     0.314904054163     1.007825032230
         H           -0.283147250849     2.088711383084     0.822594054163     1.007825032230
         H           -2.600847250849     1.672811383084     0.700524054163     1.007825032230
         H           -3.164607250849     0.157851383084     0.117794054163     1.007825032230
         H           -1.613697250849    -1.486478616916    -0.553365945837     1.007825032230
         H            0.088752749151    -1.131578616916    -0.444405945837     1.007825032230
         O            3.706772749151    -1.176908616916    -0.526095945837    15.994914619570
         H            4.254612749151    -1.078628616916    -1.311425945837     1.007825032230
         H            4.279502749151    -1.631008616916     0.100244054163     1.007825032230

  Charge       = 1
  Multiplicity = 1
  Basis Set: AUG-CC-PVQZ
    Blend: AUG-CC-PVQZ
  Basis Set: (AUG-CC-PVQZ AUX)
    Blend: AUG-CC-PVQZ-JKFIT

    Orbital Energies [Eh]
    ---------------------

    Doubly Occupied:

       1A    -20.672284     2A    -15.788263     3A    -15.786620
       4A    -15.786593     5A    -11.596853     6A     -1.543549
       7A     -1.457188     8A     -1.396246     9A     -1.392889
      10A     -1.069064    11A     -0.981332    12A     -0.974114
      13A     -0.865079    14A     -0.861657    15A     -0.860937
      16A     -0.820202    17A     -0.810253    18A     -0.696111
      19A     -0.625325    20A     -0.622533    21A     -0.618052

  @DF-RHF Final Energy:  -280.70498899164807

   => Energetics <=

    Nuclear Repulsion Energy =            176.8759803970534676
    One-Electron Energy =                -724.7116481196600262
    Two-Electron Energy =                 267.1306787309584934
    Total Energy =                       -280.7049889916480652

  Dipole Moment: [D]
     X:    -3.0940      Y:     0.9823      Z:     0.4392     Total:     3.2757

  Basis Set: (AUG-CC-PVQZ AUX)
    Blend: AUG-CC-PVQZ-RI
	 Reference Energy          =    -280.7049889916480652 [Eh]
	 Singles Energy            =      -0.0000000000000000 [Eh]
	 Same-Spin Energy          =      -0.2886660304104818 [Eh]
	 Opposite-Spin Energy      =      -0.9814394986233523 [Eh]
	 Correlation Energy        =      -1.2701055290338341 [Eh]
	 Total Energy              =    -281.9750945206819210 [Eh]

	 ================> DF-SCS-MP2 Energies <==================
	-----------------------------------------------------------
	 SCS Same-Spin Scale       =       0.3333333333333333 [-]
	 SCS Opposite-Spin Scale   =       1.2000000000000000 [-]
	 SCS Same-Spin Energy      =      -0.0962220101368273 [Eh]
	 SCS Opposite-Spin Energy  =      -1.1777273983480228 [Eh]
	 SCS Correlation Energy    =      -1.2739494084848499 [Eh]
	 SCS Total Energy          =    -281.9789384001329040 [Eh]
	-----------------------------------------------------------

*** Psi4 exiting successfully. Buy a developer a beer!
