                               Psi4 1.4a2.dev224

  ==> Input File <==

--------------------------------------------------------------------------
#Generated by lconvert.py for cbs job

memory 40 GB

molecule  {
1 1
  C       -2.4829410     0.1455680     0.1158820
  N       -3.7412650     0.5451140     0.2945210
  N       -2.2230010    -1.0650260    -0.3624870
  N       -1.4721240     0.9526640     0.4138500
  H       -0.5254700     0.6273740     0.2698000
  H       -1.6318070     1.8741450     0.7774880
  H       -3.9495100     1.4582400     0.6554170
  H       -4.5132720    -0.0567230     0.0726920
  H       -2.9623560    -1.7010510    -0.5984670
  H       -1.2599090    -1.3461520    -0.4895060
--
0 1
  O        0.4748310    -0.7935570    -0.3039270
  H        1.0226670    -0.6952800    -1.0892600
  H        1.0475550    -1.2476620     0.3224160
units angstrom
no_reorient
symmetry c1
}

set {
scf_type DF
mp2_type DF
e_convergence 7
reference rhf
}

energy('mp2/aug-cc-pv[tq]z', bsse_type='cp')
--------------------------------------------------------------------------

    Molecular point group: c1
  Charge       = 0
  Multiplicity = 1
  Basis Set: AUG-CC-PVTZ
    Blend: AUG-CC-PVTZ
  Basis Set: (AUG-CC-PVTZ AUX)
    Blend: AUG-CC-PVTZ-JKFIT
  @DF-RHF Final Energy:   -76.06016051854506
    Total Energy =                        -76.0601605185450751
  Basis Set: (AUG-CC-PVTZ AUX)
    Blend: AUG-CC-PVTZ-RI
	 Reference Energy          =     -76.0601605185450609 [Eh]
	 Singles Energy            =      -0.0000000000000000 [Eh]
	 Same-Spin Energy          =      -0.0684394732056207 [Eh]
	 Opposite-Spin Energy      =      -0.2154645012208708 [Eh]
	 Correlation Energy        =      -0.2839039744264915 [Eh]
	 Total Energy              =     -76.3440644929715546 [Eh]
	 SCS Total Energy          =     -76.3415310777453158 [Eh]
    Molecular point group: c1
  Basis Set: AUG-CC-PVQZ
    Blend: AUG-CC-PVQZ
  Basis Set: (AUG-CC-PVQZ AUX)
    Blend: AUG-CC-PVQZ-JKFIT
  @DF-RHF Final Energy:   -76.06552741118330
    Total Energy =                        -76.0655274111833108
  Basis Set: (AUG-CC-PVQZ AUX)
  @DF-RHF Final Energy:   -76.06032554195949
    Total Energy =                        -76.0603255419594859
  @DF-RHF Final Energy:   -76.06559263909730
    Total Energy =                        -76.0655926390972894
  @DF-RHF Final Energy:  -204.61556622739778
    Total Energy =                       -204.6155662273977782
  @DF-RHF Final Energy:  -204.62855593740062
    Total Energy =                       -204.6285559374006198
  @DF-RHF Final Energy:  -204.61546847394322
    Total Energy =                       -204.6154684739432241
  @DF-RHF Final Energy:  -204.62853892769562
    Total Energy =                       -204.6285389276956153
  Multiplicity = 1
  @DF-RHF Final Energy:  -280.69452081498855
    Total Energy =                       -280.6945208149885502
	 Singles Energy            =      -0.0000000000000000 [Eh]
	 Same-Spin Energy          =      -0.2758650079133055 [Eh]
	 Opposite-Spin Energy      =      -0.8739822705898375 [Eh]
	 Correlation Energy        =      -1.1498472785031431 [Eh]
	 Total Energy              =    -281.8443680934917097 [Eh]
	 SCS Total Energy          =    -281.8352545423340985 [Eh]
    Molecular point group: c1

    Geometry (in Angstrom), charge = 1, multiplicity = 1:

       Center              X                  Y                   Z               Mass
    ------------   -----------------  -----------------  -----------------  -----------------
         C           -0.699790072393     0.222192412399     0.099323150216    12.000000000000
         N           -1.958114072393     0.621738412399     0.277962150216    14.003074004430
         N           -0.439850072393    -0.988401587601    -0.379045849784    14.003074004430
         N            0.311026927607     1.029288412399     0.397291150216    14.003074004430
         H            1.257680927607     0.703998412399     0.253241150216     1.007825032230
         H            0.151343927607     1.950769412399     0.760929150216     1.007825032230
         H           -2.166359072393     1.534864412399     0.638858150216     1.007825032230
         H           -2.730121072393     0.019901412399     0.056133150216     1.007825032230
         H           -1.179205072393    -1.624426587601    -0.615025849784     1.007825032230
         H            0.523241927607    -1.269527587601    -0.506064849784     1.007825032230
         O            2.257981927607    -0.716932587601    -0.320485849784    15.994914619570
         H            2.805817927607    -0.618655587601    -1.105818849784     1.007825032230
         H            2.830705927607    -1.171037587601     0.305857150216     1.007825032230

  Charge       = 1
  Multiplicity = 1
  Basis Set: AUG-CC-PVQZ
    Blend: AUG-CC-PVQZ
  Basis Set: (AUG-CC-PVQZ AUX)
    Blend: AUG-CC-PVQZ-JKFIT

    Orbital Energies [Eh]
    ---------------------

    Doubly Occupied:

       1A    -20.751267     2A    -15.771641     3A    -15.758321
       4A    -15.758295     5A    -11.575735     6A     -1.547117
       7A     -1.520801     8A     -1.377098     9A     -1.369922
      10A     -1.049593    11A     -0.962993    12A     -0.956303
      13A     -0.903060    14A     -0.863297    15A     -0.849293
      16A     -0.841115    17A     -0.789673    18A     -0.761007
      19A     -0.702451    20A     -0.607192    21A     -0.598234

  @DF-RHF Final Energy:  -280.71287047063009

   => Energetics <=

    Nuclear Repulsion Energy =            197.7703589939684434
    One-Electron Energy =                -766.3376410293734580
    Two-Electron Energy =                 287.8544115647749209
    Total Energy =                       -280.7128704706300937

  Dipole Moment: [D]
     X:     0.1160      Y:    -0.0369      Z:    -0.0164     Total:     0.1228

  Basis Set: (AUG-CC-PVQZ AUX)
    Blend: AUG-CC-PVQZ-RI
	 Reference Energy          =    -280.7128704706300937 [Eh]
	 Singles Energy            =      -0.0000000000000000 [Eh]
	 Same-Spin Energy          =      -0.2928309626832248 [Eh]
	 Opposite-Spin Energy      =      -0.9854113311887273 [Eh]
	 Correlation Energy        =      -1.2782422938719522 [Eh]
	 Total Energy              =    -281.9911127645020201 [Eh]

	 ================> DF-SCS-MP2 Energies <==================
	-----------------------------------------------------------
	 SCS Same-Spin Scale       =       0.3333333333333333 [-]
	 SCS Opposite-Spin Scale   =       1.2000000000000000 [-]
	 SCS Same-Spin Energy      =      -0.0976103208944083 [Eh]
	 SCS Opposite-Spin Energy  =      -1.1824935974264728 [Eh]
	 SCS Correlation Energy    =      -1.2801039183208811 [Eh]
	 SCS Total Energy          =    -281.9929743889509837 [Eh]
	-----------------------------------------------------------

*** Psi4 exiting successfully. Buy a developer a beer!
