                               Psi4 1.4a2.dev224

  ==> Input File <==

--------------------------------------------------------------------------
#Generated by lconvert.py for cbs job

memory 40 GB

molecule  {
1 1
  C       -2.4829410     0.1455680     0.1158820
  N       -3.7412650     0.5451140     0.2945210
  N       -2.2230010    -1.0650260    -0.3624870
  N       -1.4721240     0.9526640     0.4138500
  H       -0.5254700     0.6273740     0.2698000
  H       -1.6318070     1.8741450     0.7774880
  H       -3.9495100     1.4582400     0.6554170
  H       -4.5132720    -0.0567230     0.0726920
  H       -2.9623560    -1.7010510    -0.5984670
  H       -1.2599090    -1.3461520    -0.4895060
--
0 1
  O        0.8245400    -0.9045850    -0.3535560
  H        1.3723760    -0.8063080    -1.1388890
  H        1.3972640    -1.3586900     0.2727870
units angstrom
no_reorient
symmetry c1
}

set {
scf_type DF
mp2_type DF
e_convergence 7
reference rhf
}

energy('mp2/aug-cc-pv[tq]z', bsse_type='cp')
--------------------------------------------------------------------------

    Molecular point group: c1
  Charge       = 0
  Multiplicity = 1
  Basis Set: AUG-CC-PVTZ
    Blend: AUG-CC-PVTZ
  Basis Set: (AUG-CC-PVTZ AUX)
    Blend: AUG-CC-PVTZ-JKFIT
  @DF-RHF Final Energy:   -76.06016051854672
    Total Energy =                        -76.0601605185467236
  Basis Set: (AUG-CC-PVTZ AUX)
    Blend: AUG-CC-PVTZ-RI
	 Reference Energy          =     -76.0601605185467236 [Eh]
	 Singles Energy            =      -0.0000000000000000 [Eh]
	 Same-Spin Energy          =      -0.0684394732056114 [Eh]
	 Opposite-Spin Energy      =      -0.2154645012208098 [Eh]
	 Correlation Energy        =      -0.2839039744264212 [Eh]
	 Total Energy              =     -76.3440644929731462 [Eh]
	 SCS Total Energy          =     -76.3415310777468932 [Eh]
    Molecular point group: c1
  Basis Set: AUG-CC-PVQZ
    Blend: AUG-CC-PVQZ
  Basis Set: (AUG-CC-PVQZ AUX)
    Blend: AUG-CC-PVQZ-JKFIT
  @DF-RHF Final Energy:   -76.06552741116488
    Total Energy =                        -76.0655274111648794
  Basis Set: (AUG-CC-PVQZ AUX)
  @DF-RHF Final Energy:   -76.06028314677469
    Total Energy =                        -76.0602831467746938
  @DF-RHF Final Energy:   -76.06558134806201
    Total Energy =                        -76.0655813480620111
  @DF-RHF Final Energy:  -204.61554562971267
    Total Energy =                       -204.6155456297126705
  @DF-RHF Final Energy:  -204.62855137008347
    Total Energy =                       -204.6285513700834713
  @DF-RHF Final Energy:  -204.61546847375521
    Total Energy =                       -204.6154684737552145
  @DF-RHF Final Energy:  -204.62853892786492
    Total Energy =                       -204.6285389278649234
  Multiplicity = 1
  @DF-RHF Final Energy:  -280.69966443419906
    Total Energy =                       -280.6996644341990645
	 Singles Energy            =      -0.0000000000000000 [Eh]
	 Same-Spin Energy          =      -0.2738595720796568 [Eh]
	 Opposite-Spin Energy      =      -0.8717254805127397 [Eh]
	 Correlation Energy        =      -1.1455850525923965 [Eh]
	 Total Energy              =    -281.8452494867914879 [Eh]
	 SCS Total Energy          =    -281.8370215348409147 [Eh]
    Molecular point group: c1

    Geometry (in Angstrom), charge = 1, multiplicity = 1:

       Center              X                  Y                   Z               Mass
    ------------   -----------------  -----------------  -----------------  -----------------
         C           -0.780470485280     0.247807380507     0.110772921915    12.000000000000
         N           -2.038794485280     0.647353380507     0.289411921915    14.003074004430
         N           -0.520530485280    -0.962786619493    -0.367596078085    14.003074004430
         N            0.230346514720     1.054903380507     0.408740921915    14.003074004430
         H            1.177000514720     0.729613380507     0.264690921915     1.007825032230
         H            0.070663514720     1.976384380507     0.772378921915     1.007825032230
         H           -2.247039485280     1.560479380507     0.650307921915     1.007825032230
         H           -2.810801485280     0.045516380507     0.067582921915     1.007825032230
         H           -1.259885485280    -1.598811619493    -0.603576078085     1.007825032230
         H            0.442561514720    -1.243912619493    -0.494615078085     1.007825032230
         O            2.527010514720    -0.802345619493    -0.358665078085    15.994914619570
         H            3.074846514720    -0.704068619493    -1.143998078085     1.007825032230
         H            3.099734514720    -1.256450619493     0.267677921915     1.007825032230

  Charge       = 1
  Multiplicity = 1
  Basis Set: AUG-CC-PVQZ
    Blend: AUG-CC-PVQZ
  Basis Set: (AUG-CC-PVQZ AUX)
    Blend: AUG-CC-PVQZ-JKFIT

    Orbital Energies [Eh]
    ---------------------

    Doubly Occupied:

       1A    -20.731078     2A    -15.776993     3A    -15.768586
       4A    -15.768560     5A    -11.582565     6A     -1.529760
       7A     -1.518295     8A     -1.383211     9A     -1.377118
      10A     -1.055298    11A     -0.967391    12A     -0.960550
      13A     -0.879660    14A     -0.852536    15A     -0.851139
      16A     -0.848058    17A     -0.796310    18A     -0.756224
      19A     -0.680575    20A     -0.613081    21A     -0.606206

  @DF-RHF Final Energy:  -280.71802657307330

   => Energetics <=

    Nuclear Repulsion Energy =            192.1983397370914872
    One-Electron Energy =                -755.2263404957110424
    Two-Electron Energy =                 282.3099741855462526
    Total Energy =                       -280.7180265730733026

  Dipole Moment: [D]
     X:    -0.6266      Y:     0.1989      Z:     0.0890     Total:     0.6634

  Basis Set: (AUG-CC-PVQZ AUX)
    Blend: AUG-CC-PVQZ-RI
	 Reference Energy          =    -280.7180265730733026 [Eh]
	 Singles Energy            =      -0.0000000000000000 [Eh]
	 Same-Spin Energy          =      -0.2907984706502034 [Eh]
	 Opposite-Spin Energy      =      -0.9834521143649486 [Eh]
	 Correlation Energy        =      -1.2742505850151520 [Eh]
	 Total Energy              =    -281.9922771580884273 [Eh]

	 ================> DF-SCS-MP2 Energies <==================
	-----------------------------------------------------------
	 SCS Same-Spin Scale       =       0.3333333333333333 [-]
	 SCS Opposite-Spin Scale   =       1.2000000000000000 [-]
	 SCS Same-Spin Energy      =      -0.0969328235500678 [Eh]
	 SCS Opposite-Spin Energy  =      -1.1801425372379384 [Eh]
	 SCS Correlation Energy    =      -1.2770753607880061 [Eh]
	 SCS Total Energy          =    -281.9951019338612923 [Eh]
	-----------------------------------------------------------

*** Psi4 exiting successfully. Buy a developer a beer!
