                               Psi4 1.4a2.dev224

  ==> Input File <==

--------------------------------------------------------------------------
#Generated by lconvert.py for cbs job

memory 40 GB

molecule  {
1 1
  C       -2.4829410     0.1455680     0.1158820
  N       -3.7412650     0.5451140     0.2945210
  N       -2.2230010    -1.0650260    -0.3624870
  N       -1.4721240     0.9526640     0.4138500
  H       -0.5254700     0.6273740     0.2698000
  H       -1.6318070     1.8741450     0.7774880
  H       -3.9495100     1.4582400     0.6554170
  H       -4.5132720    -0.0567230     0.0726920
  H       -2.9623560    -1.7010510    -0.5984670
  H       -1.2599090    -1.3461520    -0.4895060
--
0 1
  O        0.9363430    -0.9400810    -0.3694230
  H        1.4841790    -0.8418040    -1.1547560
  H        1.5090670    -1.3941860     0.2569200
units angstrom
no_reorient
symmetry c1
}

set {
scf_type DF
mp2_type DF
e_convergence 7
reference rhf
}

energy('mp2/aug-cc-pv[tq]z', bsse_type='cp')
--------------------------------------------------------------------------

    Molecular point group: c1
  Charge       = 0
  Multiplicity = 1
  Basis Set: AUG-CC-PVTZ
    Blend: AUG-CC-PVTZ
  Basis Set: (AUG-CC-PVTZ AUX)
    Blend: AUG-CC-PVTZ-JKFIT
  @DF-RHF Final Energy:   -76.06016051854492
    Total Energy =                        -76.0601605185449188
  Basis Set: (AUG-CC-PVTZ AUX)
    Blend: AUG-CC-PVTZ-RI
	 Reference Energy          =     -76.0601605185449188 [Eh]
	 Singles Energy            =      -0.0000000000000000 [Eh]
	 Same-Spin Energy          =      -0.0684394732056318 [Eh]
	 Opposite-Spin Energy      =      -0.2154645012209209 [Eh]
	 Correlation Energy        =      -0.2839039744265527 [Eh]
	 Total Energy              =     -76.3440644929714693 [Eh]
	 SCS Total Energy          =     -76.3415310777452305 [Eh]
    Molecular point group: c1
  Basis Set: AUG-CC-PVQZ
    Blend: AUG-CC-PVQZ
  Basis Set: (AUG-CC-PVQZ AUX)
    Blend: AUG-CC-PVQZ-JKFIT
  @DF-RHF Final Energy:   -76.06552741117136
    Total Energy =                        -76.0655274111713453
  Basis Set: (AUG-CC-PVQZ AUX)
  @DF-RHF Final Energy:   -76.06027605376404
    Total Energy =                        -76.0602760537640421
  @DF-RHF Final Energy:   -76.06557804388147
    Total Energy =                        -76.0655780438814588
  @DF-RHF Final Energy:  -204.61553894764950
    Total Energy =                       -204.6155389476494975
  @DF-RHF Final Energy:  -204.62854982135514
    Total Energy =                       -204.6285498213551364
  @DF-RHF Final Energy:  -204.61546847390798
    Total Energy =                       -204.6154684739079812
  @DF-RHF Final Energy:  -204.62853892747793
    Total Energy =                       -204.6285389274779334
  Multiplicity = 1
  @DF-RHF Final Energy:  -280.69924352393070
    Total Energy =                       -280.6992435239307042
	 Singles Energy            =      -0.0000000000000000 [Eh]
	 Same-Spin Energy          =      -0.2734348029315458 [Eh]
	 Opposite-Spin Energy      =      -0.8712247401705567 [Eh]
	 Correlation Energy        =      -1.1446595431021025 [Eh]
	 Total Energy              =    -281.8439030670327838 [Eh]
	 SCS Total Energy          =    -281.8358581464459007 [Eh]
    Molecular point group: c1

    Geometry (in Angstrom), charge = 1, multiplicity = 1:

       Center              X                  Y                   Z               Mass
    ------------   -----------------  -----------------  -----------------  -----------------
         C           -0.806264251532     0.255996566189     0.114433554359    12.000000000000
         N           -2.064588251532     0.655542566189     0.293072554359    14.003074004430
         N           -0.546324251532    -0.954597433811    -0.363935445641    14.003074004430
         N            0.204552748468     1.063092566189     0.412401554359    14.003074004430
         H            1.151206748468     0.737802566189     0.268351554359     1.007825032230
         H            0.044869748468     1.984573566189     0.776039554359     1.007825032230
         H           -2.272833251532     1.568668566189     0.653968554359     1.007825032230
         H           -2.836595251532     0.053705566189     0.071243554359     1.007825032230
         H           -1.285679251532    -1.590622433811    -0.599915445641     1.007825032230
         H            0.416767748468    -1.235723433811    -0.490954445641     1.007825032230
         O            2.613019748468    -0.829652433811    -0.370871445641    15.994914619570
         H            3.160855748468    -0.731375433811    -1.156204445641     1.007825032230
         H            3.185743748468    -1.283757433811     0.255471554359     1.007825032230

  Charge       = 1
  Multiplicity = 1
  Basis Set: AUG-CC-PVQZ
    Blend: AUG-CC-PVQZ
  Basis Set: (AUG-CC-PVQZ AUX)
    Blend: AUG-CC-PVQZ-JKFIT

    Orbital Energies [Eh]
    ---------------------

    Doubly Occupied:

       1A    -20.725112     2A    -15.778414     3A    -15.771091
       4A    -15.771064     5A    -11.584375     6A     -1.531132
       7A     -1.511794     8A     -1.384846     9A     -1.379086
      10A     -1.056935    11A     -0.968962    12A     -0.962042
      13A     -0.873256    14A     -0.852415    15A     -0.851770
      16A     -0.849899    17A     -0.798071    18A     -0.751811
      19A     -0.673907    20A     -0.614634    21A     -0.608301

  @DF-RHF Final Energy:  -280.71759633833250

   => Energetics <=

    Nuclear Repulsion Energy =            190.6384065714118208
    One-Electron Energy =                -752.1141730470421862
    Two-Electron Energy =                 280.7581701372978955
    Total Energy =                       -280.7175963383324984

  Dipole Moment: [D]
     X:    -0.8458      Y:     0.2685      Z:     0.1201     Total:     0.8955

  Basis Set: (AUG-CC-PVQZ AUX)
    Blend: AUG-CC-PVQZ-RI
	 Reference Energy          =    -280.7175963383324984 [Eh]
	 Singles Energy            =      -0.0000000000000000 [Eh]
	 Same-Spin Energy          =      -0.2903761479159962 [Eh]
	 Opposite-Spin Energy      =      -0.9830501273544690 [Eh]
	 Correlation Energy        =      -1.2734262752704653 [Eh]
	 Total Energy              =    -281.9910226136029792 [Eh]

	 ================> DF-SCS-MP2 Energies <==================
	-----------------------------------------------------------
	 SCS Same-Spin Scale       =       0.3333333333333333 [-]
	 SCS Opposite-Spin Scale   =       1.2000000000000000 [-]
	 SCS Same-Spin Energy      =      -0.0967920493053321 [Eh]
	 SCS Opposite-Spin Energy  =      -1.1796601528253627 [Eh]
	 SCS Correlation Energy    =      -1.2764522021306948 [Eh]
	 SCS Total Energy          =    -281.9940485404632113 [Eh]
	-----------------------------------------------------------

*** Psi4 exiting successfully. Buy a developer a beer!
