                               Psi4 1.4a2.dev224

  ==> Input File <==

--------------------------------------------------------------------------
#Generated by lconvert.py for cbs job

memory 40 GB

molecule  {
1 1
  C       -2.4829410     0.1455680     0.1158820
  N       -3.7412650     0.5451140     0.2945210
  N       -2.2230010    -1.0650260    -0.3624870
  N       -1.4721240     0.9526640     0.4138500
  H       -0.5254700     0.6273740     0.2698000
  H       -1.6318070     1.8741450     0.7774880
  H       -3.9495100     1.4582400     0.6554170
  H       -4.5132720    -0.0567230     0.0726920
  H       -2.9623560    -1.7010510    -0.5984670
  H       -1.2599090    -1.3461520    -0.4895060
--
0 1
  O        0.2222690    -0.7133730    -0.2680840
  H        0.7701050    -0.6150960    -1.0534170
  H        0.7949930    -1.1674780     0.3582590
units angstrom
no_reorient
symmetry c1
}

set {
scf_type DF
mp2_type DF
e_convergence 7
reference rhf
}

energy('mp2/aug-cc-pv[tq]z', bsse_type='cp')
--------------------------------------------------------------------------

    Molecular point group: c1
  Charge       = 0
  Multiplicity = 1
  Basis Set: AUG-CC-PVTZ
    Blend: AUG-CC-PVTZ
  Basis Set: (AUG-CC-PVTZ AUX)
    Blend: AUG-CC-PVTZ-JKFIT
  @DF-RHF Final Energy:   -76.06016051855050
    Total Energy =                        -76.0601605185505036
  Basis Set: (AUG-CC-PVTZ AUX)
    Blend: AUG-CC-PVTZ-RI
	 Reference Energy          =     -76.0601605185505036 [Eh]
	 Singles Energy            =      -0.0000000000000000 [Eh]
	 Same-Spin Energy          =      -0.0684394732056093 [Eh]
	 Opposite-Spin Energy      =      -0.2154645012208206 [Eh]
	 Correlation Energy        =      -0.2839039744264299 [Eh]
	 Total Energy              =     -76.3440644929769405 [Eh]
	 SCS Total Energy          =     -76.3415310777506875 [Eh]
    Molecular point group: c1
  Basis Set: AUG-CC-PVQZ
    Blend: AUG-CC-PVQZ
  Basis Set: (AUG-CC-PVQZ AUX)
    Blend: AUG-CC-PVQZ-JKFIT
  @DF-RHF Final Energy:   -76.06552741117905
    Total Energy =                        -76.0655274111790476
  Basis Set: (AUG-CC-PVQZ AUX)
  @DF-RHF Final Energy:   -76.06037713574139
    Total Energy =                        -76.0603771357413905
  @DF-RHF Final Energy:   -76.06560868798522
    Total Energy =                        -76.0656086879852182
  @DF-RHF Final Energy:  -204.61559046981608
    Total Energy =                       -204.6155904698160839
  @DF-RHF Final Energy:  -204.62855949400603
    Total Energy =                       -204.6285594940060264
  @DF-RHF Final Energy:  -204.61546847365477
    Total Energy =                       -204.6154684736547722
  @DF-RHF Final Energy:  -204.62853892744164
    Total Energy =                       -204.6285389274416389
  Multiplicity = 1
  @DF-RHF Final Energy:  -280.67652540423268
    Total Energy =                       -280.6765254042326774
	 Singles Energy            =      -0.0000000000000000 [Eh]
	 Same-Spin Energy          =      -0.2782347702441013 [Eh]
	 Opposite-Spin Energy      =      -0.8766360391812074 [Eh]
	 Correlation Energy        =      -1.1548708094253086 [Eh]
	 Total Energy              =    -281.8313962136579676 [Eh]
	 SCS Total Energy          =    -281.8212335746648023 [Eh]
    Molecular point group: c1

    Geometry (in Angstrom), charge = 1, multiplicity = 1:

       Center              X                  Y                   Z               Mass
    ------------   -----------------  -----------------  -----------------  -----------------
         C           -0.641522179832     0.203693379698     0.091053909107    12.000000000000
         N           -1.899846179832     0.603239379698     0.269692909107    14.003074004430
         N           -0.381582179832    -1.006900620302    -0.387315090893    14.003074004430
         N            0.369294820168     1.010789379698     0.389021909107    14.003074004430
         H            1.315948820168     0.685499379698     0.244971909107     1.007825032230
         H            0.209611820168     1.932270379698     0.752659909107     1.007825032230
         H           -2.108091179832     1.516365379698     0.630588909107     1.007825032230
         H           -2.671853179832     0.001402379698     0.047863909107     1.007825032230
         H           -1.120937179832    -1.642925620302    -0.623295090893     1.007825032230
         H            0.581509820168    -1.288026620302    -0.514334090893     1.007825032230
         O            2.063687820168    -0.655247620302    -0.292912090893    15.994914619570
         H            2.611523820168    -0.556970620302    -1.078245090893     1.007825032230
         H            2.636411820168    -1.109352620302     0.333430909107     1.007825032230

  Charge       = 1
  Multiplicity = 1
  Basis Set: AUG-CC-PVQZ
    Blend: AUG-CC-PVQZ
  Basis Set: (AUG-CC-PVQZ AUX)
    Blend: AUG-CC-PVQZ-JKFIT

    Orbital Energies [Eh]
    ---------------------

    Doubly Occupied:

       1A    -20.766632     2A    -15.767049     3A    -15.748164
       4A    -15.748138     5A    -11.569822     6A     -1.573657
       7A     -1.514535     8A     -1.371888     9A     -1.364281
      10A     -1.045539    11A     -0.963264    12A     -0.956311
      13A     -0.923849    14A     -0.877774    15A     -0.854739
      16A     -0.835134    17A     -0.783942    18A     -0.751947
      19A     -0.713878    20A     -0.602052    21A     -0.591299

  @DF-RHF Final Energy:  -280.69481504875881

   => Energetics <=

    Nuclear Repulsion Energy =            202.5739270672497128
    One-Electron Energy =                -775.8896944526895822
    Two-Electron Energy =                 292.6209523366810004
    Total Energy =                       -280.6948150487588123

  Dipole Moment: [D]
     X:     0.6980      Y:    -0.2217      Z:    -0.0990     Total:     0.7391

  Basis Set: (AUG-CC-PVQZ AUX)
    Blend: AUG-CC-PVQZ-RI
	 Reference Energy          =    -280.6948150487588123 [Eh]
	 Singles Energy            =      -0.0000000000000000 [Eh]
	 Same-Spin Energy          =      -0.2952611311448415 [Eh]
	 Opposite-Spin Energy      =      -0.9878257439426201 [Eh]
	 Correlation Energy        =      -1.2830868750874616 [Eh]
	 Total Energy              =    -281.9779019238462752 [Eh]

	 ================> DF-SCS-MP2 Energies <==================
	-----------------------------------------------------------
	 SCS Same-Spin Scale       =       0.3333333333333333 [-]
	 SCS Opposite-Spin Scale   =       1.2000000000000000 [-]
	 SCS Same-Spin Energy      =      -0.0984203770482805 [Eh]
	 SCS Opposite-Spin Energy  =      -1.1853908927311441 [Eh]
	 SCS Correlation Energy    =      -1.2838112697794246 [Eh]
	 SCS Total Energy          =    -281.9786263185382609 [Eh]
	-----------------------------------------------------------

*** Psi4 exiting successfully. Buy a developer a beer!
