                               Psi4 1.4a2.dev224

  ==> Input File <==

--------------------------------------------------------------------------
#Generated by lconvert.py for cbs job

memory 20 GB

molecule  {
1 1
  C      -2.482940    0.145570    0.115880
  N      -3.741260    0.545110    0.294520
  N      -2.223000   -1.065030   -0.362490
  N      -1.472120    0.952660    0.413850
  H      -0.525470    0.627370    0.269800
  H      -1.631810    1.874140    0.777490
  H      -3.949510    1.458240    0.655420
  H      -4.513270   -0.056720    0.072690
  H      -2.962360   -1.701050   -0.598470
  H      -1.259910   -1.346150   -0.489510
--
0 1
  O       1.505050   -1.120640   -0.450130
  H       2.052890   -1.022360   -1.235470
  H       2.077770   -1.574740    0.176210
units angstrom
no_reorient
symmetry c1
}

set {
scf_type DF
mp2_type DF
e_convergence 7
reference rhf
}

energy('mp2/aug-cc-pv[tq]z', bsse_type='cp')
--------------------------------------------------------------------------

    Molecular point group: c1
  Charge       = 0
  Multiplicity = 1
  Basis Set: AUG-CC-PVTZ
    Blend: AUG-CC-PVTZ
  Basis Set: (AUG-CC-PVTZ AUX)
    Blend: AUG-CC-PVTZ-JKFIT
  @DF-RHF Final Energy:   -76.06016046417842
    Total Energy =                        -76.0601604641784377
  Basis Set: (AUG-CC-PVTZ AUX)
    Blend: AUG-CC-PVTZ-RI
	 Reference Energy          =     -76.0601604641784235 [Eh]
	 Singles Energy            =      -0.0000000000000000 [Eh]
	 Same-Spin Energy          =      -0.0684394839856124 [Eh]
	 Opposite-Spin Energy      =      -0.2154645351964194 [Eh]
	 Correlation Energy        =      -0.2839040191820319 [Eh]
	 Total Energy              =     -76.3440644833604551 [Eh]
	 SCS Total Energy          =     -76.3415310677426646 [Eh]
    Molecular point group: c1
  Basis Set: AUG-CC-PVQZ
    Blend: AUG-CC-PVQZ
  Basis Set: (AUG-CC-PVQZ AUX)
    Blend: AUG-CC-PVQZ-JKFIT
  @DF-RHF Final Energy:   -76.06552735259640
    Total Energy =                        -76.0655273525964049
  Basis Set: (AUG-CC-PVQZ AUX)
  @DF-RHF Final Energy:   -76.06021974271869
    Total Energy =                        -76.0602197427186866
  @DF-RHF Final Energy:   -76.06555571463552
    Total Energy =                        -76.0655557146355079
  @DF-RHF Final Energy:  -204.61551238634320
    Total Energy =                       -204.6155123863431982
  @DF-RHF Final Energy:  -204.62854521248974
    Total Energy =                       -204.6285452124897404
  @DF-RHF Final Energy:  -204.61546855006333
    Total Energy =                       -204.6154685500633263
  @DF-RHF Final Energy:  -204.62853900553932
    Total Energy =                       -204.6285390055393236
  Multiplicity = 1
  @DF-RHF Final Energy:  -280.69353559948593
    Total Energy =                       -280.6935355994859265
	 Singles Energy            =      -0.0000000000000000 [Eh]
	 Same-Spin Energy          =      -0.2722114861682130 [Eh]
	 Opposite-Spin Energy      =      -0.8695732955052662 [Eh]
	 Correlation Energy        =      -1.1417847816734792 [Eh]
	 Total Energy              =    -281.8353203811594199 [Eh]
	 SCS Total Energy          =    -281.8277607161483047 [Eh]
    Molecular point group: c1

    Geometry (in Angstrom), charge = 1, multiplicity = 1:

       Center              X                  Y                   Z               Mass
    ------------   -----------------  -----------------  -----------------  -----------------
         C           -0.937469967753     0.297656622822     0.133052452628    12.000000000000
         N           -2.195789967753     0.697196622822     0.311692452628    14.003074004430
         N           -0.677529967753    -0.912943377178    -0.345317547372    14.003074004430
         N            0.073350032247     1.104746622822     0.431022452628    14.003074004430
         H            1.020000032247     0.779456622822     0.286972452628     1.007825032230
         H           -0.086339967753     2.026226622822     0.794662452628     1.007825032230
         H           -2.404039967753     1.610326622822     0.672592452628     1.007825032230
         H           -2.967799967753     0.095366622822     0.089862452628     1.007825032230
         H           -1.416889967753    -1.548963377178    -0.581297547372     1.007825032230
         H            0.285560032247    -1.194063377178    -0.472337547372     1.007825032230
         O            3.050520032247    -0.968553377178    -0.432957547372    15.994914619570
         H            3.598360032247    -0.870273377178    -1.218297547372     1.007825032230
         H            3.623240032247    -1.422653377178     0.193382452628     1.007825032230

  Charge       = 1
  Multiplicity = 1
  Basis Set: AUG-CC-PVQZ
    Blend: AUG-CC-PVQZ
  Basis Set: (AUG-CC-PVQZ AUX)
    Blend: AUG-CC-PVQZ-JKFIT

    Orbital Energies [Eh]
    ---------------------

    Doubly Occupied:

       1A    -20.699136     2A    -15.783817     3A    -15.779949
       4A    -15.779922     5A    -11.591243     6A     -1.537866
       7A     -1.484217     8A     -1.391104     9A     -1.386665
      10A     -1.063479    11A     -0.975602    12A     -0.968439
      13A     -0.858907    14A     -0.856538    15A     -0.854982
      16A     -0.846763    17A     -0.804765    18A     -0.725676
      19A     -0.645819    20A     -0.620515    21A     -0.616175

  @DF-RHF Final Energy:  -280.71189295191556

   => Energetics <=

    Nuclear Repulsion Energy =            183.9929211224644234
    One-Electron Energy =                -738.8664696834766801
    Two-Electron Energy =                 274.1616556090967265
    Total Energy =                       -280.7118929519155586

  Dipole Moment: [D]
     X:    -1.8446      Y:     0.5857      Z:     0.2618     Total:     1.9530

  Basis Set: (AUG-CC-PVQZ AUX)
    Blend: AUG-CC-PVQZ-RI
	 Reference Energy          =    -280.7118929519155586 [Eh]
	 Singles Energy            =      -0.0000000000000000 [Eh]
	 Same-Spin Energy          =      -0.2891740974310389 [Eh]
	 Opposite-Spin Energy      =      -0.9818772017229249 [Eh]
	 Correlation Energy        =      -1.2710512991539638 [Eh]
	 Total Energy              =    -281.9829442510695117 [Eh]

	 ================> DF-SCS-MP2 Energies <==================
	-----------------------------------------------------------
	 SCS Same-Spin Scale       =       0.3333333333333333 [-]
	 SCS Opposite-Spin Scale   =       1.2000000000000000 [-]
	 SCS Same-Spin Energy      =      -0.0963913658103463 [Eh]
	 SCS Opposite-Spin Energy  =      -1.1782526420675099 [Eh]
	 SCS Correlation Energy    =      -1.2746440078778563 [Eh]
	 SCS Total Energy          =    -281.9865369597933977 [Eh]
	-----------------------------------------------------------

*** Psi4 exiting successfully. Buy a developer a beer!
