                               Psi4 1.4a2.dev224

  ==> Input File <==

--------------------------------------------------------------------------
#Generated by lconvert.py for cbs job

memory 40 GB

molecule  {
1 1
  C       -2.4829410     0.1455680     0.1158820
  N       -3.7412650     0.5451140     0.2945210
  N       -2.2230010    -1.0650260    -0.3624870
  N       -1.4721240     0.9526640     0.4138500
  H       -0.5254700     0.6273740     0.2698000
  H       -1.6318070     1.8741450     0.7774880
  H       -3.9495100     1.4582400     0.6554170
  H       -4.5132720    -0.0567230     0.0726920
  H       -2.9623560    -1.7010510    -0.5984670
  H       -1.2599090    -1.3461520    -0.4895060
--
0 1
  O       -0.0620850    -0.6230940    -0.2277290
  H        0.4857510    -0.5248170    -1.0130620
  H        0.5106390    -1.0771990     0.3986140
units angstrom
no_reorient
symmetry c1
}

set {
scf_type DF
mp2_type DF
e_convergence 7
reference rhf
}

energy('mp2/aug-cc-pv[tq]z', bsse_type='cp')
--------------------------------------------------------------------------

    Molecular point group: c1
  Charge       = 0
  Multiplicity = 1
  Basis Set: AUG-CC-PVTZ
    Blend: AUG-CC-PVTZ
  Basis Set: (AUG-CC-PVTZ AUX)
    Blend: AUG-CC-PVTZ-JKFIT
  @DF-RHF Final Energy:   -76.06016051854921
    Total Energy =                        -76.0601605185492105
  Basis Set: (AUG-CC-PVTZ AUX)
    Blend: AUG-CC-PVTZ-RI
	 Reference Energy          =     -76.0601605185492105 [Eh]
	 Singles Energy            =      -0.0000000000000000 [Eh]
	 Same-Spin Energy          =      -0.0684394732055970 [Eh]
	 Opposite-Spin Energy      =      -0.2154645012208229 [Eh]
	 Correlation Energy        =      -0.2839039744264198 [Eh]
	 Total Energy              =     -76.3440644929756331 [Eh]
	 SCS Total Energy          =     -76.3415310777493943 [Eh]
    Molecular point group: c1
  Basis Set: AUG-CC-PVQZ
    Blend: AUG-CC-PVQZ
  Basis Set: (AUG-CC-PVQZ AUX)
    Blend: AUG-CC-PVQZ-JKFIT
  @DF-RHF Final Energy:   -76.06552741115524
    Total Energy =                        -76.0655274111552444
  Basis Set: (AUG-CC-PVQZ AUX)
  @DF-RHF Final Energy:   -76.06044881247431
    Total Energy =                        -76.0604488124743057
  @DF-RHF Final Energy:   -76.06562442215539
    Total Energy =                        -76.0656244221553948
  @DF-RHF Final Energy:  -204.61563305603858
    Total Energy =                       -204.6156330560385754
  @DF-RHF Final Energy:  -204.62856601515151
    Total Energy =                       -204.6285660151515060
  @DF-RHF Final Energy:  -204.61546847361384
    Total Energy =                       -204.6154684736138449
  @DF-RHF Final Energy:  -204.62853892792930
    Total Energy =                       -204.6285389279292986
  @DF-RHF Final Energy:  -280.62265405280044
    Total Energy =                       -280.6226540528004421
  @DF-RHF Final Energy:  -280.64091937593770
    Total Energy =                       -280.6409193759376990
*** Psi4 exiting successfully. Buy a developer a beer!
                               Psi4 1.4a2.dev224
  @DF-RHF Final Energy:   -76.06016051855050
    Total Energy =                        -76.0601605185505036
  @DF-RHF Final Energy:   -76.06552741117905
    Total Energy =                        -76.0655274111790476
  @DF-RHF Final Energy:   -76.06037713574139
    Total Energy =                        -76.0603771357413905
  @DF-RHF Final Energy:   -76.06560868798522
    Total Energy =                        -76.0656086879852182
  @DF-RHF Final Energy:  -204.61559046981608
    Total Energy =                       -204.6155904698160839
  @DF-RHF Final Energy:  -204.62855949400603
    Total Energy =                       -204.6285594940060264
  @DF-RHF Final Energy:  -204.61546847365477
    Total Energy =                       -204.6154684736547722
  @DF-RHF Final Energy:  -204.62853892744164
    Total Energy =                       -204.6285389274416389
  @DF-RHF Final Energy:  -280.67652540423268
    Total Energy =                       -280.6765254042326774
  @DF-RHF Final Energy:  -280.69481504875881
    Total Energy =                       -280.6948150487588123
*** Psi4 exiting successfully. Buy a developer a beer!
                               Psi4 1.4a2.dev224
                               Psi4 1.4a2.dev224
                               Psi4 1.4a2.dev224
                               Psi4 1.4a2.dev224
                               Psi4 1.4a2.dev224
                               Psi4 1.4a2.dev224
                               Psi4 1.4a2.dev224
  @DF-RHF Final Energy:   -76.06016049553041
    Total Energy =                        -76.0601604955304111
  @DF-RHF Final Energy:   -76.06552739035521
    Total Energy =                        -76.0655273903552143
  @DF-RHF Final Energy:   -76.06017338380337
    Total Energy =                        -76.0601733838033738
  @DF-RHF Final Energy:   -76.06553538615793
    Total Energy =                        -76.0655353861579329
  @DF-RHF Final Energy:  -204.61548454043188
    Total Energy =                       -204.6154845404318792
  @DF-RHF Final Energy:  -204.62854140405366
    Total Energy =                       -204.6285414040536637
  @DF-RHF Final Energy:  -204.61546855004008
    Total Energy =                       -204.6154685500400774
  @DF-RHF Final Energy:  -204.62853900505365
    Total Energy =                       -204.6285390050536535
  @DF-RHF Final Energy:  -280.68659170178000
    Total Energy =                       -280.6865917017800029
  @DF-RHF Final Energy:  -280.70498899164807
    Total Energy =                       -280.7049889916480652
*** Psi4 exiting successfully. Buy a developer a beer!
                               Psi4 1.4a2.dev224
  @DF-RHF Final Energy:   -76.06015999496375
    Total Energy =                        -76.0601599949637404
  @DF-RHF Final Energy:   -76.06552685990491
    Total Energy =                        -76.0655268599049066
  @DF-RHF Final Energy:   -76.06016558253987
    Total Energy =                        -76.0601655825398666
  @DF-RHF Final Energy:   -76.06552978059503
    Total Energy =                        -76.0655297805950283
  @DF-RHF Final Energy:  -204.61547636426661
    Total Energy =                       -204.6154763642666126
  @DF-RHF Final Energy:  -204.62853975546352
    Total Energy =                       -204.6285397554635210
  @DF-RHF Final Energy:  -204.61546854999642
    Total Energy =                       -204.6154685499964216
  @DF-RHF Final Energy:  -204.62853900566424
    Total Energy =                       -204.6285390056642370
  Multiplicity = 1
  @DF-RHF Final Energy:  -280.68294140883950
    Total Energy =                       -280.6829414088394969
	 Singles Energy            =      -0.0000000000000000 [Eh]
	 Same-Spin Energy          =      -0.2715560538010946 [Eh]
	 Opposite-Spin Energy      =      -0.8685518528366978 [Eh]
	 Correlation Energy        =      -1.1401079066377924 [Eh]
	 Total Energy              =    -281.8230493154773058 [Eh]
	 SCS Total Energy          =    -281.8157223168439032 [Eh]
    Molecular point group: c1

    Geometry (in Angstrom), charge = 1, multiplicity = 1:

       Center              X                  Y                   Z               Mass
    ------------   -----------------  -----------------  -----------------  -----------------
         C           -1.331084404847     0.422624094469     0.188913606822    12.000000000000
         N           -2.589404404847     0.822164094469     0.367553606822    14.003074004430
         N           -1.071144404847    -0.787975905531    -0.289456393178    14.003074004430
         N           -0.320264404847     1.229714094469     0.486883606822    14.003074004430
         H            0.626385595153     0.904424094469     0.342833606822     1.007825032230
         H           -0.479954404847     2.151194094469     0.850523606822     1.007825032230
         H           -2.797654404847     1.735294094469     0.728453606822     1.007825032230
         H           -3.361414404847     0.220334094469     0.145723606822     1.007825032230
         H           -1.810504404847    -1.423995905531    -0.525436393178     1.007825032230
         H           -0.108054404847    -1.069095905531    -0.416476393178     1.007825032230
         O            4.363025595153    -1.385255905531    -0.619226393178    15.994914619570
         H            4.910865595153    -1.286985905531    -1.404566393178     1.007825032230
         H            4.935755595153    -1.839365905531     0.007113606822     1.007825032230

  Charge       = 1
  Multiplicity = 1
  Basis Set: AUG-CC-PVQZ
    Blend: AUG-CC-PVQZ
  Basis Set: (AUG-CC-PVQZ AUX)
    Blend: AUG-CC-PVQZ-JKFIT

    Orbital Energies [Eh]
    ---------------------

    Doubly Occupied:

       1A    -20.654771     2A    -15.790637     3A    -15.789996
       4A    -15.789969     5A    -11.599805     6A     -1.546529
       7A     -1.439665     8A     -1.398952     9A     -1.396138
      10A     -1.072031    11A     -0.984339    12A     -0.977135
      13A     -0.868330    14A     -0.864338    15A     -0.864250
      16A     -0.813151    17A     -0.802803    18A     -0.677128
      19A     -0.627874    20A     -0.625852    21A     -0.600154

  @DF-RHF Final Energy:  -280.70136215111171

   => Energetics <=

    Nuclear Repulsion Energy =            171.8647636644527950
    One-Electron Energy =                -714.7645563147298162
    Two-Electron Energy =                 262.1984304991653403
    Total Energy =                       -280.7013621511117094

  Dipole Moment: [D]
     X:    -4.1922      Y:     1.3310      Z:     0.5950     Total:     4.4384

  Basis Set: (AUG-CC-PVQZ AUX)
    Blend: AUG-CC-PVQZ-RI
	 Reference Energy          =    -280.7013621511117094 [Eh]
	 Singles Energy            =      -0.0000000000000000 [Eh]
	 Same-Spin Energy          =      -0.2885568028146424 [Eh]
	 Opposite-Spin Energy      =      -0.9813955524251994 [Eh]
	 Correlation Energy        =      -1.2699523552398417 [Eh]
	 Total Energy              =    -281.9713145063515753 [Eh]

	 ================> DF-SCS-MP2 Energies <==================
	-----------------------------------------------------------
	 SCS Same-Spin Scale       =       0.3333333333333333 [-]
	 SCS Opposite-Spin Scale   =       1.2000000000000000 [-]
	 SCS Same-Spin Energy      =      -0.0961856009382141 [Eh]
	 SCS Opposite-Spin Energy  =      -1.1776746629102393 [Eh]
	 SCS Correlation Energy    =      -1.2738602638484533 [Eh]
	 SCS Total Energy          =    -281.9752224149601716 [Eh]
	-----------------------------------------------------------

*** Psi4 exiting successfully. Buy a developer a beer!
