                               Psi4 1.4a2.dev224

  ==> Input File <==

--------------------------------------------------------------------------
#Generated by lconvert.py for cbs job

memory 40 GB

molecule  {
1 1
  C       -2.4829410     0.1455680     0.1158820
  N       -3.7412650     0.5451140     0.2945210
  N       -2.2230010    -1.0650260    -0.3624870
  N       -1.4721240     0.9526640     0.4138500
  H       -0.5254700     0.6273740     0.2698000
  H       -1.6318070     1.8741450     0.7774880
  H       -3.9495100     1.4582400     0.6554170
  H       -4.5132720    -0.0567230     0.0726920
  H       -2.9623560    -1.7010510    -0.5984670
  H       -1.2599090    -1.3461520    -0.4895060
--
0 1
  O        0.7106980    -0.8684420    -0.3374000
  H        1.2585340    -0.7701650    -1.1227330
  H        1.2834220    -1.3225470     0.2889430
units angstrom
no_reorient
symmetry c1
}

set {
scf_type DF
mp2_type DF
e_convergence 7
reference rhf
}

energy('mp2/aug-cc-pv[tq]z', bsse_type='cp')
--------------------------------------------------------------------------

    Molecular point group: c1
  Charge       = 0
  Multiplicity = 1
  Basis Set: AUG-CC-PVTZ
    Blend: AUG-CC-PVTZ
  Basis Set: (AUG-CC-PVTZ AUX)
    Blend: AUG-CC-PVTZ-JKFIT
  @DF-RHF Final Energy:   -76.06016051855225
    Total Energy =                        -76.0601605185522658
  Basis Set: (AUG-CC-PVTZ AUX)
    Blend: AUG-CC-PVTZ-RI
	 Reference Energy          =     -76.0601605185522516 [Eh]
	 Singles Energy            =      -0.0000000000000000 [Eh]
	 Same-Spin Energy          =      -0.0684394732055941 [Eh]
	 Opposite-Spin Energy      =      -0.2154645012208010 [Eh]
	 Correlation Energy        =      -0.2839039744263951 [Eh]
	 Total Energy              =     -76.3440644929786458 [Eh]
	 SCS Total Energy          =     -76.3415310777524070 [Eh]
    Molecular point group: c1
  Basis Set: AUG-CC-PVQZ
    Blend: AUG-CC-PVQZ
  Basis Set: (AUG-CC-PVQZ AUX)
    Blend: AUG-CC-PVQZ-JKFIT
  @DF-RHF Final Energy:   -76.06552741115436
    Total Energy =                        -76.0655274111543633
  Basis Set: (AUG-CC-PVQZ AUX)
  @DF-RHF Final Energy:   -76.06029187746798
    Total Energy =                        -76.0602918774679750
  @DF-RHF Final Energy:   -76.06558447265847
    Total Energy =                        -76.0655844726584576
  @DF-RHF Final Energy:  -204.61555242752866
    Total Energy =                       -204.6155524275286552
  @DF-RHF Final Energy:  -204.62855297101186
    Total Energy =                       -204.6285529710118567
  @DF-RHF Final Energy:  -204.61546847366378
    Total Energy =                       -204.6154684736637819
  @DF-RHF Final Energy:  -204.62853892728151
    Total Energy =                       -204.6285389272815110
  Multiplicity = 1
  @DF-RHF Final Energy:  -280.69937329914120
    Total Energy =                       -280.6993732991412003
	 Singles Energy            =      -0.0000000000000000 [Eh]
	 Same-Spin Energy          =      -0.2743859611496183 [Eh]
	 Opposite-Spin Energy      =      -0.8723246779724244 [Eh]
	 Correlation Energy        =      -1.1467106391220427 [Eh]
	 Total Energy              =    -281.8460839382632344 [Eh]
	 SCS Total Energy          =    -281.8376248997579978 [Eh]
    Molecular point group: c1

    Geometry (in Angstrom), charge = 1, multiplicity = 1:

       Center              X                  Y                   Z               Mass
    ------------   -----------------  -----------------  -----------------  -----------------
         C           -0.754206306881     0.239468927213     0.107045615067    12.000000000000
         N           -2.012530306881     0.639014927213     0.285684615067    14.003074004430
         N           -0.494266306881    -0.971125072787    -0.371323384933    14.003074004430
         N            0.256610693119     1.046564927213     0.405013615067    14.003074004430
         H            1.203264693119     0.721274927213     0.260963615067     1.007825032230
         H            0.096927693119     1.968045927213     0.768651615067     1.007825032230
         H           -2.220775306881     1.552140927213     0.646580615067     1.007825032230
         H           -2.784537306881     0.037177927213     0.063855615067     1.007825032230
         H           -1.233621306881    -1.607150072787    -0.607303384933     1.007825032230
         H            0.468825693119    -1.252251072787    -0.498342384933     1.007825032230
         O            2.439432693119    -0.774541072787    -0.346236384933    15.994914619570
         H            2.987268693119    -0.676264072787    -1.131569384933     1.007825032230
         H            3.012156693119    -1.228646072787     0.280106615067     1.007825032230

  Charge       = 1
  Multiplicity = 1
  Basis Set: AUG-CC-PVQZ
    Blend: AUG-CC-PVQZ
  Basis Set: (AUG-CC-PVQZ AUX)
    Blend: AUG-CC-PVQZ-JKFIT

    Orbital Energies [Eh]
    ---------------------

    Doubly Occupied:

       1A    -20.737419     2A    -15.775403     3A    -15.765682
       4A    -15.765656     5A    -11.580539     6A     -1.530421
       7A     -1.523372     8A     -1.381387     9A     -1.374939
      10A     -1.053520    11A     -0.965786    12A     -0.959025
      13A     -0.886680    14A     -0.854468    15A     -0.850017
      16A     -0.845989    17A     -0.794340    18A     -0.759625
      19A     -0.687673    20A     -0.611339    21A     -0.603851

  @DF-RHF Final Energy:  -280.71774251611680

   => Energetics <=

    Nuclear Repulsion Energy =            193.8904291179765664
    One-Electron Energy =                -758.6020836601969677
    Two-Electron Energy =                 283.9939120261036578
    Total Energy =                       -280.7177425161168003

  Dipole Moment: [D]
     X:    -0.3944      Y:     0.1252      Z:     0.0560     Total:     0.4175

  Basis Set: (AUG-CC-PVQZ AUX)
    Blend: AUG-CC-PVQZ-RI
	 Reference Energy          =    -280.7177425161168003 [Eh]
	 Singles Energy            =      -0.0000000000000000 [Eh]
	 Same-Spin Energy          =      -0.2913269034377187 [Eh]
	 Opposite-Spin Energy      =      -0.9839565614918383 [Eh]
	 Correlation Energy        =      -1.2752834649295570 [Eh]
	 Total Energy              =    -281.9930259810463440 [Eh]

	 ================> DF-SCS-MP2 Energies <==================
	-----------------------------------------------------------
	 SCS Same-Spin Scale       =       0.3333333333333333 [-]
	 SCS Opposite-Spin Scale   =       1.2000000000000000 [-]
	 SCS Same-Spin Energy      =      -0.0971089678125729 [Eh]
	 SCS Opposite-Spin Energy  =      -1.1807478737902060 [Eh]
	 SCS Correlation Energy    =      -1.2778568416027789 [Eh]
	 SCS Total Energy          =    -281.9955993577195841 [Eh]
	-----------------------------------------------------------

*** Psi4 exiting successfully. Buy a developer a beer!
