                               Psi4 1.4a2.dev224

  ==> Input File <==

--------------------------------------------------------------------------
#Generated by lconvert.py for cbs job

memory 40 GB

molecule  {
-1 1
  C       -0.8399350     0.4807070    -0.3696050
  C       -2.1072780    -0.3420020    -0.0493320
  O       -2.0428620    -1.5800500    -0.2641380
  O       -3.0771720     0.3265260     0.3971320
  H       -0.5060400     0.9951150     0.5319170
  H       -0.0398040    -0.1506950    -0.7502850
  H       -1.0841300     1.2488090    -1.1039280
--
0 1
  O       -4.8943980    -2.1154670     0.6605480
  H       -4.6513940    -1.1756380     0.7204540
  H       -4.0333180    -2.3979860     0.3124150
units angstrom
no_reorient
symmetry c1
}

set {
scf_type DF
mp2_type DF
e_convergence 7
reference rhf
}

energy('mp2/aug-cc-pv[tq]z', bsse_type='cp')
--------------------------------------------------------------------------

    Molecular point group: c1
  Charge       = 0
  Multiplicity = 1
  Basis Set: AUG-CC-PVTZ
    Blend: AUG-CC-PVTZ
  Basis Set: (AUG-CC-PVTZ AUX)
    Blend: AUG-CC-PVTZ-JKFIT
  @DF-RHF Final Energy:   -76.05622199531689
    Total Energy =                        -76.0562219953168892
  Basis Set: (AUG-CC-PVTZ AUX)
    Blend: AUG-CC-PVTZ-RI
	 Reference Energy          =     -76.0562219953168892 [Eh]
	 Singles Energy            =      -0.0000000000000000 [Eh]
	 Same-Spin Energy          =      -0.0688986858209587 [Eh]
	 Opposite-Spin Energy      =      -0.2166336195424104 [Eh]
	 Correlation Energy        =      -0.2855323053633692 [Eh]
	 Total Energy              =     -76.3417543006802646 [Eh]
	 SCS Total Energy          =     -76.3391485673747638 [Eh]
    Molecular point group: c1
  Basis Set: AUG-CC-PVQZ
    Blend: AUG-CC-PVQZ
  Basis Set: (AUG-CC-PVQZ AUX)
    Blend: AUG-CC-PVQZ-JKFIT
  @DF-RHF Final Energy:   -76.06155421576209
    Total Energy =                        -76.0615542157620723
  Basis Set: (AUG-CC-PVQZ AUX)
  @DF-RHF Final Energy:   -76.05627358048700
    Total Energy =                        -76.0562735804870158
  @DF-RHF Final Energy:   -76.06158089884133
    Total Energy =                        -76.0615808988413278
  @DF-RHF Final Energy:  -227.32864098107447
    Total Energy =                       -227.3286409810744715
  @DF-RHF Final Energy:  -227.34290977830730
    Total Energy =                       -227.3429097783073018
  @DF-RHF Final Energy:  -227.32855652831191
    Total Energy =                       -227.3285565283119070
  @DF-RHF Final Energy:  -227.34287014958096
    Total Energy =                       -227.3428701495809605
  Multiplicity = 1
  @DF-RHF Final Energy:  -303.41385376543030
    Total Energy =                       -303.4138537654303036
	 Singles Energy            =      -0.0000000000000000 [Eh]
	 Same-Spin Energy          =      -0.2935656828582163 [Eh]
	 Opposite-Spin Energy      =      -0.8931194325149365 [Eh]
	 Correlation Energy        =      -1.1866851153731528 [Eh]
	 Total Energy              =    -304.6005388808034695 [Eh]
	 SCS Total Energy          =    -304.5834523120676067 [Eh]
    Molecular point group: c1

    Geometry (in Angstrom), charge = -1, multiplicity = 1:

       Center              X                  Y                   Z               Mass
    ------------   -----------------  -----------------  -----------------  -----------------
         C            1.833806817628     1.178078389171    -0.465337671642    12.000000000000
         C            0.566463817628     0.355369389171    -0.145064671642    12.000000000000
         O            0.630879817628    -0.882678610829    -0.359870671642    15.994914619570
         O           -0.403430182372     1.023897389171     0.301399328358    15.994914619570
         H            2.167701817628     1.692486389171     0.436184328358     1.007825032230
         H            2.633937817628     0.546676389171    -0.846017671642     1.007825032230
         H            1.589611817628     1.946180389171    -1.199660671642     1.007825032230
         O           -2.220656182372    -1.418095610829     0.564815328358    15.994914619570
         H           -1.977652182372    -0.478266610829     0.624721328358     1.007825032230
         H           -1.359576182372    -1.700614610829     0.216682328358     1.007825032230

  Charge       = -1
  Multiplicity = 1
  Basis Set: AUG-CC-PVQZ
    Blend: AUG-CC-PVQZ
  Basis Set: (AUG-CC-PVQZ AUX)
    Blend: AUG-CC-PVQZ-JKFIT

    Orbital Energies [Eh]
    ---------------------

    Doubly Occupied:

       1A    -20.367359     2A    -20.311403     3A    -20.308820
       4A    -11.155067     5A    -11.060015     6A     -1.187854
       7A     -1.152843     8A     -1.086588     9A     -0.811928
      10A     -0.536778    11A     -0.495842    12A     -0.442243
      13A     -0.438238    14A     -0.431195    15A     -0.408120
      16A     -0.381388    17A     -0.341052    18A     -0.314831
      19A     -0.231285    20A     -0.220005    21A     -0.216627

  @DF-RHF Final Energy:  -303.43348013682674

   => Energetics <=

    Nuclear Repulsion Energy =            169.3822914661200798
    One-Electron Energy =                -761.8325886917174330
    Two-Electron Energy =                 289.0168170887705514
    Total Energy =                       -303.4334801368267449

  Dipole Moment: [D]
     X:     2.8692      Y:     1.7482      Z:    -0.7428     Total:     3.4410

  Basis Set: (AUG-CC-PVQZ AUX)
    Blend: AUG-CC-PVQZ-RI
	 Reference Energy          =    -303.4334801368267449 [Eh]
	 Singles Energy            =      -0.0000000000000000 [Eh]
	 Same-Spin Energy          =      -0.3114421889686538 [Eh]
	 Opposite-Spin Energy      =      -1.0113234023424340 [Eh]
	 Correlation Energy        =      -1.3227655913110878 [Eh]
	 Total Energy              =    -304.7562457281378556 [Eh]

	 ================> DF-SCS-MP2 Energies <==================
	-----------------------------------------------------------
	 SCS Same-Spin Scale       =       0.3333333333333333 [-]
	 SCS Opposite-Spin Scale   =       1.2000000000000000 [-]
	 SCS Same-Spin Energy      =      -0.1038140629895513 [Eh]
	 SCS Opposite-Spin Energy  =      -1.2135880828109207 [Eh]
	 SCS Correlation Energy    =      -1.3174021458004719 [Eh]
	 SCS Total Energy          =    -304.7508822826272308 [Eh]
	-----------------------------------------------------------

*** Psi4 exiting successfully. Buy a developer a beer!
