                               Psi4 1.4a2.dev224

  ==> Input File <==

--------------------------------------------------------------------------
#Generated by lconvert.py for cbs job

memory 40 GB

molecule  {
-1 1
  C       -0.8399350     0.4807070    -0.3696050
  C       -2.1072780    -0.3420020    -0.0493320
  O       -2.0428620    -1.5800500    -0.2641380
  O       -3.0771720     0.3265260     0.3971320
  H       -0.5060400     0.9951150     0.5319170
  H       -0.0398040    -0.1506950    -0.7502850
  H       -1.0841300     1.2488090    -1.1039280
--
0 1
  O       -4.4650650    -1.7057860     0.5723690
  H       -4.2220610    -0.7659570     0.6322750
  H       -3.6039850    -1.9883050     0.2242360
units angstrom
no_reorient
symmetry c1
}

set {
scf_type DF
mp2_type DF
e_convergence 7
reference rhf
}

energy('mp2/aug-cc-pv[tq]z', bsse_type='cp')
--------------------------------------------------------------------------

    Molecular point group: c1
  Charge       = 0
  Multiplicity = 1
  Basis Set: AUG-CC-PVTZ
    Blend: AUG-CC-PVTZ
  Basis Set: (AUG-CC-PVTZ AUX)
    Blend: AUG-CC-PVTZ-JKFIT
  @DF-RHF Final Energy:   -76.05622199530667
    Total Energy =                        -76.0562219953066574
  Basis Set: (AUG-CC-PVTZ AUX)
    Blend: AUG-CC-PVTZ-RI
	 Reference Energy          =     -76.0562219953066716 [Eh]
	 Singles Energy            =      -0.0000000000000000 [Eh]
	 Same-Spin Energy          =      -0.0688986858209706 [Eh]
	 Opposite-Spin Energy      =      -0.2166336195424182 [Eh]
	 Correlation Energy        =      -0.2855323053633887 [Eh]
	 Total Energy              =     -76.3417543006700612 [Eh]
	 SCS Total Energy          =     -76.3391485673645604 [Eh]
    Molecular point group: c1
  Basis Set: AUG-CC-PVQZ
    Blend: AUG-CC-PVQZ
  Basis Set: (AUG-CC-PVQZ AUX)
    Blend: AUG-CC-PVQZ-JKFIT
  @DF-RHF Final Energy:   -76.06155421576659
    Total Energy =                        -76.0615542157665914
  Basis Set: (AUG-CC-PVQZ AUX)
  @DF-RHF Final Energy:   -76.05633017797118
    Total Energy =                        -76.0563301779711765
  @DF-RHF Final Energy:   -76.06159694456586
    Total Energy =                        -76.0615969445658493
  @DF-RHF Final Energy:  -227.32873767983745
    Total Energy =                       -227.3287376798374453
  @DF-RHF Final Energy:  -227.34293223173637
    Total Energy =                       -227.3429322317363699
  @DF-RHF Final Energy:  -227.32855652791676
    Total Energy =                       -227.3285565279167599
  @DF-RHF Final Energy:  -227.34287014952051
    Total Energy =                       -227.3428701495205075
  Multiplicity = 1
  @DF-RHF Final Energy:  -303.40094251990888
    Total Energy =                       -303.4009425199088810
	 Singles Energy            =      -0.0000000000000000 [Eh]
	 Same-Spin Energy          =      -0.2973189160380055 [Eh]
	 Opposite-Spin Energy      =      -0.8968023110739232 [Eh]
	 Correlation Energy        =      -1.1941212271119288 [Eh]
	 Total Energy              =    -304.5950637470207880 [Eh]
	 SCS Total Energy          =    -304.5762115985435798 [Eh]
    Molecular point group: c1

    Geometry (in Angstrom), charge = -1, multiplicity = 1:

       Center              X                  Y                   Z               Mass
    ------------   -----------------  -----------------  -----------------  -----------------
         C            1.733415473154     1.082282290582    -0.444718692051    12.000000000000
         C            0.466072473154     0.259573290582    -0.124445692051    12.000000000000
         O            0.530488473154    -0.978474709418    -0.339251692051    15.994914619570
         O           -0.503821526846     0.928101290582     0.322018307949    15.994914619570
         H            2.067310473154     1.596690290582     0.456803307949     1.007825032230
         H            2.533546473154     0.450880290582    -0.825398692051     1.007825032230
         H            1.489220473154     1.850384290582    -1.179041692051     1.007825032230
         O           -1.891714526846    -1.104210709418     0.497255307949    15.994914619570
         H           -1.648710526846    -0.164381709418     0.557161307949     1.007825032230
         H           -1.030634526846    -1.386729709418     0.149122307949     1.007825032230

  Charge       = -1
  Multiplicity = 1
  Basis Set: AUG-CC-PVQZ
    Blend: AUG-CC-PVQZ
  Basis Set: (AUG-CC-PVQZ AUX)
    Blend: AUG-CC-PVQZ-JKFIT

    Orbital Energies [Eh]
    ---------------------

    Doubly Occupied:

       1A    -20.323721     2A    -20.320234     3A    -20.300905
       4A    -11.168697     5A    -11.068173     6A     -1.210680
       7A     -1.106617     8A     -1.098191     9A     -0.821501
      10A     -0.554263    11A     -0.491956    12A     -0.462168
      13A     -0.441622    14A     -0.421710    15A     -0.386809
      16A     -0.365009    17A     -0.355486    18A     -0.258149
      19A     -0.245372    20A     -0.233475    21A     -0.219556

  @DF-RHF Final Energy:  -303.42051133022812

   => Energetics <=

    Nuclear Repulsion Energy =            179.3739536360572515
    One-Electron Energy =                -781.8803377839832365
    Two-Electron Energy =                 299.0858728176978047
    Total Energy =                       -303.4205113302281234

  Dipole Moment: [D]
     X:     4.0236      Y:     2.5748      Z:    -1.0226     Total:     4.8851

  Basis Set: (AUG-CC-PVQZ AUX)
    Blend: AUG-CC-PVQZ-RI
	 Reference Energy          =    -303.4205113302281234 [Eh]
	 Singles Energy            =      -0.0000000000000000 [Eh]
	 Same-Spin Energy          =      -0.3152907398819753 [Eh]
	 Opposite-Spin Energy      =      -1.0144633451654355 [Eh]
	 Correlation Energy        =      -1.3297540850474108 [Eh]
	 Total Energy              =    -304.7502654152755213 [Eh]

	 ================> DF-SCS-MP2 Energies <==================
	-----------------------------------------------------------
	 SCS Same-Spin Scale       =       0.3333333333333333 [-]
	 SCS Opposite-Spin Scale   =       1.2000000000000000 [-]
	 SCS Same-Spin Energy      =      -0.1050969132939918 [Eh]
	 SCS Opposite-Spin Energy  =      -1.2173560141985225 [Eh]
	 SCS Correlation Energy    =      -1.3224529274925143 [Eh]
	 SCS Total Energy          =    -304.7429642577206437 [Eh]
	-----------------------------------------------------------

*** Psi4 exiting successfully. Buy a developer a beer!
