                               Psi4 1.4a2.dev224

  ==> Input File <==

--------------------------------------------------------------------------
#Generated by lconvert.py for cbs job

memory 20 GB

molecule  {
-1 1
  C      -0.839930    0.480710   -0.369610
  C      -2.107280   -0.342000   -0.049330
  O      -2.042860   -1.580050   -0.264140
  O      -3.077170    0.326530    0.397130
  H      -0.506040    0.995110    0.531920
  H      -0.039800   -0.150690   -0.750280
  H      -1.084130    1.248810   -1.103930
--
0 1
  O      -5.609950   -2.798270    0.807510
  H      -5.366950   -1.858440    0.867420
  H      -4.748870   -3.080790    0.459380
units angstrom
no_reorient
symmetry c1
}

set {
scf_type DF
mp2_type DF
e_convergence 7
reference rhf
}

energy('mp2/aug-cc-pv[tq]z', bsse_type='cp')
--------------------------------------------------------------------------

    Molecular point group: c1
  Charge       = 0
  Multiplicity = 1
  Basis Set: AUG-CC-PVTZ
    Blend: AUG-CC-PVTZ
  Basis Set: (AUG-CC-PVTZ AUX)
    Blend: AUG-CC-PVTZ-JKFIT
  @DF-RHF Final Energy:   -76.05622223596451
    Total Energy =                        -76.0562222359645261
  Basis Set: (AUG-CC-PVTZ AUX)
    Blend: AUG-CC-PVTZ-RI
	 Reference Energy          =     -76.0562222359645119 [Eh]
	 Singles Energy            =      -0.0000000000000000 [Eh]
	 Same-Spin Energy          =      -0.0688986648735480 [Eh]
	 Opposite-Spin Energy      =      -0.2166335719980262 [Eh]
	 Correlation Energy        =      -0.2855322368715742 [Eh]
	 Total Energy              =     -76.3417544728360866 [Eh]
	 SCS Total Energy          =     -76.3391487439866552 [Eh]
    Molecular point group: c1
  Basis Set: AUG-CC-PVQZ
    Blend: AUG-CC-PVQZ
  Basis Set: (AUG-CC-PVQZ AUX)
    Blend: AUG-CC-PVQZ-JKFIT
  @DF-RHF Final Energy:   -76.06155445746394
    Total Energy =                        -76.0615544574639557
  Basis Set: (AUG-CC-PVQZ AUX)
  @DF-RHF Final Energy:   -76.05623942946910
    Total Energy =                        -76.0562394294691160
  @DF-RHF Final Energy:   -76.06156249077193
    Total Energy =                        -76.0615624907719337
  @DF-RHF Final Energy:  -227.32858510671360
    Total Energy =                       -227.3285851067136036
  @DF-RHF Final Energy:  -227.34288833976811
    Total Energy =                       -227.3428883397681091
  @DF-RHF Final Energy:  -227.32855654587121
    Total Energy =                       -227.3285565458712085
  @DF-RHF Final Energy:  -227.34287016951947
    Total Energy =                       -227.3428701695194718
  Multiplicity = 1
  @DF-RHF Final Energy:  -303.40307192916646
    Total Energy =                       -303.4030719291664582
	 Singles Energy            =      -0.0000000000000000 [Eh]
	 Same-Spin Energy          =      -0.2919543429845963 [Eh]
	 Opposite-Spin Energy      =      -0.8913848389903865 [Eh]
	 Correlation Energy        =      -1.1833391819749828 [Eh]
	 Total Energy              =    -304.5864111111414445 [Eh]
	 SCS Total Energy          =    -304.5700518502831073 [Eh]
    Molecular point group: c1

    Geometry (in Angstrom), charge = -1, multiplicity = 1:

       Center              X                  Y                   Z               Mass
    ------------   -----------------  -----------------  -----------------  -----------------
         C            2.001128725557     1.337740242549    -0.499705808197    12.000000000000
         C            0.733778725557     0.515030242549    -0.179425808197    12.000000000000
         O            0.798198725557    -0.723019757451    -0.394235808197    15.994914619570
         O           -0.236111274443     1.183560242549     0.267034191803    15.994914619570
         H            2.335018725557     1.852140242549     0.401824191803     1.007825032230
         H            2.801258725557     0.706340242549    -0.880375808197     1.007825032230
         H            1.756928725557     2.105840242549    -1.234025808197     1.007825032230
         O           -2.768891274443    -1.941239757451     0.677414191803    15.994914619570
         H           -2.525891274443    -1.001409757451     0.737324191803     1.007825032230
         H           -1.907811274443    -2.223759757451     0.329284191803     1.007825032230

  Charge       = -1
  Multiplicity = 1
  Basis Set: AUG-CC-PVQZ
    Blend: AUG-CC-PVQZ
  Basis Set: (AUG-CC-PVQZ AUX)
    Blend: AUG-CC-PVQZ-JKFIT

    Orbital Energies [Eh]
    ---------------------

    Doubly Occupied:

       1A    -20.422972     2A    -20.300174     3A    -20.296927
       4A    -11.143769     5A    -11.053164     6A     -1.205544
       7A     -1.173914     8A     -1.073497     9A     -0.804187
      10A     -0.544036    11A     -0.524766    12A     -0.458429
      13A     -0.429629    14A     -0.427708    15A     -0.423050
      16A     -0.372180    17A     -0.367199    18A     -0.329595
      19A     -0.217252    20A     -0.208938    21A     -0.203613

  @DF-RHF Final Energy:  -303.42267418816908

   => Energetics <=

    Nuclear Repulsion Energy =            158.5065396955610026
    One-Electron Energy =                -739.8973461847883755
    Two-Electron Energy =                 277.9681323010582332
    Total Energy =                       -303.4226741881690828

  Dipole Moment: [D]
     X:     1.5580      Y:     0.6904      Z:    -0.4435     Total:     1.7608

  Basis Set: (AUG-CC-PVQZ AUX)
    Blend: AUG-CC-PVQZ-RI
	 Reference Energy          =    -303.4226741881690828 [Eh]
	 Singles Energy            =      -0.0000000000000000 [Eh]
	 Same-Spin Energy          =      -0.3098123117649486 [Eh]
	 Opposite-Spin Energy      =      -1.0099919528840844 [Eh]
	 Correlation Energy        =      -1.3198042646490329 [Eh]
	 Total Energy              =    -304.7424784528180908 [Eh]

	 ================> DF-SCS-MP2 Energies <==================
	-----------------------------------------------------------
	 SCS Same-Spin Scale       =       0.3333333333333333 [-]
	 SCS Opposite-Spin Scale   =       1.2000000000000000 [-]
	 SCS Same-Spin Energy      =      -0.1032707705883162 [Eh]
	 SCS Opposite-Spin Energy  =      -1.2119903434609012 [Eh]
	 SCS Correlation Energy    =      -1.3152611140492174 [Eh]
	 SCS Total Energy          =    -304.7379353022183182 [Eh]
	-----------------------------------------------------------

*** Psi4 exiting successfully. Buy a developer a beer!
