                               Psi4 1.4a2.dev224

  ==> Input File <==

--------------------------------------------------------------------------
#Generated by lconvert.py for cbs job

memory 40 GB

molecule  {
-1 1
  C       -0.8399350     0.4807070    -0.3696050
  C       -2.1072780    -0.3420020    -0.0493320
  O       -2.0428620    -1.5800500    -0.2641380
  O       -3.0771720     0.3265260     0.3971320
  H       -0.5060400     0.9951150     0.5319170
  H       -0.0398040    -0.1506950    -0.7502850
  H       -1.0841300     1.2488090    -1.1039280
--
0 1
  O       -4.7512870    -1.9789070     0.6311550
  H       -4.5082830    -1.0390780     0.6910610
  H       -3.8902070    -2.2614260     0.2830220
units angstrom
no_reorient
symmetry c1
}

set {
scf_type DF
mp2_type DF
e_convergence 7
reference rhf
}

energy('mp2/aug-cc-pv[tq]z', bsse_type='cp')
--------------------------------------------------------------------------

    Molecular point group: c1
  Charge       = 0
  Multiplicity = 1
  Basis Set: AUG-CC-PVTZ
    Blend: AUG-CC-PVTZ
  Basis Set: (AUG-CC-PVTZ AUX)
    Blend: AUG-CC-PVTZ-JKFIT
  @DF-RHF Final Energy:   -76.05622199529823
    Total Energy =                        -76.0562219952982161
  Basis Set: (AUG-CC-PVTZ AUX)
    Blend: AUG-CC-PVTZ-RI
	 Reference Energy          =     -76.0562219952982304 [Eh]
	 Singles Energy            =      -0.0000000000000000 [Eh]
	 Same-Spin Energy          =      -0.0688986858209881 [Eh]
	 Opposite-Spin Energy      =      -0.2166336195424580 [Eh]
	 Correlation Energy        =      -0.2855323053634461 [Eh]
	 Total Energy              =     -76.3417543006616768 [Eh]
	 SCS Total Energy          =     -76.3391485673561760 [Eh]
    Molecular point group: c1
  Basis Set: AUG-CC-PVQZ
    Blend: AUG-CC-PVQZ
  Basis Set: (AUG-CC-PVQZ AUX)
    Blend: AUG-CC-PVQZ-JKFIT
  @DF-RHF Final Energy:   -76.06155421576372
    Total Energy =                        -76.0615542157637208
  Basis Set: (AUG-CC-PVQZ AUX)
  @DF-RHF Final Energy:   -76.05629107867601
    Total Energy =                        -76.0562910786760256
  @DF-RHF Final Energy:   -76.06158564037439
    Total Energy =                        -76.0615856403743891
  @DF-RHF Final Energy:  -227.32864789601300
    Total Energy =                       -227.3286478960129955
  @DF-RHF Final Energy:  -227.34291307374053
    Total Energy =                       -227.3429130737405330
  @DF-RHF Final Energy:  -227.32855652807422
    Total Energy =                       -227.3285565280742162
  @DF-RHF Final Energy:  -227.34287014927244
    Total Energy =                       -227.3428701492724429
  Multiplicity = 1
  @DF-RHF Final Energy:  -303.41421283897301
    Total Energy =                       -303.4142128389730146
	 Singles Energy            =      -0.0000000000000000 [Eh]
	 Same-Spin Energy          =      -0.2944030031325118 [Eh]
	 Opposite-Spin Energy      =      -0.8939445437192306 [Eh]
	 Correlation Energy        =      -1.1883475468517424 [Eh]
	 Total Energy              =    -304.6025603858247450 [Eh]
	 SCS Total Energy          =    -304.5850806258135890 [Eh]
    Molecular point group: c1

    Geometry (in Angstrom), charge = -1, multiplicity = 1:

       Center              X                  Y                   Z               Mass
    ------------   -----------------  -----------------  -----------------  -----------------
         C            1.800343036136     1.146146434251    -0.458464678445    12.000000000000
         C            0.533000036136     0.323437434251    -0.138191678445    12.000000000000
         O            0.597416036136    -0.914610565749    -0.352997678445    15.994914619570
         O           -0.436893963864     0.991965434251     0.308272321555    15.994914619570
         H            2.134238036136     1.660554434251     0.443057321555     1.007825032230
         H            2.600474036136     0.514744434251    -0.839144678445     1.007825032230
         H            1.556148036136     1.914248434251    -1.192787678445     1.007825032230
         O           -2.111008963864    -1.313467565749     0.542295321555    15.994914619570
         H           -1.868004963864    -0.373638565749     0.602201321555     1.007825032230
         H           -1.249928963864    -1.595986565749     0.194162321555     1.007825032230

  Charge       = -1
  Multiplicity = 1
  Basis Set: AUG-CC-PVQZ
    Blend: AUG-CC-PVQZ
  Basis Set: (AUG-CC-PVQZ AUX)
    Blend: AUG-CC-PVQZ-JKFIT

    Orbital Energies [Eh]
    ---------------------

    Doubly Occupied:

       1A    -20.349831     2A    -20.314739     3A    -20.312187
       4A    -11.158708     5A    -11.062150     6A     -1.193029
       7A     -1.137611     8A     -1.091203     9A     -0.814438
      10A     -0.541099    11A     -0.486986    12A     -0.447019
      13A     -0.437901    14A     -0.433863    15A     -0.394824
      16A     -0.383841    17A     -0.344703    18A     -0.299270
      19A     -0.235937    20A     -0.221949    21A     -0.220961

  @DF-RHF Final Energy:  -303.43386541114444

   => Energetics <=

    Nuclear Repulsion Energy =            172.3255518968472018
    One-Electron Energy =                -767.7543344889867285
    Two-Electron Energy =                 291.9949171809951167
    Total Energy =                       -303.4338654111444384

  Dipole Moment: [D]
     X:     3.2013      Y:     1.9960      Z:    -0.8218     Total:     3.8611

  Basis Set: (AUG-CC-PVQZ AUX)
    Blend: AUG-CC-PVQZ-RI
	 Reference Energy          =    -303.4338654111444384 [Eh]
	 Singles Energy            =      -0.0000000000000000 [Eh]
	 Same-Spin Energy          =      -0.3122933148659581 [Eh]
	 Opposite-Spin Energy      =      -1.0119976217485713 [Eh]
	 Correlation Energy        =      -1.3242909366145295 [Eh]
	 Total Energy              =    -304.7581563477589839 [Eh]

	 ================> DF-SCS-MP2 Energies <==================
	-----------------------------------------------------------
	 SCS Same-Spin Scale       =       0.3333333333333333 [-]
	 SCS Opposite-Spin Scale   =       1.2000000000000000 [-]
	 SCS Same-Spin Energy      =      -0.1040977716219860 [Eh]
	 SCS Opposite-Spin Energy  =      -1.2143971460982856 [Eh]
	 SCS Correlation Energy    =      -1.3184949177202716 [Eh]
	 SCS Total Energy          =    -304.7523603288647109 [Eh]
	-----------------------------------------------------------

*** Psi4 exiting successfully. Buy a developer a beer!
