                               Psi4 1.4a2.dev224

  ==> Input File <==

--------------------------------------------------------------------------
#Generated by lconvert.py for cbs job

memory 40 GB

molecule  {
-1 1
  C       -0.8399350     0.4807070    -0.3696050
  C       -2.1072780    -0.3420020    -0.0493320
  O       -2.0428620    -1.5800500    -0.2641380
  O       -3.0771720     0.3265260     0.3971320
  H       -0.5060400     0.9951150     0.5319170
  H       -0.0398040    -0.1506950    -0.7502850
  H       -1.0841300     1.2488090    -1.1039280
--
0 1
  O       -4.3219540    -1.5692260     0.5429760
  H       -4.0789500    -0.6293970     0.6028820
  H       -3.4608740    -1.8517450     0.1948430
units angstrom
no_reorient
symmetry c1
}

set {
scf_type DF
mp2_type DF
e_convergence 7
reference rhf
}

energy('mp2/aug-cc-pv[tq]z', bsse_type='cp')
--------------------------------------------------------------------------

    Molecular point group: c1
  Charge       = 0
  Multiplicity = 1
  Basis Set: AUG-CC-PVTZ
    Blend: AUG-CC-PVTZ
  Basis Set: (AUG-CC-PVTZ AUX)
    Blend: AUG-CC-PVTZ-JKFIT
  @DF-RHF Final Energy:   -76.05622199530055
    Total Energy =                        -76.0562219953005467
  Basis Set: (AUG-CC-PVTZ AUX)
    Blend: AUG-CC-PVTZ-RI
	 Reference Energy          =     -76.0562219953005467 [Eh]
	 Singles Energy            =      -0.0000000000000000 [Eh]
	 Same-Spin Energy          =      -0.0688986858209518 [Eh]
	 Opposite-Spin Energy      =      -0.2166336195423204 [Eh]
	 Correlation Energy        =      -0.2855323053632722 [Eh]
	 Total Energy              =     -76.3417543006638226 [Eh]
	 SCS Total Energy          =     -76.3391485673583219 [Eh]
    Molecular point group: c1
  Basis Set: AUG-CC-PVQZ
    Blend: AUG-CC-PVQZ
  Basis Set: (AUG-CC-PVQZ AUX)
    Blend: AUG-CC-PVQZ-JKFIT
  @DF-RHF Final Energy:   -76.06155421576999
    Total Energy =                        -76.0615542157699736
  Basis Set: (AUG-CC-PVQZ AUX)
  @DF-RHF Final Energy:   -76.05636258682884
    Total Energy =                        -76.0563625868288398
  @DF-RHF Final Energy:   -76.06160464793358
    Total Energy =                        -76.0616046479335637
  @DF-RHF Final Energy:  -227.32880419224156
    Total Energy =                       -227.3288041922415630
  @DF-RHF Final Energy:  -227.34294538328135
    Total Energy =                       -227.3429453832813465
  @DF-RHF Final Energy:  -227.32855652799492
    Total Energy =                       -227.3285565279949196
  @DF-RHF Final Energy:  -227.34287014942208
    Total Energy =                       -227.3428701494220832
  @DF-RHF Final Energy:  -303.37581587040069
    Total Energy =                       -303.3758158704006860
  @DF-RHF Final Energy:  -303.39534561642523
    Total Energy =                       -303.3953456164252316
*** Psi4 exiting successfully. Buy a developer a beer!
                               Psi4 1.4a2.dev224
  @DF-RHF Final Energy:   -76.05622199530667
    Total Energy =                        -76.0562219953066574
  @DF-RHF Final Energy:   -76.06155421576659
    Total Energy =                        -76.0615542157665914
  @DF-RHF Final Energy:   -76.05633017797118
    Total Energy =                        -76.0563301779711765
  @DF-RHF Final Energy:   -76.06159694456586
    Total Energy =                        -76.0615969445658493
  @DF-RHF Final Energy:  -227.32873767983745
    Total Energy =                       -227.3287376798374453
  @DF-RHF Final Energy:  -227.34293223173637
    Total Energy =                       -227.3429322317363699
  @DF-RHF Final Energy:  -227.32855652791676
    Total Energy =                       -227.3285565279167599
  @DF-RHF Final Energy:  -227.34287014952051
    Total Energy =                       -227.3428701495205075
  @DF-RHF Final Energy:  -303.40094251990888
    Total Energy =                       -303.4009425199088810
  @DF-RHF Final Energy:  -303.42051133022812
    Total Energy =                       -303.4205113302281234
*** Psi4 exiting successfully. Buy a developer a beer!
                               Psi4 1.4a2.dev224
                               Psi4 1.4a2.dev224
                               Psi4 1.4a2.dev224
                               Psi4 1.4a2.dev224
                               Psi4 1.4a2.dev224
                               Psi4 1.4a2.dev224
                               Psi4 1.4a2.dev224
  @DF-RHF Final Energy:   -76.05622223596451
    Total Energy =                        -76.0562222359645261
  @DF-RHF Final Energy:   -76.06155445746394
    Total Energy =                        -76.0615544574639557
  @DF-RHF Final Energy:   -76.05623942946910
    Total Energy =                        -76.0562394294691160
  @DF-RHF Final Energy:   -76.06156249077193
    Total Energy =                        -76.0615624907719337
  @DF-RHF Final Energy:  -227.32858510671360
    Total Energy =                       -227.3285851067136036
  @DF-RHF Final Energy:  -227.34288833976811
    Total Energy =                       -227.3428883397681091
  @DF-RHF Final Energy:  -227.32855654587121
    Total Energy =                       -227.3285565458712085
  @DF-RHF Final Energy:  -227.34287016951947
    Total Energy =                       -227.3428701695194718
  @DF-RHF Final Energy:  -303.40307192916646
    Total Energy =                       -303.4030719291664582
  @DF-RHF Final Energy:  -303.42267418816908
    Total Energy =                       -303.4226741881690828
*** Psi4 exiting successfully. Buy a developer a beer!
                               Psi4 1.4a2.dev224
  @DF-RHF Final Energy:   -76.05622179010716
    Total Energy =                        -76.0562217901071591
  @DF-RHF Final Energy:   -76.06155400599698
    Total Energy =                        -76.0615540059969817
  @DF-RHF Final Energy:   -76.05623183044260
    Total Energy =                        -76.0562318304426128
  @DF-RHF Final Energy:   -76.06155862472119
    Total Energy =                        -76.0615586247211866
  @DF-RHF Final Energy:  -227.32857713942735
    Total Energy =                       -227.3285771394273524
  @DF-RHF Final Energy:  -227.34287970518801
    Total Energy =                       -227.3428797051880110
  @DF-RHF Final Energy:  -227.32855654634804
    Total Energy =                       -227.3285565463480395
  @DF-RHF Final Energy:  -227.34287016990334
    Total Energy =                       -227.3428701699033354
  Multiplicity = 1
  @DF-RHF Final Energy:  -303.39836597492615
    Total Energy =                       -303.3983659749261506
	 Singles Energy            =      -0.0000000000000000 [Eh]
	 Same-Spin Energy          =      -0.2917226656705924 [Eh]
	 Opposite-Spin Energy      =      -0.8911415016142419 [Eh]
	 Correlation Energy        =      -1.1828641672848343 [Eh]
	 Total Energy              =    -304.5812301422109840 [Eh]
	 SCS Total Energy          =    -304.5649766654200903 [Eh]
    Molecular point group: c1

    Geometry (in Angstrom), charge = -1, multiplicity = 1:

       Center              X                  Y                   Z               Mass
    ------------   -----------------  -----------------  -----------------  -----------------
         C            2.101521576002     1.433536107307    -0.520325021618    12.000000000000
         C            0.834171576002     0.610826107307    -0.200045021618    12.000000000000
         O            0.898591576002    -0.627223892693    -0.414855021618    15.994914619570
         O           -0.135718423998     1.279356107307     0.246414978382    15.994914619570
         H            2.435411576002     1.947936107307     0.381204978382     1.007825032230
         H            2.901651576002     0.802136107307    -0.900995021618     1.007825032230
         H            1.857321576002     2.201636107307    -1.254645021618     1.007825032230
         O           -3.097838423998    -2.255123892693     0.744974978382    15.994914619570
         H           -2.854828423998    -1.315293892693     0.804884978382     1.007825032230
         H           -2.236758423998    -2.537643892693     0.396844978382     1.007825032230

  Charge       = -1
  Multiplicity = 1
  Basis Set: AUG-CC-PVQZ
    Blend: AUG-CC-PVQZ
  Basis Set: (AUG-CC-PVQZ AUX)
    Blend: AUG-CC-PVQZ-JKFIT

    Orbital Energies [Eh]
    ---------------------

    Doubly Occupied:

       1A    -20.443577     2A    -20.296105     3A    -20.292765
       4A    -11.140015     5A    -11.050724     6A     -1.225835
       7A     -1.169739     8A     -1.069348     9A     -0.801555
      10A     -0.564054    11A     -0.521110    12A     -0.477734
      13A     -0.426274    14A     -0.423964    15A     -0.420294
      16A     -0.386949    17A     -0.368928    18A     -0.326009
      19A     -0.213017    20A     -0.204774    21A     -0.199353

  @DF-RHF Final Energy:  -303.41797899537283

   => Energetics <=

    Nuclear Repulsion Energy =            154.0105634992948183
    One-Electron Energy =                -730.8128502352539044
    Two-Electron Energy =                 273.3843077405862800
    Total Energy =                       -303.4179789953728346

  Dipole Moment: [D]
     X:     0.9111      Y:     0.1272      Z:    -0.3022     Total:     0.9683

  Basis Set: (AUG-CC-PVQZ AUX)
    Blend: AUG-CC-PVQZ-RI
	 Reference Energy          =    -303.4179789953728346 [Eh]
	 Singles Energy            =      -0.0000000000000000 [Eh]
	 Same-Spin Energy          =      -0.3095843061052894 [Eh]
	 Opposite-Spin Energy      =      -1.0098400717277580 [Eh]
	 Correlation Energy        =      -1.3194243778330474 [Eh]
	 Total Energy              =    -304.7374033732058933 [Eh]

	 ================> DF-SCS-MP2 Energies <==================
	-----------------------------------------------------------
	 SCS Same-Spin Scale       =       0.3333333333333333 [-]
	 SCS Opposite-Spin Scale   =       1.2000000000000000 [-]
	 SCS Same-Spin Energy      =      -0.1031947687017631 [Eh]
	 SCS Opposite-Spin Energy  =      -1.2118080860733096 [Eh]
	 SCS Correlation Energy    =      -1.3150028547750727 [Eh]
	 SCS Total Energy          =    -304.7329818501478940 [Eh]
	-----------------------------------------------------------

*** Psi4 exiting successfully. Buy a developer a beer!
