                               Psi4 1.4a2.dev224

  ==> Input File <==

--------------------------------------------------------------------------
#Generated by lconvert.py for cbs job

memory 40 GB

molecule  {
-1 1
  C       -0.8399350     0.4807070    -0.3696050
  C       -2.1072780    -0.3420020    -0.0493320
  O       -2.0428620    -1.5800500    -0.2641380
  O       -3.0771720     0.3265260     0.3971320
  H       -0.5060400     0.9951150     0.5319170
  H       -0.0398040    -0.1506950    -0.7502850
  H       -1.0841300     1.2488090    -1.1039280
--
0 1
  O       -4.6797310    -1.9106270     0.6164590
  H       -4.4367270    -0.9707980     0.6763650
  H       -3.8186510    -2.1931460     0.2683260
units angstrom
no_reorient
symmetry c1
}

set {
scf_type DF
mp2_type DF
e_convergence 7
reference rhf
}

energy('mp2/aug-cc-pv[tq]z', bsse_type='cp')
--------------------------------------------------------------------------

    Molecular point group: c1
  Charge       = 0
  Multiplicity = 1
  Basis Set: AUG-CC-PVTZ
    Blend: AUG-CC-PVTZ
  Basis Set: (AUG-CC-PVTZ AUX)
    Blend: AUG-CC-PVTZ-JKFIT
  @DF-RHF Final Energy:   -76.05622199530433
    Total Energy =                        -76.0562219953043268
  Basis Set: (AUG-CC-PVTZ AUX)
    Blend: AUG-CC-PVTZ-RI
	 Reference Energy          =     -76.0562219953043268 [Eh]
	 Singles Energy            =      -0.0000000000000000 [Eh]
	 Same-Spin Energy          =      -0.0688986858210056 [Eh]
	 Opposite-Spin Energy      =      -0.2166336195424495 [Eh]
	 Correlation Energy        =      -0.2855323053634551 [Eh]
	 Total Energy              =     -76.3417543006677874 [Eh]
	 SCS Total Energy          =     -76.3391485673622725 [Eh]
    Molecular point group: c1
  Basis Set: AUG-CC-PVQZ
    Blend: AUG-CC-PVQZ
  Basis Set: (AUG-CC-PVQZ AUX)
    Blend: AUG-CC-PVQZ-JKFIT
  @DF-RHF Final Energy:   -76.06155421578011
    Total Energy =                        -76.0615542157801201
  Basis Set: (AUG-CC-PVQZ AUX)
  @DF-RHF Final Energy:   -76.05630044643122
    Total Energy =                        -76.0563004464312229
  @DF-RHF Final Energy:   -76.06158794513267
    Total Energy =                        -76.0615879451326862
  @DF-RHF Final Energy:  -227.32866210930737
    Total Energy =                       -227.3286621093073734
  @DF-RHF Final Energy:  -227.34291563242556
    Total Energy =                       -227.3429156324255587
  @DF-RHF Final Energy:  -227.32855652800140
    Total Energy =                       -227.3285565280013998
  @DF-RHF Final Energy:  -227.34287014920028
    Total Energy =                       -227.3428701492002801
  Multiplicity = 1
  @DF-RHF Final Energy:  -303.41331014419336
    Total Energy =                       -303.4133101441933604
	 Singles Energy            =      -0.0000000000000000 [Eh]
	 Same-Spin Energy          =      -0.2949518318940466 [Eh]
	 Opposite-Spin Energy      =      -0.8944855141484052 [Eh]
	 Correlation Energy        =      -1.1894373460424517 [Eh]
	 Total Energy              =    -304.6027474902357994 [Eh]
	 SCS Total Energy          =    -304.5850100384694770 [Eh]
    Molecular point group: c1

    Geometry (in Angstrom), charge = -1, multiplicity = 1:

       Center              X                  Y                   Z               Mass
    ------------   -----------------  -----------------  -----------------  -----------------
         C            1.783611028475     1.130180456792    -0.455028298762    12.000000000000
         C            0.516268028475     0.307471456792    -0.134755298762    12.000000000000
         O            0.580684028475    -0.930576543208    -0.349561298762    15.994914619570
         O           -0.453625971525     0.975999456792     0.311708701238    15.994914619570
         H            2.117506028475     1.644588456792     0.446493701238     1.007825032230
         H            2.583742028475     0.498778456792    -0.835708298762     1.007825032230
         H            1.539416028475     1.898282456792    -1.189351298762     1.007825032230
         O           -2.056184971525    -1.261153543208     0.531035701238    15.994914619570
         H           -1.813180971525    -0.321324543208     0.590941701238     1.007825032230
         H           -1.195104971525    -1.543672543208     0.182902701238     1.007825032230

  Charge       = -1
  Multiplicity = 1
  Basis Set: AUG-CC-PVQZ
    Blend: AUG-CC-PVQZ
  Basis Set: (AUG-CC-PVQZ AUX)
    Blend: AUG-CC-PVQZ-JKFIT

    Orbital Energies [Eh]
    ---------------------

    Doubly Occupied:

       1A    -20.339618     2A    -20.316641     3A    -20.314016
       4A    -11.160815     5A    -11.063394     6A     -1.196295
       7A     -1.129087     8A     -1.094015     9A     -0.815908
      10A     -0.543713    11A     -0.484664    12A     -0.450006
      13A     -0.435921    14A     -0.435439    15A     -0.387755
      16A     -0.384931    17A     -0.346894    18A     -0.290387
      19A     -0.238479    20A     -0.223524    21A     -0.222474

  @DF-RHF Final Energy:  -303.43295905503055

   => Energetics <=

    Nuclear Repulsion Energy =            173.9296493663246963
    One-Electron Energy =                -770.9772520109601146
    Two-Electron Energy =                 293.6146435896048388
    Total Energy =                       -303.4329590550305511

  Dipole Moment: [D]
     X:     3.3836      Y:     2.1284      Z:    -0.8656     Total:     4.0900

  Basis Set: (AUG-CC-PVQZ AUX)
    Blend: AUG-CC-PVQZ-RI
	 Reference Energy          =    -303.4329590550305511 [Eh]
	 Singles Energy            =      -0.0000000000000000 [Eh]
	 Same-Spin Energy          =      -0.3128529916760001 [Eh]
	 Opposite-Spin Energy      =      -1.0124425447204599 [Eh]
	 Correlation Energy        =      -1.3252955363964600 [Eh]
	 Total Energy              =    -304.7582545914270327 [Eh]

	 ================> DF-SCS-MP2 Energies <==================
	-----------------------------------------------------------
	 SCS Same-Spin Scale       =       0.3333333333333333 [-]
	 SCS Opposite-Spin Scale   =       1.2000000000000000 [-]
	 SCS Same-Spin Energy      =      -0.1042843305586667 [Eh]
	 SCS Opposite-Spin Energy  =      -1.2149310536645519 [Eh]
	 SCS Correlation Energy    =      -1.3192153842232186 [Eh]
	 SCS Total Energy          =    -304.7521744392537926 [Eh]
	-----------------------------------------------------------

*** Psi4 exiting successfully. Buy a developer a beer!
