                               Psi4 1.4a2.dev224

  ==> Input File <==

--------------------------------------------------------------------------
#Generated by lconvert.py for cbs job

memory 40 GB

molecule  {
-1 1
  C       -0.8399350     0.4807070    -0.3696050
  C       -2.1072780    -0.3420020    -0.0493320
  O       -2.0428620    -1.5800500    -0.2641380
  O       -3.0771720     0.3265260     0.3971320
  H       -0.5060400     0.9951150     0.5319170
  H       -0.0398040    -0.1506950    -0.7502850
  H       -1.0841300     1.2488090    -1.1039280
--
0 1
  O       -4.8228430    -2.0471870     0.6458510
  H       -4.5798390    -1.1073580     0.7057570
  H       -3.9617630    -2.3297060     0.2977180
units angstrom
no_reorient
symmetry c1
}

set {
scf_type DF
mp2_type DF
e_convergence 7
reference rhf
}

energy('mp2/aug-cc-pv[tq]z', bsse_type='cp')
--------------------------------------------------------------------------

    Molecular point group: c1
  Charge       = 0
  Multiplicity = 1
  Basis Set: AUG-CC-PVTZ
    Blend: AUG-CC-PVTZ
  Basis Set: (AUG-CC-PVTZ AUX)
    Blend: AUG-CC-PVTZ-JKFIT
  @DF-RHF Final Energy:   -76.05622199530853
    Total Energy =                        -76.0562219953085332
  Basis Set: (AUG-CC-PVTZ AUX)
    Blend: AUG-CC-PVTZ-RI
	 Reference Energy          =     -76.0562219953085332 [Eh]
	 Singles Energy            =      -0.0000000000000000 [Eh]
	 Same-Spin Energy          =      -0.0688986858209779 [Eh]
	 Opposite-Spin Energy      =      -0.2166336195424078 [Eh]
	 Correlation Energy        =      -0.2855323053633857 [Eh]
	 Total Energy              =     -76.3417543006719228 [Eh]
	 SCS Total Energy          =     -76.3391485673664221 [Eh]
    Molecular point group: c1
  Basis Set: AUG-CC-PVQZ
    Blend: AUG-CC-PVQZ
  Basis Set: (AUG-CC-PVQZ AUX)
    Blend: AUG-CC-PVQZ-JKFIT
  @DF-RHF Final Energy:   -76.06155421577553
    Total Energy =                        -76.0615542157755300
  Basis Set: (AUG-CC-PVQZ AUX)
  @DF-RHF Final Energy:   -76.05628187233741
    Total Energy =                        -76.0562818723374079
  @DF-RHF Final Energy:   -76.06158332925057
    Total Energy =                        -76.0615833292505670
  @DF-RHF Final Energy:  -227.32864201207818
    Total Energy =                       -227.3286420120781770
  @DF-RHF Final Energy:  -227.34291144965010
    Total Energy =                       -227.3429114496501029
  @DF-RHF Final Energy:  -227.32855652788422
    Total Energy =                       -227.3285565278842171
  @DF-RHF Final Energy:  -227.34287014923336
    Total Energy =                       -227.3428701492333630
  Multiplicity = 1
  @DF-RHF Final Energy:  -303.41430325399267
    Total Energy =                       -303.4143032539926708
	 Singles Energy            =      -0.0000000000000000 [Eh]
	 Same-Spin Energy          =      -0.2939457732112990 [Eh]
	 Opposite-Spin Energy      =      -0.8934942881200344 [Eh]
	 Correlation Energy        =      -1.1874400613313334 [Eh]
	 Total Energy              =    -304.6017433153240290 [Eh]
	 SCS Total Energy          =    -304.5844783241404912 [Eh]
    Molecular point group: c1

    Geometry (in Angstrom), charge = -1, multiplicity = 1:

       Center              X                  Y                   Z               Mass
    ------------   -----------------  -----------------  -----------------  -----------------
         C            1.817075043798     1.162112411711    -0.461901058128    12.000000000000
         C            0.549732043798     0.339403411711    -0.141628058128    12.000000000000
         O            0.614148043798    -0.898644588289    -0.356434058128    15.994914619570
         O           -0.420161956202     1.007931411711     0.304835941872    15.994914619570
         H            2.150970043798     1.676520411711     0.439620941872     1.007825032230
         H            2.617206043798     0.530710411711    -0.842581058128     1.007825032230
         H            1.572880043798     1.930214411711    -1.196224058128     1.007825032230
         O           -2.165832956202    -1.365781588289     0.553554941872    15.994914619570
         H           -1.922828956202    -0.425952588289     0.613460941872     1.007825032230
         H           -1.304752956202    -1.648300588289     0.205421941872     1.007825032230

  Charge       = -1
  Multiplicity = 1
  Basis Set: AUG-CC-PVQZ
    Blend: AUG-CC-PVQZ
  Basis Set: (AUG-CC-PVQZ AUX)
    Blend: AUG-CC-PVQZ-JKFIT

    Orbital Energies [Eh]
    ---------------------

    Doubly Occupied:

       1A    -20.359026     2A    -20.313000     3A    -20.310458
       4A    -11.156801     5A    -11.061030     6A     -1.190250
       7A     -1.145509     8A     -1.088750     9A     -0.813119
      10A     -0.538805    11A     -0.490939    12A     -0.444448
      13A     -0.438510    14A     -0.432458    15A     -0.401654
      16A     -0.382612    17A     -0.342766    18A     -0.307390
      19A     -0.233524    20A     -0.221080    21A     -0.218677

  @DF-RHF Final Energy:  -303.43394630335081

   => Energetics <=

    Nuclear Repulsion Energy =            170.8121992600625560
    One-Electron Energy =                -764.7106818113278450
    Two-Electron Energy =                 290.4645362479144524
    Total Energy =                       -303.4339463033508082

  Dipole Moment: [D]
     X:     3.0305      Y:     1.8696      Z:    -0.7810     Total:     3.6454

  Basis Set: (AUG-CC-PVQZ AUX)
    Blend: AUG-CC-PVQZ-RI
	 Reference Energy          =    -303.4339463033508082 [Eh]
	 Singles Energy            =      -0.0000000000000000 [Eh]
	 Same-Spin Energy          =      -0.3118283727717390 [Eh]
	 Opposite-Spin Energy      =      -1.0116297235572109 [Eh]
	 Correlation Energy        =      -1.3234580963289500 [Eh]
	 Total Energy              =    -304.7574043996797855 [Eh]

	 ================> DF-SCS-MP2 Energies <==================
	-----------------------------------------------------------
	 SCS Same-Spin Scale       =       0.3333333333333333 [-]
	 SCS Opposite-Spin Scale   =       1.2000000000000000 [-]
	 SCS Same-Spin Energy      =      -0.1039427909239130 [Eh]
	 SCS Opposite-Spin Energy  =      -1.2139556682686530 [Eh]
	 SCS Correlation Energy    =      -1.3178984591925660 [Eh]
	 SCS Total Energy          =    -304.7518447625433851 [Eh]
	-----------------------------------------------------------

*** Psi4 exiting successfully. Buy a developer a beer!
