                               Psi4 1.4a2.dev224

  ==> Input File <==

--------------------------------------------------------------------------
#Generated by lconvert.py for cbs job

memory 20 GB

molecule  {
-1 1
  C      -0.839930    0.480710   -0.369610
  C      -2.107280   -0.342000   -0.049330
  O      -2.042860   -1.580050   -0.264140
  O      -3.077170    0.326530    0.397130
  H      -0.506040    0.995110    0.531920
  H      -0.039800   -0.150690   -0.750280
  H      -1.084130    1.248810   -1.103930
--
0 1
  O      -5.180620   -2.388590    0.719330
  H      -4.937620   -1.448760    0.779240
  H      -4.319540   -2.671110    0.371200
units angstrom
no_reorient
symmetry c1
}

set {
scf_type DF
mp2_type DF
e_convergence 7
reference rhf
}

energy('mp2/aug-cc-pv[tq]z', bsse_type='cp')
--------------------------------------------------------------------------

    Molecular point group: c1
  Charge       = 0
  Multiplicity = 1
  Basis Set: AUG-CC-PVTZ
    Blend: AUG-CC-PVTZ
  Basis Set: (AUG-CC-PVTZ AUX)
    Blend: AUG-CC-PVTZ-JKFIT
  @DF-RHF Final Energy:   -76.05622223597057
    Total Energy =                        -76.0562222359705800
  Basis Set: (AUG-CC-PVTZ AUX)
    Blend: AUG-CC-PVTZ-RI
	 Reference Energy          =     -76.0562222359705657 [Eh]
	 Singles Energy            =      -0.0000000000000000 [Eh]
	 Same-Spin Energy          =      -0.0688986648735393 [Eh]
	 Opposite-Spin Energy      =      -0.2166335719980668 [Eh]
	 Correlation Energy        =      -0.2855322368716061 [Eh]
	 Total Energy              =     -76.3417544728421689 [Eh]
	 SCS Total Energy          =     -76.3391487439927658 [Eh]
    Molecular point group: c1
  Basis Set: AUG-CC-PVQZ
    Blend: AUG-CC-PVQZ
  Basis Set: (AUG-CC-PVQZ AUX)
    Blend: AUG-CC-PVQZ-JKFIT
  @DF-RHF Final Energy:   -76.06155445744525
    Total Energy =                        -76.0615544574452400
  Basis Set: (AUG-CC-PVQZ AUX)
  @DF-RHF Final Energy:   -76.05625398321232
    Total Energy =                        -76.0562539832123150
  @DF-RHF Final Energy:   -76.06157131930337
    Total Energy =                        -76.0615713193033685
  @DF-RHF Final Energy:  -227.32862691011493
    Total Energy =                       -227.3286269101149344
  @DF-RHF Final Energy:  -227.34289903602482
    Total Energy =                       -227.3428990360248179
  @DF-RHF Final Energy:  -227.32855654598998
    Total Energy =                       -227.3285565459899829
  @DF-RHF Final Energy:  -227.34287016929110
    Total Energy =                       -227.3428701692911034
  Multiplicity = 1
  @DF-RHF Final Energy:  -303.40971025087714
    Total Energy =                       -303.4097102508771400
	 Singles Energy            =      -0.0000000000000000 [Eh]
	 Same-Spin Energy          =      -0.2925839767358747 [Eh]
	 Opposite-Spin Energy      =      -0.8921130768007846 [Eh]
	 Correlation Energy        =      -1.1846970535366592 [Eh]
	 Total Energy              =    -304.5944073044137781 [Eh]
	 SCS Total Energy          =    -304.5777739352833464 [Eh]
    Molecular point group: c1

    Geometry (in Angstrom), charge = -1, multiplicity = 1:

       Center              X                  Y                   Z               Mass
    ------------   -----------------  -----------------  -----------------  -----------------
         C            1.900738082576     1.241944377791    -0.479086594776    12.000000000000
         C            0.633388082576     0.419234377791    -0.158806594776    12.000000000000
         O            0.697808082576    -0.818815622209    -0.373616594776    15.994914619570
         O           -0.336501917424     1.087764377791     0.287653405224    15.994914619570
         H            2.234628082576     1.756344377791     0.422443405224     1.007825032230
         H            2.700868082576     0.610544377791    -0.859756594776     1.007825032230
         H            1.656538082576     2.010044377791    -1.213406594776     1.007825032230
         O           -2.439951917424    -1.627355622209     0.609853405224    15.994914619570
         H           -2.196951917424    -0.687525622209     0.669763405224     1.007825032230
         H           -1.578871917424    -1.909875622209     0.261723405224     1.007825032230

  Charge       = -1
  Multiplicity = 1
  Basis Set: AUG-CC-PVQZ
    Blend: AUG-CC-PVQZ
  Basis Set: (AUG-CC-PVQZ AUX)
    Blend: AUG-CC-PVQZ-JKFIT

    Orbital Energies [Eh]
    ---------------------

    Doubly Occupied:

       1A    -20.394333     2A    -20.306044     3A    -20.303150
       4A    -11.149477     5A    -11.056698     6A     -1.181277
       7A     -1.177138     8A     -1.079949     9A     -0.808108
      10A     -0.530595    11A     -0.517224    12A     -0.437578
      13A     -0.434489    14A     -0.428851    15A     -0.427169
      16A     -0.377005    17A     -0.340820    18A     -0.334371
      19A     -0.224108    20A     -0.215116    21A     -0.210136

  @DF-RHF Final Energy:  -303.42929311944857

   => Energetics <=

    Nuclear Repulsion Energy =            164.3756104428172193
    One-Electron Energy =                -751.7425432314915952
    Two-Electron Energy =                 283.9376396692258027
    Total Energy =                       -303.4292931194485732

  Dipole Moment: [D]
     X:     2.2935      Y:     1.2989      Z:    -0.6090     Total:     2.7052

  Basis Set: (AUG-CC-PVQZ AUX)
    Blend: AUG-CC-PVQZ-RI
	 Reference Energy          =    -303.4292931194485732 [Eh]
	 Singles Energy            =      -0.0000000000000000 [Eh]
	 Same-Spin Energy          =      -0.3104439071444608 [Eh]
	 Opposite-Spin Energy      =      -1.0105101574605182 [Eh]
	 Correlation Energy        =      -1.3209540646049791 [Eh]
	 Total Energy              =    -304.7502471840535350 [Eh]

	 ================> DF-SCS-MP2 Energies <==================
	-----------------------------------------------------------
	 SCS Same-Spin Scale       =       0.3333333333333333 [-]
	 SCS Opposite-Spin Scale   =       1.2000000000000000 [-]
	 SCS Same-Spin Energy      =      -0.1034813023814869 [Eh]
	 SCS Opposite-Spin Energy  =      -1.2126121889526218 [Eh]
	 SCS Correlation Energy    =      -1.3160934913341087 [Eh]
	 SCS Total Energy          =    -304.7453866107827025 [Eh]
	-----------------------------------------------------------

*** Psi4 exiting successfully. Buy a developer a beer!
