                               Psi4 1.4a2.dev224

  ==> Input File <==

--------------------------------------------------------------------------
#Generated by lconvert.py for cbs job

memory 40 GB

molecule  {
-1 1
  C       -0.8399350     0.4807070    -0.3696050
  C       -2.1072780    -0.3420020    -0.0493320
  O       -2.0428620    -1.5800500    -0.2641380
  O       -3.0771720     0.3265260     0.3971320
  H       -0.5060400     0.9951150     0.5319170
  H       -0.0398040    -0.1506950    -0.7502850
  H       -1.0841300     1.2488090    -1.1039280
--
0 1
  O       -4.6081760    -1.8423470     0.6017620
  H       -4.3651720    -0.9025180     0.6616680
  H       -3.7470960    -2.1248660     0.2536290
units angstrom
no_reorient
symmetry c1
}

set {
scf_type DF
mp2_type DF
e_convergence 7
reference rhf
}

energy('mp2/aug-cc-pv[tq]z', bsse_type='cp')
--------------------------------------------------------------------------

    Molecular point group: c1
  Charge       = 0
  Multiplicity = 1
  Basis Set: AUG-CC-PVTZ
    Blend: AUG-CC-PVTZ
  Basis Set: (AUG-CC-PVTZ AUX)
    Blend: AUG-CC-PVTZ-JKFIT
  @DF-RHF Final Energy:   -76.05622199530916
    Total Energy =                        -76.0562219953091443
  Basis Set: (AUG-CC-PVTZ AUX)
    Blend: AUG-CC-PVTZ-RI
	 Reference Energy          =     -76.0562219953091585 [Eh]
	 Singles Energy            =      -0.0000000000000000 [Eh]
	 Same-Spin Energy          =      -0.0688986858209930 [Eh]
	 Opposite-Spin Energy      =      -0.2166336195424304 [Eh]
	 Correlation Energy        =      -0.2855323053634233 [Eh]
	 Total Energy              =     -76.3417543006725765 [Eh]
	 SCS Total Energy          =     -76.3391485673670758 [Eh]
    Molecular point group: c1
  Basis Set: AUG-CC-PVQZ
    Blend: AUG-CC-PVQZ
  Basis Set: (AUG-CC-PVQZ AUX)
    Blend: AUG-CC-PVQZ-JKFIT
  @DF-RHF Final Energy:   -76.06155421575329
    Total Energy =                        -76.0615542157532900
  Basis Set: (AUG-CC-PVQZ AUX)
  @DF-RHF Final Energy:   -76.05630960580946
    Total Energy =                        -76.0563096058094601
  @DF-RHF Final Energy:   -76.06159048629274
    Total Energy =                        -76.0615904862927437
  @DF-RHF Final Energy:  -227.32868411463275
    Total Energy =                       -227.3286841146327504
  @DF-RHF Final Energy:  -227.34292016119031
    Total Energy =                       -227.3429201611903068
  @DF-RHF Final Energy:  -227.32855652806700
    Total Energy =                       -227.3285565280669971
  @DF-RHF Final Energy:  -227.34287014948706
    Total Energy =                       -227.3428701494870552
  Multiplicity = 1
  @DF-RHF Final Energy:  -303.41120435987909
    Total Energy =                       -303.4112043598790933
	 Singles Energy            =      -0.0000000000000000 [Eh]
	 Same-Spin Energy          =      -0.2956083763152131 [Eh]
	 Opposite-Spin Energy      =      -0.8951319976487391 [Eh]
	 Correlation Energy        =      -1.1907403739639522 [Eh]
	 Total Energy              =    -304.6019447338430268 [Eh]
	 SCS Total Energy          =    -304.5838988824959870 [Eh]
    Molecular point group: c1

    Geometry (in Angstrom), charge = -1, multiplicity = 1:

       Center              X                  Y                   Z               Mass
    ------------   -----------------  -----------------  -----------------  -----------------
         C            1.766879254645     1.114214479332    -0.451591685248    12.000000000000
         C            0.499536254645     0.291505479332    -0.131318685248    12.000000000000
         O            0.563952254645    -0.946542520668    -0.346124685248    15.994914619570
         O           -0.470357745355     0.960033479332     0.315145314752    15.994914619570
         H            2.100774254645     1.628622479332     0.449930314752     1.007825032230
         H            2.567010254645     0.482812479332    -0.832271685248     1.007825032230
         H            1.522684254645     1.882316479332    -1.185914685248     1.007825032230
         O           -2.001361745355    -1.208839520668     0.519775314752    15.994914619570
         H           -1.758357745355    -0.269010520668     0.579681314752     1.007825032230
         H           -1.140281745355    -1.491358520668     0.171642314752     1.007825032230

  Charge       = -1
  Multiplicity = 1
  Basis Set: AUG-CC-PVQZ
    Blend: AUG-CC-PVQZ
  Basis Set: (AUG-CC-PVQZ AUX)
    Blend: AUG-CC-PVQZ-JKFIT

    Orbital Energies [Eh]
    ---------------------

    Doubly Occupied:

       1A    -20.328205     2A    -20.318742     3A    -20.315955
       4A    -11.163157     5A    -11.064789     6A     -1.200189
       7A     -1.119888     8A     -1.097264     9A     -0.817555
      10A     -0.546715    11A     -0.484590    12A     -0.453476
      13A     -0.437224    14A     -0.432275    15A     -0.386204
      16A     -0.380085    17A     -0.349383    18A     -0.280637
      19A     -0.241052    20A     -0.226425    21A     -0.222458

  @DF-RHF Final Energy:  -303.43083501450445

   => Energetics <=

    Nuclear Repulsion Energy =            175.6326882050986740
    One-Electron Energy =                -774.3945042607637106
    Two-Electron Energy =                 295.3309810411605554
    Total Energy =                       -303.4308350145044528

  Dipole Moment: [D]
     X:     3.5796      Y:     2.2681      Z:    -0.9132     Total:     4.3350

  Basis Set: (AUG-CC-PVQZ AUX)
    Blend: AUG-CC-PVQZ-RI
	 Reference Energy          =    -303.4308350145044528 [Eh]
	 Singles Energy            =      -0.0000000000000000 [Eh]
	 Same-Spin Energy          =      -0.3135255792918040 [Eh]
	 Opposite-Spin Energy      =      -1.0129843927452904 [Eh]
	 Correlation Energy        =      -1.3265099720370945 [Eh]
	 Total Energy              =    -304.7573449865415682 [Eh]

	 ================> DF-SCS-MP2 Energies <==================
	-----------------------------------------------------------
	 SCS Same-Spin Scale       =       0.3333333333333333 [-]
	 SCS Opposite-Spin Scale   =       1.2000000000000000 [-]
	 SCS Same-Spin Energy      =      -0.1045085264306013 [Eh]
	 SCS Opposite-Spin Energy  =      -1.2155812712943483 [Eh]
	 SCS Correlation Energy    =      -1.3200897977249497 [Eh]
	 SCS Total Energy          =    -304.7509248122294139 [Eh]
	-----------------------------------------------------------

*** Psi4 exiting successfully. Buy a developer a beer!
