                               Psi4 1.4a2.dev224

  ==> Input File <==

--------------------------------------------------------------------------
#Generated by lconvert.py for cbs job

memory 40 GB

molecule  {
0 1
  C       -0.8622250    -0.9335500    -0.2460230
  C       -3.1939110     0.4610760    -0.0197610
  S       -2.3327360    -0.5677070    -1.2294530
  H       -1.1362690    -1.4624590     0.6640190
  H       -0.2165310    -1.5679050    -0.8477970
  H       -0.3311290    -0.0157860    -0.0036480
  H       -3.4005570    -0.1080300     0.8838090
  H       -2.6023640     1.3427110     0.2166530
  H       -4.1333160     0.7746760    -0.4676800
--
0 1
  O       -3.3911730    -2.6600780     0.7562910
  H       -3.2166670    -2.2305740    -0.0917390
  H       -3.8848540    -3.4468060     0.5184380
units angstrom
no_reorient
symmetry c1
}

set {
scf_type DF
mp2_type DF
e_convergence 7
reference rhf
}

energy('mp2/aug-cc-pv[tq]z', bsse_type='cp')
--------------------------------------------------------------------------

    Molecular point group: c1
  Charge       = 0
  Multiplicity = 1
  Basis Set: AUG-CC-PVTZ
    Blend: AUG-CC-PVTZ
  Basis Set: (AUG-CC-PVTZ AUX)
    Blend: AUG-CC-PVTZ-JKFIT
  @DF-RHF Final Energy:   -76.06012433380077
    Total Energy =                        -76.0601243338007720
  Basis Set: (AUG-CC-PVTZ AUX)
    Blend: AUG-CC-PVTZ-RI
	 Reference Energy          =     -76.0601243338007720 [Eh]
	 Singles Energy            =      -0.0000000000000000 [Eh]
	 Same-Spin Energy          =      -0.0684408581352839 [Eh]
	 Opposite-Spin Energy      =      -0.2154694236450516 [Eh]
	 Correlation Energy        =      -0.2839102817803355 [Eh]
	 Total Energy              =     -76.3440346155811085 [Eh]
	 SCS Total Energy          =     -76.3415012615532618 [Eh]
    Molecular point group: c1
  Basis Set: AUG-CC-PVQZ
    Blend: AUG-CC-PVQZ
  Basis Set: (AUG-CC-PVQZ AUX)
    Blend: AUG-CC-PVQZ-JKFIT
  @DF-RHF Final Energy:   -76.06549112705582
    Total Energy =                        -76.0654911270558074
  Basis Set: (AUG-CC-PVQZ AUX)
  @DF-RHF Final Energy:   -76.06021745080120
    Total Energy =                        -76.0602174508012041
  @DF-RHF Final Energy:   -76.06553343604806
    Total Energy =                        -76.0655334360480566
  @DF-RHF Final Energy:  -476.80347000664028
    Total Energy =                       -476.8034700066402820
  @DF-RHF Final Energy:  -476.81244435911077
    Total Energy =                       -476.8124443591107706
  @DF-RHF Final Energy:  -476.80340069022668
    Total Energy =                       -476.8034006902266810
  @DF-RHF Final Energy:  -476.81242207654327
    Total Energy =                       -476.8124220765432710
  Multiplicity = 1
  @DF-RHF Final Energy:  -552.86353636679041
    Total Energy =                       -552.8635363667904130
	 Singles Energy            =      -0.0000000000000000 [Eh]
	 Same-Spin Energy          =      -0.2101126094848971 [Eh]
	 Opposite-Spin Energy      =      -0.7104313499609969 [Eh]
	 Correlation Energy        =      -0.9205439594458940 [Eh]
	 Total Energy              =    -553.7840803262363352 [Eh]
	 SCS Total Energy          =    -553.7860915232386105 [Eh]
    Molecular point group: c1

    Geometry (in Angstrom), charge = 0, multiplicity = 1:

       Center              X                  Y                   Z               Mass
    ------------   -----------------  -----------------  -----------------  -----------------
         C            1.593957963406    -0.019701855460     0.122864050989    12.000000000000
         C           -0.737728036594     1.374924144540     0.349126050989    12.000000000000
         S            0.123446963406     0.346141144540    -0.860565949011    31.972071174400
         H            1.319913963406    -0.548610855460     1.032906050989     1.007825032230
         H            2.239651963406    -0.654056855460    -0.478909949011     1.007825032230
         H            2.125053963406     0.898062144540     0.365239050989     1.007825032230
         H           -0.944374036594     0.805818144540     1.252696050989     1.007825032230
         H           -0.146181036594     2.256559144540     0.585540050989     1.007825032230
         H           -1.677133036594     1.688524144540    -0.098792949011     1.007825032230
         O           -0.934990036594    -1.746229855460     1.125178050989    15.994914619570
         H           -0.760484036594    -1.316725855460     0.277148050989     1.007825032230
         H           -1.428671036594    -2.532957855460     0.887325050989     1.007825032230

  Charge       = 0
  Multiplicity = 1
  Basis Set: AUG-CC-PVQZ
    Blend: AUG-CC-PVQZ
  Basis Set: (AUG-CC-PVQZ AUX)
    Blend: AUG-CC-PVQZ-JKFIT

    Orbital Energies [Eh]
    ---------------------

    Doubly Occupied:

       1A    -91.950636     2A    -20.543716     3A    -11.248954
       4A    -11.248944     5A     -8.953016     6A     -6.634615
       7A     -6.633717     8A     -6.632951     9A     -1.334938
      10A     -1.069483    11A     -0.953575    12A     -0.813597
      13A     -0.706470    14A     -0.607419    15A     -0.601852
      16A     -0.579244    17A     -0.572217    18A     -0.569066
      19A     -0.498268    20A     -0.490499    21A     -0.443317
      22A     -0.349026

  @DF-RHF Final Energy:  -552.87782396315060

   => Energetics <=

    Nuclear Repulsion Energy =            177.7275681044303894
    One-Electron Energy =               -1114.3397250989619351
    Two-Electron Energy =                 383.7343330313809702
    Total Energy =                       -552.8778239631506040

  Dipole Moment: [D]
     X:     0.1487      Y:     0.2745      Z:    -0.1573     Total:     0.3496

  Basis Set: (AUG-CC-PVQZ AUX)
    Blend: AUG-CC-PVQZ-RI
	 Reference Energy          =    -552.8778239631506040 [Eh]
	 Singles Energy            =      -0.0000000000000000 [Eh]
	 Same-Spin Energy          =      -0.2261221482129601 [Eh]
	 Opposite-Spin Energy      =      -0.7999178146875798 [Eh]
	 Correlation Energy        =      -1.0260399629005399 [Eh]
	 Total Energy              =    -553.9038639260511445 [Eh]

	 ================> DF-SCS-MP2 Energies <==================
	-----------------------------------------------------------
	 SCS Same-Spin Scale       =       0.3333333333333333 [-]
	 SCS Opposite-Spin Scale   =       1.2000000000000000 [-]
	 SCS Same-Spin Energy      =      -0.0753740494043200 [Eh]
	 SCS Opposite-Spin Energy  =      -0.9599013776250958 [Eh]
	 SCS Correlation Energy    =      -1.0352754270294158 [Eh]
	 SCS Total Energy          =    -553.9130993901800366 [Eh]
	-----------------------------------------------------------

*** Psi4 exiting successfully. Buy a developer a beer!
