                               Psi4 1.4a2.dev224

  ==> Input File <==

--------------------------------------------------------------------------
#Generated by lconvert.py for cbs job

memory 40 GB

molecule  {
0 1
  C       -0.8622250    -0.9335500    -0.2460230
  C       -3.1939110     0.4610760    -0.0197610
  S       -2.3327360    -0.5677070    -1.2294530
  H       -1.1362690    -1.4624590     0.6640190
  H       -0.2165310    -1.5679050    -0.8477970
  H       -0.3311290    -0.0157860    -0.0036480
  H       -3.4005570    -0.1080300     0.8838090
  H       -2.6023640     1.3427110     0.2166530
  H       -4.1333160     0.7746760    -0.4676800
--
0 1
  O       -3.5710120    -2.9773410     0.8580680
  H       -3.3965060    -2.5478370     0.0100380
  H       -4.0646930    -3.7640690     0.6202150
units angstrom
no_reorient
symmetry c1
}

set {
scf_type DF
mp2_type DF
e_convergence 7
reference rhf
}

energy('mp2/aug-cc-pv[tq]z', bsse_type='cp')
--------------------------------------------------------------------------

    Molecular point group: c1
  Charge       = 0
  Multiplicity = 1
  Basis Set: AUG-CC-PVTZ
    Blend: AUG-CC-PVTZ
  Basis Set: (AUG-CC-PVTZ AUX)
    Blend: AUG-CC-PVTZ-JKFIT
  @DF-RHF Final Energy:   -76.06012433379692
    Total Energy =                        -76.0601243337969208
  Basis Set: (AUG-CC-PVTZ AUX)
    Blend: AUG-CC-PVTZ-RI
	 Reference Energy          =     -76.0601243337969208 [Eh]
	 Singles Energy            =      -0.0000000000000000 [Eh]
	 Same-Spin Energy          =      -0.0684408581352620 [Eh]
	 Opposite-Spin Energy      =      -0.2154694236450158 [Eh]
	 Correlation Energy        =      -0.2839102817802778 [Eh]
	 Total Energy              =     -76.3440346155772005 [Eh]
	 SCS Total Energy          =     -76.3415012615493538 [Eh]
    Molecular point group: c1
  Basis Set: AUG-CC-PVQZ
    Blend: AUG-CC-PVQZ
  Basis Set: (AUG-CC-PVQZ AUX)
    Blend: AUG-CC-PVQZ-JKFIT
  @DF-RHF Final Energy:   -76.06549112705000
    Total Energy =                        -76.0654911270499952
  Basis Set: (AUG-CC-PVQZ AUX)
  @DF-RHF Final Energy:   -76.06018403310925
    Total Energy =                        -76.0601840331092518
  @DF-RHF Final Energy:   -76.06551932696196
    Total Energy =                        -76.0655193269619474
  @DF-RHF Final Energy:  -476.80345606100565
    Total Energy =                       -476.8034560610056474
  @DF-RHF Final Energy:  -476.81243846719428
    Total Energy =                       -476.8124384671942835
  @DF-RHF Final Energy:  -476.80340069033679
    Total Energy =                       -476.8034006903367867
  @DF-RHF Final Energy:  -476.81242207664860
    Total Energy =                       -476.8124220766486019
  Multiplicity = 1
  @DF-RHF Final Energy:  -552.86770324700024
    Total Energy =                       -552.8677032470002359
	 Singles Energy            =      -0.0000000000000000 [Eh]
	 Same-Spin Energy          =      -0.2080278928562316 [Eh]
	 Opposite-Spin Energy      =      -0.7079857750021037 [Eh]
	 Correlation Energy        =      -0.9160136678583353 [Eh]
	 Total Energy              =    -553.7837169148585872 [Eh]
	 SCS Total Energy          =    -553.7866288079547985 [Eh]
    Molecular point group: c1

    Geometry (in Angstrom), charge = 0, multiplicity = 1:

       Center              X                  Y                   Z               Mass
    ------------   -----------------  -----------------  -----------------  -----------------
         C            1.634430519894     0.051697811403     0.099959256247    12.000000000000
         C           -0.697255480106     1.446323811403     0.326221256247    12.000000000000
         S            0.163919519894     0.417540811403    -0.883470743753    31.972071174400
         H            1.360386519894    -0.477211188597     1.010001256247     1.007825032230
         H            2.280124519894    -0.582657188597    -0.501814743753     1.007825032230
         H            2.165526519894     0.969461811403     0.342334256247     1.007825032230
         H           -0.903901480106     0.877217811403     1.229791256247     1.007825032230
         H           -0.105708480106     2.327958811403     0.562635256247     1.007825032230
         H           -1.636660480106     1.759923811403    -0.121697743753     1.007825032230
         O           -1.074356480106    -1.992093188597     1.204050256247    15.994914619570
         H           -0.899850480106    -1.562589188597     0.356020256247     1.007825032230
         H           -1.568037480106    -2.778821188597     0.966197256247     1.007825032230

  Charge       = 0
  Multiplicity = 1
  Basis Set: AUG-CC-PVQZ
    Blend: AUG-CC-PVQZ
  Basis Set: (AUG-CC-PVQZ AUX)
    Blend: AUG-CC-PVQZ-JKFIT

    Orbital Energies [Eh]
    ---------------------

    Doubly Occupied:

       1A    -91.949036     2A    -20.552539     3A    -11.249411
       4A    -11.249400     5A     -8.950943     6A     -6.632585
       7A     -6.631676     8A     -6.630829     9A     -1.339686
      10A     -1.067216    11A     -0.953264    12A     -0.811188
      13A     -0.705634    14A     -0.607301    15A     -0.606031
      16A     -0.578924    17A     -0.576150    18A     -0.567649
      19A     -0.499411    20A     -0.495529    21A     -0.441379
      22A     -0.345655

  @DF-RHF Final Energy:  -552.88201565916665

   => Energetics <=

    Nuclear Repulsion Energy =            171.9631252032290263
    One-Electron Energy =               -1102.8073900738527300
    Two-Electron Energy =                 377.9622492114570491
    Total Energy =                       -552.8820156591666546

  Dipole Moment: [D]
     X:     0.1010      Y:     0.1905      Z:    -0.1306     Total:     0.2521

  Basis Set: (AUG-CC-PVQZ AUX)
    Blend: AUG-CC-PVQZ-RI
	 Reference Energy          =    -552.8820156591666546 [Eh]
	 Singles Energy            =      -0.0000000000000000 [Eh]
	 Same-Spin Energy          =      -0.2241107974795568 [Eh]
	 Opposite-Spin Energy      =      -0.7977597825621464 [Eh]
	 Correlation Energy        =      -1.0218705800417032 [Eh]
	 Total Energy              =    -553.9038862392083047 [Eh]

	 ================> DF-SCS-MP2 Energies <==================
	-----------------------------------------------------------
	 SCS Same-Spin Scale       =       0.3333333333333333 [-]
	 SCS Opposite-Spin Scale   =       1.2000000000000000 [-]
	 SCS Same-Spin Energy      =      -0.0747035991598523 [Eh]
	 SCS Opposite-Spin Energy  =      -0.9573117390745757 [Eh]
	 SCS Correlation Energy    =      -1.0320153382344279 [Eh]
	 SCS Total Energy          =    -553.9140309974010279 [Eh]
	-----------------------------------------------------------

*** Psi4 exiting successfully. Buy a developer a beer!
