                               Psi4 1.4a2.dev224

  ==> Input File <==

--------------------------------------------------------------------------
#Generated by lconvert.py for cbs job

memory 20 GB

molecule  {
0 1
  C      -0.862230   -0.933550   -0.246020
  C      -3.193910    0.461080   -0.019760
  S      -2.332740   -0.567710   -1.229450
  H      -1.136270   -1.462460    0.664020
  H      -0.216530   -1.567910   -0.847800
  H      -0.331130   -0.015790   -0.003650
  H      -3.400560   -0.108030    0.883810
  H      -2.602360    1.342710    0.216650
  H      -4.133320    0.774680   -0.467680
--
0 1
  O      -4.618350   -4.824980    1.450800
  H      -4.443850   -4.395480    0.602760
  H      -5.112030   -5.611710    1.212940
units angstrom
no_reorient
symmetry c1
}

set {
scf_type DF
mp2_type DF
e_convergence 7
reference rhf
}

energy('mp2/aug-cc-pv[tq]z', bsse_type='cp')
--------------------------------------------------------------------------

    Molecular point group: c1
  Charge       = 0
  Multiplicity = 1
  Basis Set: AUG-CC-PVTZ
    Blend: AUG-CC-PVTZ
  Basis Set: (AUG-CC-PVTZ AUX)
    Blend: AUG-CC-PVTZ-JKFIT
  @DF-RHF Final Energy:   -76.06012385239512
    Total Energy =                        -76.0601238523951224
  Basis Set: (AUG-CC-PVTZ AUX)
    Blend: AUG-CC-PVTZ-RI
	 Reference Energy          =     -76.0601238523951224 [Eh]
	 Singles Energy            =      -0.0000000000000000 [Eh]
	 Same-Spin Energy          =      -0.0684409554399890 [Eh]
	 Opposite-Spin Energy      =      -0.2154697151524138 [Eh]
	 Correlation Energy        =      -0.2839106705924028 [Eh]
	 Total Energy              =     -76.3440345229875277 [Eh]
	 SCS Total Energy          =     -76.3415011623913529 [Eh]
    Molecular point group: c1
  Basis Set: AUG-CC-PVQZ
    Blend: AUG-CC-PVQZ
  Basis Set: (AUG-CC-PVQZ AUX)
    Blend: AUG-CC-PVQZ-JKFIT
  @DF-RHF Final Energy:   -76.06549062486810
    Total Energy =                        -76.0654906248681044
  Basis Set: (AUG-CC-PVQZ AUX)
  @DF-RHF Final Energy:   -76.06012989137899
    Total Energy =                        -76.0601298913789776
  @DF-RHF Final Energy:   -76.06549375928169
    Total Energy =                        -76.0654937592816793
  @DF-RHF Final Energy:  -476.80340527712542
    Total Energy =                       -476.8034052771254210
  @DF-RHF Final Energy:  -476.81242469572817
    Total Energy =                       -476.8124246957281684
  @DF-RHF Final Energy:  -476.80340057883484
    Total Energy =                       -476.8034005788348395
  @DF-RHF Final Energy:  -476.81242196342555
    Total Energy =                       -476.8124219634255496
  Multiplicity = 1
  @DF-RHF Final Energy:  -552.86452000681561
    Total Energy =                       -552.8645200068156100
	 Singles Energy            =      -0.0000000000000000 [Eh]
	 Same-Spin Energy          =      -0.2055358363779856 [Eh]
	 Opposite-Spin Energy      =      -0.7047138487004863 [Eh]
	 Correlation Energy        =      -0.9102496850784718 [Eh]
	 Total Energy              =    -553.7747696918941074 [Eh]
	 SCS Total Energy          =    -553.7786885707155307 [Eh]
    Molecular point group: c1

    Geometry (in Angstrom), charge = 0, multiplicity = 1:

       Center              X                  Y                   Z               Mass
    ------------   -----------------  -----------------  -----------------  -----------------
         C            1.870130022246     0.467507568543    -0.033432895337    12.000000000000
         C           -0.461549977754     1.862137568543     0.192827104663    12.000000000000
         S            0.399620022246     0.833347568543    -1.016862895337    31.972071174400
         H            1.596090022246    -0.061402431457     0.876607104663     1.007825032230
         H            2.515830022246    -0.166852431457    -0.635212895337     1.007825032230
         H            2.401230022246     1.385267568543     0.208937104663     1.007825032230
         H           -0.668199977754     1.293027568543     1.096397104663     1.007825032230
         H            0.130000022246     2.743767568543     0.429237104663     1.007825032230
         H           -1.400959977754     2.175737568543    -0.255092895337     1.007825032230
         O           -1.885989977754    -3.423922431457     1.663387104663    15.994914619570
         H           -1.711489977754    -2.994422431457     0.815347104663     1.007825032230
         H           -2.379669977754    -4.210652431457     1.425527104663     1.007825032230

  Charge       = 0
  Multiplicity = 1
  Basis Set: AUG-CC-PVQZ
    Blend: AUG-CC-PVQZ
  Basis Set: (AUG-CC-PVQZ AUX)
    Blend: AUG-CC-PVQZ-JKFIT

    Orbital Energies [Eh]
    ---------------------

    Doubly Occupied:

       1A    -91.942748     2A    -20.563826     3A    -11.248400
       4A    -11.248390     5A     -8.944471     6A     -6.626112
       7A     -6.625192     8A     -6.624286     9A     -1.348503
      10A     -1.062908    11A     -0.951585    12A     -0.807223
      13A     -0.711540    14A     -0.607367    15A     -0.604480
      16A     -0.583383    17A     -0.577185    18A     -0.566149
      19A     -0.508279    20A     -0.493030    21A     -0.436440
      22A     -0.337152

  @DF-RHF Final Energy:  -552.87889658584720

   => Energetics <=

    Nuclear Repulsion Energy =            152.4775501197239862
    One-Electron Energy =               -1063.8755743066062678
    Two-Electron Energy =                 358.5191276010349952
    Total Energy =                       -552.8788965858473148

  Dipole Moment: [D]
     X:    -0.0471      Y:    -0.0530      Z:    -0.1558     Total:     0.1712

  Basis Set: (AUG-CC-PVQZ AUX)
    Blend: AUG-CC-PVQZ-RI
	 Reference Energy          =    -552.8788965858472011 [Eh]
	 Singles Energy            =      -0.0000000000000000 [Eh]
	 Same-Spin Energy          =      -0.2218058172575376 [Eh]
	 Opposite-Spin Energy      =      -0.7952954754344949 [Eh]
	 Correlation Energy        =      -1.0171012926920324 [Eh]
	 Total Energy              =    -553.8959978785392195 [Eh]

	 ================> DF-SCS-MP2 Energies <==================
	-----------------------------------------------------------
	 SCS Same-Spin Scale       =       0.3333333333333333 [-]
	 SCS Opposite-Spin Scale   =       1.2000000000000000 [-]
	 SCS Same-Spin Energy      =      -0.0739352724191792 [Eh]
	 SCS Opposite-Spin Energy  =      -0.9543545705213938 [Eh]
	 SCS Correlation Energy    =      -1.0282898429405729 [Eh]
	 SCS Total Energy          =    -553.9071864287877816 [Eh]
	-----------------------------------------------------------

*** Psi4 exiting successfully. Buy a developer a beer!
