                               Psi4 1.4a2.dev224

  ==> Input File <==

--------------------------------------------------------------------------
#Generated by lconvert.py for cbs job

memory 40 GB

molecule  {
0 1
  C       -0.8622250    -0.9335500    -0.2460230
  C       -3.1939110     0.4610760    -0.0197610
  S       -2.3327360    -0.5677070    -1.2294530
  H       -1.1362690    -1.4624590     0.6640190
  H       -0.2165310    -1.5679050    -0.8477970
  H       -0.3311290    -0.0157860    -0.0036480
  H       -3.4005570    -0.1080300     0.8838090
  H       -2.6023640     1.3427110     0.2166530
  H       -4.1333160     0.7746760    -0.4676800
--
0 1
  O       -3.1472910    -2.2298360     0.6182690
  H       -2.9727850    -1.8003320    -0.2297610
  H       -3.6409720    -3.0165640     0.3804160
units angstrom
no_reorient
symmetry c1
}

set {
scf_type DF
mp2_type DF
e_convergence 7
reference rhf
}

energy('mp2/aug-cc-pv[tq]z', bsse_type='cp')
--------------------------------------------------------------------------

    Molecular point group: c1
  Charge       = 0
  Multiplicity = 1
  Basis Set: AUG-CC-PVTZ
    Blend: AUG-CC-PVTZ
  Basis Set: (AUG-CC-PVTZ AUX)
    Blend: AUG-CC-PVTZ-JKFIT
  @DF-RHF Final Energy:   -76.06012433379239
    Total Energy =                        -76.0601243337924018
  Basis Set: (AUG-CC-PVTZ AUX)
    Blend: AUG-CC-PVTZ-RI
	 Reference Energy          =     -76.0601243337923876 [Eh]
	 Singles Energy            =      -0.0000000000000000 [Eh]
	 Same-Spin Energy          =      -0.0684408581352648 [Eh]
	 Opposite-Spin Energy      =      -0.2154694236449773 [Eh]
	 Correlation Energy        =      -0.2839102817802421 [Eh]
	 Total Energy              =     -76.3440346155726246 [Eh]
	 SCS Total Energy          =     -76.3415012615447779 [Eh]
    Molecular point group: c1
  Basis Set: AUG-CC-PVQZ
    Blend: AUG-CC-PVQZ
  Basis Set: (AUG-CC-PVQZ AUX)
    Blend: AUG-CC-PVQZ-JKFIT
  @DF-RHF Final Energy:   -76.06549112706385
    Total Energy =                        -76.0654911270638650
  Basis Set: (AUG-CC-PVQZ AUX)
  @DF-RHF Final Energy:   -76.06029001968673
    Total Energy =                        -76.0602900196867182
  @DF-RHF Final Energy:   -76.06555558600270
    Total Energy =                        -76.0655555860027022
  @DF-RHF Final Energy:  -476.80350882681756
    Total Energy =                       -476.8035088268175627
  @DF-RHF Final Energy:  -476.81245890493921
    Total Energy =                       -476.8124589049392057
  @DF-RHF Final Energy:  -476.80340069023839
    Total Energy =                       -476.8034006902383908
  @DF-RHF Final Energy:  -476.81242207732953
    Total Energy =                       -476.8124220773295292
  Multiplicity = 1
  @DF-RHF Final Energy:  -552.82786993306081
    Total Energy =                       -552.8278699330608106
	 Singles Energy            =      -0.0000000000000000 [Eh]
	 Same-Spin Energy          =      -0.2156841538911746 [Eh]
	 Opposite-Spin Energy      =      -0.7171737432436349 [Eh]
	 Correlation Energy        =      -0.9328578971348096 [Eh]
	 Total Energy              =    -553.7607278301956057 [Eh]
	 SCS Total Energy          =    -553.7603731429169329 [Eh]
    Molecular point group: c1

    Geometry (in Angstrom), charge = 0, multiplicity = 1:

       Center              X                  Y                   Z               Mass
    ------------   -----------------  -----------------  -----------------  -----------------
         C            1.539072604716    -0.116527314057     0.153925740565    12.000000000000
         C           -0.792613395284     1.278098685943     0.380187740565    12.000000000000
         S            0.068561604716     0.249315685943    -0.829504259435    31.972071174400
         H            1.265028604716    -0.645436314057     1.063967740565     1.007825032230
         H            2.184766604716    -0.750882314057    -0.447848259435     1.007825032230
         H            2.070168604716     0.801236685943     0.396300740565     1.007825032230
         H           -0.999259395284     0.708992685943     1.283757740565     1.007825032230
         H           -0.201066395284     2.159733685943     0.616601740565     1.007825032230
         H           -1.732018395284     1.591698685943    -0.067731259435     1.007825032230
         O           -0.745993395284    -1.412813314057     1.018217740565    15.994914619570
         H           -0.571487395284    -0.983309314057     0.170187740565     1.007825032230
         H           -1.239674395284    -2.199541314057     0.780364740565     1.007825032230

  Charge       = 0
  Multiplicity = 1
  Basis Set: AUG-CC-PVQZ
    Blend: AUG-CC-PVQZ
  Basis Set: (AUG-CC-PVQZ AUX)
    Blend: AUG-CC-PVQZ-JKFIT

    Orbital Energies [Eh]
    ---------------------

    Doubly Occupied:

       1A    -91.951532     2A    -20.519351     3A    -11.246270
       4A    -11.246259     5A     -8.956025     6A     -6.637350
       7A     -6.636535     8A     -6.636133     9A     -1.328983
      10A     -1.075856    11A     -0.954004    12A     -0.823198
      13A     -0.715266    14A     -0.609618    15A     -0.584564
      16A     -0.579475    17A     -0.575983    18A     -0.562313
      19A     -0.501209    20A     -0.468861    21A     -0.447535
      22A     -0.350118

  @DF-RHF Final Energy:  -552.84221153421242

   => Energetics <=

    Nuclear Repulsion Energy =            187.6567581652102206
    One-Electron Energy =               -1134.1850486169716987
    Two-Electron Energy =                 393.6860789175489685
    Total Energy =                       -552.8422115342125380

  Dipole Moment: [D]
     X:     0.1965      Y:     0.3666      Z:    -0.2314     Total:     0.4760

  Basis Set: (AUG-CC-PVQZ AUX)
    Blend: AUG-CC-PVQZ-RI
	 Reference Energy          =    -552.8422115342124243 [Eh]
	 Singles Energy            =      -0.0000000000000000 [Eh]
	 Same-Spin Energy          =      -0.2315617585952441 [Eh]
	 Opposite-Spin Energy      =      -0.8059962973582360 [Eh]
	 Correlation Energy        =      -1.0375580559534801 [Eh]
	 Total Energy              =    -553.8797695901658926 [Eh]

	 ================> DF-SCS-MP2 Energies <==================
	-----------------------------------------------------------
	 SCS Same-Spin Scale       =       0.3333333333333333 [-]
	 SCS Opposite-Spin Scale   =       1.2000000000000000 [-]
	 SCS Same-Spin Energy      =      -0.0771872528650814 [Eh]
	 SCS Opposite-Spin Energy  =      -0.9671955568298831 [Eh]
	 SCS Correlation Energy    =      -1.0443828096949646 [Eh]
	 SCS Total Energy          =    -553.8865943439074044 [Eh]
	-----------------------------------------------------------

*** Psi4 exiting successfully. Buy a developer a beer!
