                               Psi4 1.4a2.dev224

  ==> Input File <==

--------------------------------------------------------------------------
#Generated by lconvert.py for cbs job

memory 40 GB

molecule  {
0 1
  C       -0.8622250    -0.9335500    -0.2460230
  C       -3.1939110     0.4610760    -0.0197610
  S       -2.3327360    -0.5677070    -1.2294530
  H       -1.1362690    -1.4624590     0.6640190
  H       -0.2165310    -1.5679050    -0.8477970
  H       -0.3311290    -0.0157860    -0.0036480
  H       -3.4005570    -0.1080300     0.8838090
  H       -2.6023640     1.3427110     0.2166530
  H       -4.1333160     0.7746760    -0.4676800
--
0 1
  O       -3.4513270    -2.7661990     0.7903340
  H       -3.2768210    -2.3366950    -0.0576960
  H       -3.9450080    -3.5529270     0.5524810
units angstrom
no_reorient
symmetry c1
}

set {
scf_type DF
mp2_type DF
e_convergence 7
reference rhf
}

energy('mp2/aug-cc-pv[tq]z', bsse_type='cp')
--------------------------------------------------------------------------

    Molecular point group: c1
  Charge       = 0
  Multiplicity = 1
  Basis Set: AUG-CC-PVTZ
    Blend: AUG-CC-PVTZ
  Basis Set: (AUG-CC-PVTZ AUX)
    Blend: AUG-CC-PVTZ-JKFIT
  @DF-RHF Final Energy:   -76.06012433379479
    Total Energy =                        -76.0601243337948034
  Basis Set: (AUG-CC-PVTZ AUX)
    Blend: AUG-CC-PVTZ-RI
	 Reference Energy          =     -76.0601243337947892 [Eh]
	 Singles Energy            =      -0.0000000000000000 [Eh]
	 Same-Spin Energy          =      -0.0684408581352797 [Eh]
	 Opposite-Spin Energy      =      -0.2154694236450369 [Eh]
	 Correlation Energy        =      -0.2839102817803166 [Eh]
	 Total Energy              =     -76.3440346155751115 [Eh]
	 SCS Total Energy          =     -76.3415012615472648 [Eh]
    Molecular point group: c1
  Basis Set: AUG-CC-PVQZ
    Blend: AUG-CC-PVQZ
  Basis Set: (AUG-CC-PVQZ AUX)
    Blend: AUG-CC-PVQZ-JKFIT
  @DF-RHF Final Energy:   -76.06549112705824
    Total Energy =                        -76.0654911270582232
  Basis Set: (AUG-CC-PVQZ AUX)
  @DF-RHF Final Energy:   -76.06020469622938
    Total Energy =                        -76.0602046962293912
  @DF-RHF Final Energy:   -76.06552816067835
    Total Energy =                        -76.0655281606783404
  @DF-RHF Final Energy:  -476.80346449521591
    Total Energy =                       -476.8034644952159056
  @DF-RHF Final Energy:  -476.81244164305389
    Total Energy =                       -476.8124416430538872
  @DF-RHF Final Energy:  -476.80340068995974
    Total Energy =                       -476.8034006899597443
  @DF-RHF Final Energy:  -476.81242207649484
    Total Energy =                       -476.8124220764948404
  Multiplicity = 1
  @DF-RHF Final Energy:  -552.86584117018413
    Total Energy =                       -552.8658411701841260
	 Singles Energy            =      -0.0000000000000000 [Eh]
	 Same-Spin Energy          =      -0.2092726182472411 [Eh]
	 Opposite-Spin Energy      =      -0.7094526247052408 [Eh]
	 Correlation Energy        =      -0.9187252429524819 [Eh]
	 Total Energy              =    -553.7845664131366448 [Eh]
	 SCS Total Energy          =    -553.7869418592462125 [Eh]
    Molecular point group: c1

    Geometry (in Angstrom), charge = 0, multiplicity = 1:

       Center              X                  Y                   Z               Mass
    ------------   -----------------  -----------------  -----------------  -----------------
         C            1.607495550709     0.004180551399     0.115202713679    12.000000000000
         C           -0.724190449291     1.398806551399     0.341464713679    12.000000000000
         S            0.136984550709     0.370023551399    -0.868227286321    31.972071174400
         H            1.333451550709    -0.524728448601     1.025244713679     1.007825032230
         H            2.253189550709    -0.630174448601    -0.486571286321     1.007825032230
         H            2.138591550709     0.921944551399     0.357577713679     1.007825032230
         H           -0.930836449291     0.829700551399     1.245034713679     1.007825032230
         H           -0.132643449291     2.280441551399     0.577878713679     1.007825032230
         H           -1.663595449291     1.712406551399    -0.106454286321     1.007825032230
         O           -0.981606449291    -1.828468448601     1.151559713679    15.994914619570
         H           -0.807100449291    -1.398964448601     0.303529713679     1.007825032230
         H           -1.475287449291    -2.615196448601     0.913706713679     1.007825032230

  Charge       = 0
  Multiplicity = 1
  Basis Set: AUG-CC-PVQZ
    Blend: AUG-CC-PVQZ
  Basis Set: (AUG-CC-PVQZ AUX)
    Blend: AUG-CC-PVQZ-JKFIT

    Orbital Energies [Eh]
    ---------------------

    Doubly Occupied:

       1A    -91.950141     2A    -20.547295     3A    -11.249193
       4A    -11.249183     5A     -8.952305     6A     -6.633926
       7A     -6.633022     8A     -6.632220     9A     -1.336683
      10A     -1.068582    11A     -0.953478    12A     -0.812588
      13A     -0.705788    14A     -0.607187    15A     -0.604037
      16A     -0.579150    17A     -0.573696    18A     -0.568412
      19A     -0.498055    20A     -0.493276    21A     -0.442598
      22A     -0.347902

  @DF-RHF Final Energy:  -552.88013611320218

   => Energetics <=

    Nuclear Repulsion Energy =            175.6733912838836318
    One-Electron Energy =               -1110.2295993431509942
    Two-Electron Energy =                 381.6760719460652354
    Total Energy =                       -552.8801361132021839

  Dipole Moment: [D]
     X:     0.1326      Y:     0.2458      Z:    -0.1456     Total:     0.3149

  Basis Set: (AUG-CC-PVQZ AUX)
    Blend: AUG-CC-PVQZ-RI
	 Reference Energy          =    -552.8801361132021839 [Eh]
	 Singles Energy            =      -0.0000000000000000 [Eh]
	 Same-Spin Energy          =      -0.2253085932575752 [Eh]
	 Opposite-Spin Energy      =      -0.7990408525827597 [Eh]
	 Correlation Energy        =      -1.0243494458403348 [Eh]
	 Total Energy              =    -553.9044855590425414 [Eh]

	 ================> DF-SCS-MP2 Energies <==================
	-----------------------------------------------------------
	 SCS Same-Spin Scale       =       0.3333333333333333 [-]
	 SCS Opposite-Spin Scale   =       1.2000000000000000 [-]
	 SCS Same-Spin Energy      =      -0.0751028644191917 [Eh]
	 SCS Opposite-Spin Energy  =      -0.9588490230993116 [Eh]
	 SCS Correlation Energy    =      -1.0339518875185034 [Eh]
	 SCS Total Energy          =    -553.9140880007206533 [Eh]
	-----------------------------------------------------------

*** Psi4 exiting successfully. Buy a developer a beer!
