                               Psi4 1.4a2.dev224

  ==> Input File <==

--------------------------------------------------------------------------
#Generated by lconvert.py for cbs job

memory 20 GB

molecule  {
0 1
  C      -0.862230   -0.933550   -0.246020
  C      -3.193910    0.461080   -0.019760
  S      -2.332740   -0.567710   -1.229450
  H      -1.136270   -1.462460    0.664020
  H      -0.216530   -1.567910   -0.847800
  H      -0.331130   -0.015790   -0.003650
  H      -3.400560   -0.108030    0.883810
  H      -2.602360    1.342710    0.216650
  H      -4.133320    0.774680   -0.467680
--
0 1
  O      -4.250130   -4.175390    1.242410
  H      -4.075630   -3.745890    0.394380
  H      -4.743810   -4.962120    1.004550
units angstrom
no_reorient
symmetry c1
}

set {
scf_type DF
mp2_type DF
e_convergence 7
reference rhf
}

energy('mp2/aug-cc-pv[tq]z', bsse_type='cp')
--------------------------------------------------------------------------

    Molecular point group: c1
  Charge       = 0
  Multiplicity = 1
  Basis Set: AUG-CC-PVTZ
    Blend: AUG-CC-PVTZ
  Basis Set: (AUG-CC-PVTZ AUX)
    Blend: AUG-CC-PVTZ-JKFIT
  @DF-RHF Final Energy:   -76.06012431277375
    Total Energy =                        -76.0601243127737661
  Basis Set: (AUG-CC-PVTZ AUX)
    Blend: AUG-CC-PVTZ-RI
	 Reference Energy          =     -76.0601243127737519 [Eh]
	 Singles Energy            =      -0.0000000000000000 [Eh]
	 Same-Spin Energy          =      -0.0684408735349209 [Eh]
	 Opposite-Spin Energy      =      -0.2154694646088159 [Eh]
	 Correlation Energy        =      -0.2839103381437369 [Eh]
	 Total Energy              =     -76.3440346509174930 [Eh]
	 SCS Total Energy          =     -76.3415012948159699 [Eh]
    Molecular point group: c1
  Basis Set: AUG-CC-PVQZ
    Blend: AUG-CC-PVQZ
  Basis Set: (AUG-CC-PVQZ AUX)
    Blend: AUG-CC-PVQZ-JKFIT
  @DF-RHF Final Energy:   -76.06549110666461
    Total Energy =                        -76.0654911066646235
  Basis Set: (AUG-CC-PVQZ AUX)
  @DF-RHF Final Energy:   -76.06013689568546
    Total Energy =                        -76.0601368956854458
  @DF-RHF Final Energy:   -76.06549750048713
    Total Energy =                        -76.0654975004871119
  @DF-RHF Final Energy:  -476.80341653878054
    Total Energy =                       -476.8034165387805388
  @DF-RHF Final Energy:  -476.81242762132086
    Total Energy =                       -476.8124276213208645
  @DF-RHF Final Energy:  -476.80340057897791
    Total Energy =                       -476.8034005789779144
  @DF-RHF Final Energy:  -476.81242196309381
    Total Energy =                       -476.8124219630938114
  Multiplicity = 1
  @DF-RHF Final Energy:  -552.86534893274404
    Total Energy =                       -552.8653489327440411
	 Singles Energy            =      -0.0000000000000000 [Eh]
	 Same-Spin Energy          =      -0.2057318849274195 [Eh]
	 Opposite-Spin Energy      =      -0.7049948986050000 [Eh]
	 Correlation Energy        =      -0.9107267835324194 [Eh]
	 Total Energy              =    -553.7760757162764094 [Eh]
	 SCS Total Energy          =    -553.7799201060458927 [Eh]
    Molecular point group: c1

    Geometry (in Angstrom), charge = 0, multiplicity = 1:

       Center              X                  Y                   Z               Mass
    ------------   -----------------  -----------------  -----------------  -----------------
         C            1.787262542166     0.321318099244     0.013464904358    12.000000000000
         C           -0.544417457834     1.715948099244     0.239724904358    12.000000000000
         S            0.316752542166     0.687158099244    -0.969965095642    31.972071174400
         H            1.513222542166    -0.207591900756     0.923504904358     1.007825032230
         H            2.432962542166    -0.313041900756    -0.588315095642     1.007825032230
         H            2.318362542166     1.239078099244     0.255834904358     1.007825032230
         H           -0.751067457834     1.146838099244     1.143294904358     1.007825032230
         H            0.047132542166     2.597578099244     0.476134904358     1.007825032230
         H           -1.483827457834     2.029548099244    -0.208195095642     1.007825032230
         O           -1.600637457834    -2.920521900756     1.501894904358    15.994914619570
         H           -1.426137457834    -2.491021900756     0.653864904358     1.007825032230
         H           -2.094317457834    -3.707251900756     1.264034904358     1.007825032230

  Charge       = 0
  Multiplicity = 1
  Basis Set: AUG-CC-PVQZ
    Blend: AUG-CC-PVQZ
  Basis Set: (AUG-CC-PVQZ AUX)
    Blend: AUG-CC-PVQZ-JKFIT

    Orbital Energies [Eh]
    ---------------------

    Doubly Occupied:

       1A    -91.943975     2A    -20.562503     3A    -11.248756
       4A    -11.248746     5A     -8.945691     6A     -6.627337
       7A     -6.626419     8A     -6.625518     9A     -1.347277
      10A     -1.063661    11A     -0.952001    12A     -0.807910
      13A     -0.710302    14A     -0.607770    15A     -0.604919
      16A     -0.582352    17A     -0.577606    18A     -0.566458
      19A     -0.507129    20A     -0.493634    21A     -0.437376
      22A     -0.338483

  @DF-RHF Final Energy:  -552.87971038119099

   => Energetics <=

    Nuclear Repulsion Energy =            157.4660720483865362
    One-Electron Energy =               -1073.8398982475389403
    Two-Electron Energy =                 363.4941158179613581
    Total Energy =                       -552.8797103811909892

  Dipole Moment: [D]
     X:    -0.0192      Y:    -0.0090      Z:    -0.1397     Total:     0.1413

  Basis Set: (AUG-CC-PVQZ AUX)
    Blend: AUG-CC-PVQZ-RI
	 Reference Energy          =    -552.8797103811909892 [Eh]
	 Singles Energy            =      -0.0000000000000000 [Eh]
	 Same-Spin Energy          =      -0.2219763010715109 [Eh]
	 Opposite-Spin Energy      =      -0.7954744210266886 [Eh]
	 Correlation Energy        =      -1.0174507220981996 [Eh]
	 Total Energy              =    -553.8971611032891360 [Eh]

	 ================> DF-SCS-MP2 Energies <==================
	-----------------------------------------------------------
	 SCS Same-Spin Scale       =       0.3333333333333333 [-]
	 SCS Opposite-Spin Scale   =       1.2000000000000000 [-]
	 SCS Same-Spin Energy      =      -0.0739921003571703 [Eh]
	 SCS Opposite-Spin Energy  =      -0.9545693052320263 [Eh]
	 SCS Correlation Energy    =      -1.0285614055891967 [Eh]
	 SCS Total Energy          =    -553.9082717867802330 [Eh]
	-----------------------------------------------------------

*** Psi4 exiting successfully. Buy a developer a beer!
