                               Psi4 1.4a2.dev224

  ==> Input File <==

--------------------------------------------------------------------------
#Generated by lconvert.py for cbs job

memory 40 GB

molecule  {
0 1
  C       -0.8622250    -0.9335500    -0.2460230
  C       -3.1939110     0.4610760    -0.0197610
  S       -2.3327360    -0.5677070    -1.2294530
  H       -1.1362690    -1.4624590     0.6640190
  H       -0.2165310    -1.5679050    -0.8477970
  H       -0.3311290    -0.0157860    -0.0036480
  H       -3.4005570    -0.1080300     0.8838090
  H       -2.6023640     1.3427110     0.2166530
  H       -4.1333160     0.7746760    -0.4676800
--
0 1
  O       -3.6364320    -3.0927490     0.8950910
  H       -3.4619260    -2.6632450     0.0470610
  H       -4.1301130    -3.8794770     0.6572380
units angstrom
no_reorient
symmetry c1
}

set {
scf_type DF
mp2_type DF
e_convergence 7
reference rhf
}

energy('mp2/aug-cc-pv[tq]z', bsse_type='cp')
--------------------------------------------------------------------------

    Molecular point group: c1
  Charge       = 0
  Multiplicity = 1
  Basis Set: AUG-CC-PVTZ
    Blend: AUG-CC-PVTZ
  Basis Set: (AUG-CC-PVTZ AUX)
    Blend: AUG-CC-PVTZ-JKFIT
  @DF-RHF Final Energy:   -76.06012433380532
    Total Energy =                        -76.0601243338053195
  Basis Set: (AUG-CC-PVTZ AUX)
    Blend: AUG-CC-PVTZ-RI
	 Reference Energy          =     -76.0601243338053195 [Eh]
	 Singles Energy            =      -0.0000000000000000 [Eh]
	 Same-Spin Energy          =      -0.0684408581352684 [Eh]
	 Opposite-Spin Energy      =      -0.2154694236450173 [Eh]
	 Correlation Energy        =      -0.2839102817802857 [Eh]
	 Total Energy              =     -76.3440346155855991 [Eh]
	 SCS Total Energy          =     -76.3415012615577666 [Eh]
    Molecular point group: c1
  Basis Set: AUG-CC-PVQZ
    Blend: AUG-CC-PVQZ
  Basis Set: (AUG-CC-PVQZ AUX)
    Blend: AUG-CC-PVQZ-JKFIT
  @DF-RHF Final Energy:   -76.06549112706142
    Total Energy =                        -76.0654911270614207
  Basis Set: (AUG-CC-PVQZ AUX)
  @DF-RHF Final Energy:   -76.06017446916691
    Total Energy =                        -76.0601744691668955
  @DF-RHF Final Energy:   -76.06551583013710
    Total Energy =                        -76.0655158301371017
  @DF-RHF Final Energy:  -476.80345171906009
    Total Energy =                       -476.8034517190600923
  @DF-RHF Final Energy:  -476.81243734076406
    Total Energy =                       -476.8124373407640633
  @DF-RHF Final Energy:  -476.80340069016552
    Total Energy =                       -476.8034006901655175
  @DF-RHF Final Energy:  -476.81242207708016
    Total Energy =                       -476.8124220770801571
  Multiplicity = 1
  @DF-RHF Final Energy:  -552.86788952491577
    Total Energy =                       -552.8678895249157677
	 Singles Energy            =      -0.0000000000000000 [Eh]
	 Same-Spin Energy          =      -0.2075338851621311 [Eh]
	 Opposite-Spin Energy      =      -0.7073885810024394 [Eh]
	 Correlation Energy        =      -0.9149224661645705 [Eh]
	 Total Energy              =    -553.7828119910803935 [Eh]
	 SCS Total Energy          =    -553.7859337838393685 [Eh]
    Molecular point group: c1

    Geometry (in Angstrom), charge = 0, multiplicity = 1:

       Center              X                  Y                   Z               Mass
    ------------   -----------------  -----------------  -----------------  -----------------
         C            1.649153214335     0.077670246744     0.091627273424    12.000000000000
         C           -0.682532785665     1.472296246744     0.317889273424    12.000000000000
         S            0.178642214335     0.443513246744    -0.891802726576    31.972071174400
         H            1.375109214335    -0.451238753256     1.001669273424     1.007825032230
         H            2.294847214335    -0.556684753256    -0.510146726576     1.007825032230
         H            2.180249214335     0.995434246744     0.334002273424     1.007825032230
         H           -0.889178785665     0.903190246744     1.221459273424     1.007825032230
         H           -0.090985785665     2.353931246744     0.554303273424     1.007825032230
         H           -1.621937785665     1.785896246744    -0.130029726576     1.007825032230
         O           -1.125053785665    -2.081528753256     1.232741273424    15.994914619570
         H           -0.950547785665    -1.652024753256     0.384711273424     1.007825032230
         H           -1.618734785665    -2.868256753256     0.994888273424     1.007825032230

  Charge       = 0
  Multiplicity = 1
  Basis Set: AUG-CC-PVQZ
    Blend: AUG-CC-PVQZ
  Basis Set: (AUG-CC-PVQZ AUX)
    Blend: AUG-CC-PVQZ-JKFIT

    Orbital Energies [Eh]
    ---------------------

    Doubly Occupied:

       1A    -91.948409     2A    -20.554615     3A    -11.249433
       4A    -11.249423     5A     -8.950238     6A     -6.631885
       7A     -6.630975     8A     -6.630114     9A     -1.341040
      10A     -1.066634    11A     -0.953137    12A     -0.810629
      13A     -0.705965    14A     -0.607724    15A     -0.606092
      16A     -0.578788    17A     -0.577245    18A     -0.567407
      19A     -0.500795    20A     -0.495507    21A     -0.440802
      22A     -0.344528

  @DF-RHF Final Energy:  -552.88221129324813

   => Energetics <=

    Nuclear Repulsion Energy =            170.1236618974340900
    One-Electron Energy =               -1099.1289567938415530
    Two-Electron Energy =                 376.1230836031593867
    Total Energy =                       -552.8822112932480195

  Dipole Moment: [D]
     X:     0.0847      Y:     0.1625      Z:    -0.1261     Total:     0.2224

  Basis Set: (AUG-CC-PVQZ AUX)
    Blend: AUG-CC-PVQZ-RI
	 Reference Energy          =    -552.8822112932481332 [Eh]
	 Singles Energy            =      -0.0000000000000000 [Eh]
	 Same-Spin Energy          =      -0.2236363866462011 [Eh]
	 Opposite-Spin Energy      =      -0.7972545533544733 [Eh]
	 Correlation Energy        =      -1.0208909400006745 [Eh]
	 Total Energy              =    -553.9031022332487737 [Eh]

	 ================> DF-SCS-MP2 Energies <==================
	-----------------------------------------------------------
	 SCS Same-Spin Scale       =       0.3333333333333333 [-]
	 SCS Opposite-Spin Scale   =       1.2000000000000000 [-]
	 SCS Same-Spin Energy      =      -0.0745454622154004 [Eh]
	 SCS Opposite-Spin Energy  =      -0.9567054640253678 [Eh]
	 SCS Correlation Energy    =      -1.0312509262407681 [Eh]
	 SCS Total Energy          =    -553.9134622194889062 [Eh]
	-----------------------------------------------------------

*** Psi4 exiting successfully. Buy a developer a beer!
