                               Psi4 1.4a2.dev224

  ==> Input File <==

--------------------------------------------------------------------------
#Generated by lconvert.py for cbs job

memory 40 GB

molecule  {
0 1
  C       -0.8622250    -0.9335500    -0.2460230
  C       -3.1939110     0.4610760    -0.0197610
  S       -2.3327360    -0.5677070    -1.2294530
  H       -1.1362690    -1.4624590     0.6640190
  H       -0.2165310    -1.5679050    -0.8477970
  H       -0.3311290    -0.0157860    -0.0036480
  H       -3.4005570    -0.1080300     0.8838090
  H       -2.6023640     1.3427110     0.2166530
  H       -4.1333160     0.7746760    -0.4676800
--
0 1
  O       -3.5112630    -2.8719340     0.8242540
  H       -3.3367570    -2.4424300    -0.0237760
  H       -4.0049440    -3.6586620     0.5864010
units angstrom
no_reorient
symmetry c1
}

set {
scf_type DF
mp2_type DF
e_convergence 7
reference rhf
}

energy('mp2/aug-cc-pv[tq]z', bsse_type='cp')
--------------------------------------------------------------------------

    Molecular point group: c1
  Charge       = 0
  Multiplicity = 1
  Basis Set: AUG-CC-PVTZ
    Blend: AUG-CC-PVTZ
  Basis Set: (AUG-CC-PVTZ AUX)
    Blend: AUG-CC-PVTZ-JKFIT
  @DF-RHF Final Energy:   -76.06012433379519
    Total Energy =                        -76.0601243337951871
  Basis Set: (AUG-CC-PVTZ AUX)
    Blend: AUG-CC-PVTZ-RI
	 Reference Energy          =     -76.0601243337951871 [Eh]
	 Singles Energy            =      -0.0000000000000000 [Eh]
	 Same-Spin Energy          =      -0.0684408581352881 [Eh]
	 Opposite-Spin Energy      =      -0.2154694236450419 [Eh]
	 Correlation Energy        =      -0.2839102817803300 [Eh]
	 Total Energy              =     -76.3440346155755236 [Eh]
	 SCS Total Energy          =     -76.3415012615476627 [Eh]
    Molecular point group: c1
  Basis Set: AUG-CC-PVQZ
    Blend: AUG-CC-PVQZ
  Basis Set: (AUG-CC-PVQZ AUX)
    Blend: AUG-CC-PVQZ-JKFIT
  @DF-RHF Final Energy:   -76.06549112706681
    Total Energy =                        -76.0654911270668066
  Basis Set: (AUG-CC-PVQZ AUX)
  @DF-RHF Final Energy:   -76.06019373938264
    Total Energy =                        -76.0601937393826404
  @DF-RHF Final Energy:   -76.06552332702395
    Total Energy =                        -76.0655233270239677
  @DF-RHF Final Energy:  -476.80346014185517
    Total Energy =                       -476.8034601418551688
  @DF-RHF Final Energy:  -476.81243973662384
    Total Energy =                       -476.8124397366238441
  @DF-RHF Final Energy:  -476.80340069021844
    Total Energy =                       -476.8034006902184387
  @DF-RHF Final Energy:  -476.81242207626701
    Total Energy =                       -476.8124220762670120
  Multiplicity = 1
  @DF-RHF Final Energy:  -552.86710484268849
    Total Energy =                       -552.8671048426884909
	 Singles Energy            =      -0.0000000000000000 [Eh]
	 Same-Spin Energy          =      -0.2085864548412568 [Eh]
	 Opposite-Spin Energy      =      -0.7086483118030893 [Eh]
	 Correlation Energy        =      -0.9172347666443461 [Eh]
	 Total Energy              =    -553.7843396093328465 [Eh]
	 SCS Total Energy          =    -553.7870116351326715 [Eh]
    Molecular point group: c1

    Geometry (in Angstrom), charge = 0, multiplicity = 1:

       Center              X                  Y                   Z               Mass
    ------------   -----------------  -----------------  -----------------  -----------------
         C            1.620984077367     0.027976089409     0.107569057375    12.000000000000
         C           -0.710701922633     1.422602089409     0.333831057375    12.000000000000
         S            0.150473077367     0.393819089409    -0.875860942625    31.972071174400
         H            1.346940077367    -0.500932910591     1.017611057375     1.007825032230
         H            2.266678077367    -0.606378910591    -0.494204942625     1.007825032230
         H            2.152080077367     0.945740089409     0.349944057375     1.007825032230
         H           -0.917347922633     0.853496089409     1.237401057375     1.007825032230
         H           -0.119154922633     2.304237089409     0.570245057375     1.007825032230
         H           -1.650106922633     1.736202089409    -0.114087942625     1.007825032230
         O           -1.028053922633    -1.910407910591     1.177846057375    15.994914619570
         H           -0.853547922633    -1.480903910591     0.329816057375     1.007825032230
         H           -1.521734922633    -2.697135910591     0.939993057375     1.007825032230

  Charge       = 0
  Multiplicity = 1
  Basis Set: AUG-CC-PVQZ
    Blend: AUG-CC-PVQZ
  Basis Set: (AUG-CC-PVQZ AUX)
    Blend: AUG-CC-PVQZ-JKFIT

    Orbital Energies [Eh]
    ---------------------

    Doubly Occupied:

       1A    -91.949601     2A    -20.550191     3A    -11.249337
       4A    -11.249327     5A     -8.951613     6A     -6.633247
       7A     -6.632340     8A     -6.631512     9A     -1.338272
      10A     -1.067840    11A     -0.953375    12A     -0.811810
      13A     -0.705551    14A     -0.607098    15A     -0.605426
      16A     -0.579042    17A     -0.575002    18A     -0.567962
      19A     -0.498375    20A     -0.494976    21A     -0.441957
      22A     -0.346758

  @DF-RHF Final Energy:  -552.88140831763269

   => Energetics <=

    Nuclear Repulsion Energy =            173.7562474853088759
    One-Electron Energy =               -1106.3940708223349247
    Two-Electron Energy =                 379.7564150193933301
    Total Energy =                       -552.8814083176326903

  Dipole Moment: [D]
     X:     0.1166      Y:     0.2176      Z:    -0.1368     Total:     0.2823

  Basis Set: (AUG-CC-PVQZ AUX)
    Blend: AUG-CC-PVQZ-RI
	 Reference Energy          =    -552.8814083176326903 [Eh]
	 Singles Energy            =      -0.0000000000000000 [Eh]
	 Same-Spin Energy          =      -0.2246474517193418 [Eh]
	 Opposite-Spin Energy      =      -0.7983323870886132 [Eh]
	 Correlation Energy        =      -1.0229798388079550 [Eh]
	 Total Energy              =    -553.9043881564406320 [Eh]

	 ================> DF-SCS-MP2 Energies <==================
	-----------------------------------------------------------
	 SCS Same-Spin Scale       =       0.3333333333333333 [-]
	 SCS Opposite-Spin Scale   =       1.2000000000000000 [-]
	 SCS Same-Spin Energy      =      -0.0748824839064473 [Eh]
	 SCS Opposite-Spin Energy  =      -0.9579988645063358 [Eh]
	 SCS Correlation Energy    =      -1.0328813484127830 [Eh]
	 SCS Total Energy          =    -553.9142896660454198 [Eh]
	-----------------------------------------------------------

*** Psi4 exiting successfully. Buy a developer a beer!
