                               Psi4 1.4a2.dev224

  ==> Input File <==

--------------------------------------------------------------------------
#Generated by lconvert.py for cbs job

memory 40 GB

molecule  {
0 1
  C       -0.8622250    -0.9335500    -0.2460230
  C       -3.1939110     0.4610760    -0.0197610
  S       -2.3327360    -0.5677070    -1.2294530
  H       -1.1362690    -1.4624590     0.6640190
  H       -0.2165310    -1.5679050    -0.8477970
  H       -0.3311290    -0.0157860    -0.0036480
  H       -3.4005570    -0.1080300     0.8838090
  H       -2.6023640     1.3427110     0.2166530
  H       -4.1333160     0.7746760    -0.4676800
--
0 1
  O       -3.2700310    -2.4463650     0.6877320
  H       -3.0955250    -2.0168610    -0.1602980
  H       -3.7637120    -3.2330930     0.4498790
units angstrom
no_reorient
symmetry c1
}

set {
scf_type DF
mp2_type DF
e_convergence 7
reference rhf
}

energy('mp2/aug-cc-pv[tq]z', bsse_type='cp')
--------------------------------------------------------------------------

    Molecular point group: c1
  Charge       = 0
  Multiplicity = 1
  Basis Set: AUG-CC-PVTZ
    Blend: AUG-CC-PVTZ
  Basis Set: (AUG-CC-PVTZ AUX)
    Blend: AUG-CC-PVTZ-JKFIT
  @DF-RHF Final Energy:   -76.06012433380425
    Total Energy =                        -76.0601243338042536
  Basis Set: (AUG-CC-PVTZ AUX)
    Blend: AUG-CC-PVTZ-RI
	 Reference Energy          =     -76.0601243338042536 [Eh]
	 Singles Energy            =      -0.0000000000000000 [Eh]
	 Same-Spin Energy          =      -0.0684408581352613 [Eh]
	 Opposite-Spin Energy      =      -0.2154694236449907 [Eh]
	 Correlation Energy        =      -0.2839102817802520 [Eh]
	 Total Energy              =     -76.3440346155845049 [Eh]
	 SCS Total Energy          =     -76.3415012615566582 [Eh]
    Molecular point group: c1
  Basis Set: AUG-CC-PVQZ
    Blend: AUG-CC-PVQZ
  Basis Set: (AUG-CC-PVQZ AUX)
    Blend: AUG-CC-PVQZ-JKFIT
  @DF-RHF Final Energy:   -76.06549112705544
    Total Energy =                        -76.0654911270554521
  Basis Set: (AUG-CC-PVQZ AUX)
  @DF-RHF Final Energy:   -76.06024961762634
    Total Energy =                        -76.0602496176263401
  @DF-RHF Final Energy:   -76.06554406559013
    Total Energy =                        -76.0655440655901316
  @DF-RHF Final Energy:  -476.80348720981772
    Total Energy =                       -476.8034872098177175
  @DF-RHF Final Energy:  -476.81245132740042
    Total Energy =                       -476.8124513274004244
  @DF-RHF Final Energy:  -476.80340069034656
    Total Energy =                       -476.8034006903465638
  @DF-RHF Final Energy:  -476.81242207692753
    Total Energy =                       -476.8124220769275325
  Multiplicity = 1
  @DF-RHF Final Energy:  -552.85329465225254
    Total Energy =                       -552.8532946522525435
	 Singles Energy            =      -0.0000000000000000 [Eh]
	 Same-Spin Energy          =      -0.2123827812160604 [Eh]
	 Opposite-Spin Energy      =      -0.7131012718632843 [Eh]
	 Correlation Energy        =      -0.9254840530793447 [Eh]
	 Total Energy              =    -553.7787787053318880 [Eh]
	 SCS Total Energy          =    -553.7798104388938327 [Eh]
    Molecular point group: c1

    Geometry (in Angstrom), charge = 0, multiplicity = 1:

       Center              X                  Y                   Z               Mass
    ------------   -----------------  -----------------  -----------------  -----------------
         C            1.566695098076    -0.067797716007     0.138293173706    12.000000000000
         C           -0.764990901924     1.326828283993     0.364555173706    12.000000000000
         S            0.096184098076     0.298045283993    -0.845136826294    31.972071174400
         H            1.292651098076    -0.596706716007     1.048335173706     1.007825032230
         H            2.212389098076    -0.702152716007    -0.463480826294     1.007825032230
         H            2.097791098076     0.849966283993     0.380668173706     1.007825032230
         H           -0.971636901924     0.757722283993     1.268125173706     1.007825032230
         H           -0.173443901924     2.208463283993     0.600969173706     1.007825032230
         H           -1.704395901924     1.640428283993    -0.083363826294     1.007825032230
         O           -0.841110901924    -1.580612716007     1.072048173706    15.994914619570
         H           -0.666604901924    -1.151108716007     0.224018173706     1.007825032230
         H           -1.334791901924    -2.367340716007     0.834195173706     1.007825032230

  Charge       = 0
  Multiplicity = 1
  Basis Set: AUG-CC-PVQZ
    Blend: AUG-CC-PVQZ
  Basis Set: (AUG-CC-PVQZ AUX)
    Blend: AUG-CC-PVQZ-JKFIT

    Orbital Energies [Eh]
    ---------------------

    Doubly Occupied:

       1A    -91.951384     2A    -20.533874     3A    -11.248054
       4A    -11.248044     5A     -8.954488     6A     -6.636003
       7A     -6.635122     8A     -6.634486     9A     -1.331281
      10A     -1.071978    11A     -0.953762    12A     -0.816815
      13A     -0.709622    14A     -0.608196    15A     -0.594669
      16A     -0.579383    17A     -0.571382    18A     -0.568573
      19A     -0.499384    20A     -0.482051    21A     -0.445087
      22A     -0.350735

  @DF-RHF Final Energy:  -552.86758345755641

   => Energetics <=

    Nuclear Repulsion Energy =            182.3094565806911476
    One-Electron Energy =               -1123.5053242287592639
    Two-Electron Energy =                 388.3282841905116243
    Total Energy =                       -552.8675834575565204

  Dipole Moment: [D]
     X:     0.1784      Y:     0.3295      Z:    -0.1899     Total:     0.4201

  Basis Set: (AUG-CC-PVQZ AUX)
    Blend: AUG-CC-PVQZ-RI
	 Reference Energy          =    -552.8675834575564068 [Eh]
	 Singles Energy            =      -0.0000000000000000 [Eh]
	 Same-Spin Energy          =      -0.2283319154454357 [Eh]
	 Opposite-Spin Energy      =      -0.8023325073895162 [Eh]
	 Correlation Energy        =      -1.0306644228349520 [Eh]
	 Total Energy              =    -553.8982478803914091 [Eh]

	 ================> DF-SCS-MP2 Energies <==================
	-----------------------------------------------------------
	 SCS Same-Spin Scale       =       0.3333333333333333 [-]
	 SCS Opposite-Spin Scale   =       1.2000000000000000 [-]
	 SCS Same-Spin Energy      =      -0.0761106384818119 [Eh]
	 SCS Opposite-Spin Energy  =      -0.9627990088674194 [Eh]
	 SCS Correlation Energy    =      -1.0389096473492314 [Eh]
	 SCS Total Energy          =    -553.9064931049056213 [Eh]
	-----------------------------------------------------------

*** Psi4 exiting successfully. Buy a developer a beer!
