                               Psi4 1.4a2.dev224

  ==> Input File <==

--------------------------------------------------------------------------
#Generated by lconvert.py for cbs job

memory 20 GB

molecule  {
0 1
  C      -0.862230   -0.933550   -0.246020
  C      -3.193910    0.461080   -0.019760
  S      -2.332740   -0.567710   -1.229450
  H      -1.136270   -1.462460    0.664020
  H      -0.216530   -1.567910   -0.847800
  H      -0.331130   -0.015790   -0.003650
  H      -3.400560   -0.108030    0.883810
  H      -2.602360    1.342710    0.216650
  H      -4.133320    0.774680   -0.467680
--
0 1
  O      -3.881910   -3.525810    1.034020
  H      -3.707410   -3.096300    0.185990
  H      -4.375590   -4.312530    0.796160
units angstrom
no_reorient
symmetry c1
}

set {
scf_type DF
mp2_type DF
e_convergence 7
reference rhf
}

energy('mp2/aug-cc-pv[tq]z', bsse_type='cp')
--------------------------------------------------------------------------

    Molecular point group: c1
  Charge       = 0
  Multiplicity = 1
  Basis Set: AUG-CC-PVTZ
    Blend: AUG-CC-PVTZ
  Basis Set: (AUG-CC-PVTZ AUX)
    Blend: AUG-CC-PVTZ-JKFIT
  @DF-RHF Final Energy:   -76.06012440191580
    Total Energy =                        -76.0601244019158003
  Basis Set: (AUG-CC-PVTZ AUX)
    Blend: AUG-CC-PVTZ-RI
	 Reference Energy          =     -76.0601244019158003 [Eh]
	 Singles Energy            =      -0.0000000000000000 [Eh]
	 Same-Spin Energy          =      -0.0684408340934241 [Eh]
	 Opposite-Spin Energy      =      -0.2154693487658479 [Eh]
	 Correlation Energy        =      -0.2839101828592721 [Eh]
	 Total Energy              =     -76.3440345847750734 [Eh]
	 SCS Total Energy          =     -76.3415012317992989 [Eh]
    Molecular point group: c1
  Basis Set: AUG-CC-PVQZ
    Blend: AUG-CC-PVQZ
  Basis Set: (AUG-CC-PVQZ AUX)
    Blend: AUG-CC-PVQZ-JKFIT
  @DF-RHF Final Energy:   -76.06549120546988
    Total Energy =                        -76.0654912054698968
  Basis Set: (AUG-CC-PVQZ AUX)
  @DF-RHF Final Energy:   -76.06015122763213
    Total Energy =                        -76.0601512276321330
  @DF-RHF Final Energy:   -76.06550543031223
    Total Energy =                        -76.0655054303122284
  @DF-RHF Final Energy:  -476.80343897088170
    Total Energy =                       -476.8034389708817002
  @DF-RHF Final Energy:  -476.81243181482324
    Total Energy =                       -476.8124318148232419
  @DF-RHF Final Energy:  -476.80340057863776
    Total Energy =                       -476.8034005786377634
  @DF-RHF Final Energy:  -476.81242196383516
    Total Energy =                       -476.8124219638351633
  Multiplicity = 1
  @DF-RHF Final Energy:  -552.86695631994303
    Total Energy =                       -552.8669563199430286
	 Singles Energy            =      -0.0000000000000000 [Eh]
	 Same-Spin Energy          =      -0.2063939573580808 [Eh]
	 Opposite-Spin Energy      =      -0.7059194338794648 [Eh]
	 Correlation Energy        =      -0.9123133912375456 [Eh]
	 Total Energy              =    -553.7792697111805182 [Eh]
	 SCS Total Energy          =    -553.7828576263843843 [Eh]
    Molecular point group: c1

    Geometry (in Angstrom), charge = 0, multiplicity = 1:

       Center              X                  Y                   Z               Mass
    ------------   -----------------  -----------------  -----------------  -----------------
         C            1.704395062086     0.175130628571     0.060362829983    12.000000000000
         C           -0.627284937914     1.569760628571     0.286622829983    12.000000000000
         S            0.233885062086     0.540970628571    -0.923067170017    31.972071174400
         H            1.430355062086    -0.353779371429     0.970402829983     1.007825032230
         H            2.350095062086    -0.459229371429    -0.541417170017     1.007825032230
         H            2.235495062086     1.092890628571     0.302732829983     1.007825032230
         H           -0.833934937914     1.000650628571     1.190192829983     1.007825032230
         H           -0.035734937914     2.451390628571     0.523032829983     1.007825032230
         H           -1.566694937914     1.883360628571    -0.161297170017     1.007825032230
         O           -1.315284937914    -2.417129371429     1.340402829983    15.994914619570
         H           -1.140784937914    -1.987619371429     0.492372829983     1.007825032230
         H           -1.808964937914    -3.203849371429     1.102542829983     1.007825032230

  Charge       = 0
  Multiplicity = 1
  Basis Set: AUG-CC-PVQZ
    Blend: AUG-CC-PVQZ
  Basis Set: (AUG-CC-PVQZ AUX)
    Blend: AUG-CC-PVQZ-JKFIT

    Orbital Energies [Eh]
    ---------------------

    Doubly Occupied:

       1A    -91.946234     2A    -20.559428     3A    -11.249234
       4A    -11.249224     5A     -8.947955     6A     -6.629605
       7A     -6.628690     8A     -6.627804     9A     -1.344619
      10A     -1.065051    11A     -0.952637    12A     -0.809170
      13A     -0.707949    14A     -0.608227    15A     -0.605594
      16A     -0.580155    17A     -0.578260    18A     -0.566907
      19A     -0.504555    20A     -0.494660    21A     -0.439055
      22A     -0.341230

  @DF-RHF Final Energy:  -552.88129619108565

   => Energetics <=

    Nuclear Repulsion Energy =            164.1965363348408573
    One-Electron Energy =               -1087.2831596469359283
    Two-Electron Energy =                 370.2053271210094749
    Total Energy =                       -552.8812961910855392

  Dipole Moment: [D]
     X:     0.0322      Y:     0.0746      Z:    -0.1245     Total:     0.1487

  Basis Set: (AUG-CC-PVQZ AUX)
    Blend: AUG-CC-PVQZ-RI
	 Reference Energy          =    -552.8812961910856529 [Eh]
	 Singles Energy            =      -0.0000000000000000 [Eh]
	 Same-Spin Energy          =      -0.2225575218979409 [Eh]
	 Opposite-Spin Energy      =      -0.7960968018119527 [Eh]
	 Correlation Energy        =      -1.0186543237098937 [Eh]
	 Total Energy              =    -553.8999505147955915 [Eh]

	 ================> DF-SCS-MP2 Energies <==================
	-----------------------------------------------------------
	 SCS Same-Spin Scale       =       0.3333333333333333 [-]
	 SCS Opposite-Spin Scale   =       1.2000000000000000 [-]
	 SCS Same-Spin Energy      =      -0.0741858406326470 [Eh]
	 SCS Opposite-Spin Energy  =      -0.9553161621743432 [Eh]
	 SCS Correlation Energy    =      -1.0295020028069901 [Eh]
	 SCS Total Energy          =    -553.9107981938926741 [Eh]
	-----------------------------------------------------------

*** Psi4 exiting successfully. Buy a developer a beer!
