                               Psi4 1.4a2.dev224

  ==> Input File <==

--------------------------------------------------------------------------
#Generated by lconvert.py for cbs job

memory 40 GB

molecule  {
0 1
  C       -3.7505320     0.0431690     0.0267870
  C       -2.7167600    -0.8644090     0.1048030
  N       -1.5733750    -0.1180820     0.0063700
  C       -1.9502670     1.1813180    -0.1242960
  N       -3.2673260     1.3189330    -0.1161750
  H       -0.6236500    -0.4674060     0.0269100
  H       -4.8068950    -0.1576260     0.0661440
  H       -2.6962000    -1.9328990     0.2172250
  H       -1.2358930     1.9803190    -0.2209120
--
0 1
  O        1.4131350    -1.1934960     0.0685840
  H        1.9970640    -1.2535790     0.8274880
  H        1.9712600    -1.4127910    -0.6803650
units angstrom
no_reorient
symmetry c1
}

set {
scf_type DF
mp2_type DF
e_convergence 7
reference rhf
}

energy('mp2/aug-cc-pv[tq]z', bsse_type='cp')
--------------------------------------------------------------------------

    Molecular point group: c1
  Charge       = 0
  Multiplicity = 1
  Basis Set: AUG-CC-PVTZ
    Blend: AUG-CC-PVTZ
  Basis Set: (AUG-CC-PVTZ AUX)
    Blend: AUG-CC-PVTZ-JKFIT
  @DF-RHF Final Energy:   -76.06044599734931
    Total Energy =                        -76.0604459973493050
  Basis Set: (AUG-CC-PVTZ AUX)
    Blend: AUG-CC-PVTZ-RI
	 Reference Energy          =     -76.0604459973493050 [Eh]
	 Singles Energy            =      -0.0000000000000000 [Eh]
	 Same-Spin Energy          =      -0.0683746757929682 [Eh]
	 Opposite-Spin Energy      =      -0.2152695146950775 [Eh]
	 Correlation Energy        =      -0.2836441904880457 [Eh]
	 Total Energy              =     -76.3440901878373523 [Eh]
	 SCS Total Energy          =     -76.3415609735810534 [Eh]
    Molecular point group: c1
  Basis Set: AUG-CC-PVQZ
    Blend: AUG-CC-PVQZ
  Basis Set: (AUG-CC-PVQZ AUX)
    Blend: AUG-CC-PVQZ-JKFIT
  @DF-RHF Final Energy:   -76.06582811168700
    Total Energy =                        -76.0658281116869830
  Basis Set: (AUG-CC-PVQZ AUX)
  @DF-RHF Final Energy:   -76.06050623280191
    Total Energy =                        -76.0605062328019130
  @DF-RHF Final Energy:   -76.06585849644917
    Total Energy =                        -76.0658584964491524
  @DF-RHF Final Energy:  -224.89672844947827
    Total Energy =                       -224.8967284494782746
  @DF-RHF Final Energy:  -224.91001496586819
    Total Energy =                       -224.9100149658681858
  @DF-RHF Final Energy:  -224.89664145379848
    Total Energy =                       -224.8966414537984804
  @DF-RHF Final Energy:  -224.91000331602058
    Total Energy =                       -224.9100033160205783
  Multiplicity = 1
  @DF-RHF Final Energy:  -300.96482928723429
    Total Energy =                       -300.9648292872342950
	 Singles Energy            =      -0.0000000000000000 [Eh]
	 Same-Spin Energy          =      -0.3134248859390639 [Eh]
	 Opposite-Spin Energy      =      -0.9591767529488554 [Eh]
	 Correlation Energy        =      -1.2726016388879193 [Eh]
	 Total Energy              =    -302.2374309261222152 [Eh]
	 SCS Total Energy          =    -302.2203163527526044 [Eh]
    Molecular point group: c1

    Geometry (in Angstrom), charge = 0, multiplicity = 1:

       Center              X                  Y                   Z               Mass
    ------------   -----------------  -----------------  -----------------  -----------------
         C           -1.988388420226     0.057378409620     0.028120485471    12.000000000000
         C           -0.954616420226    -0.850199590380     0.106136485471    12.000000000000
         N            0.188768579774    -0.103872590380     0.007703485471    14.003074004430
         C           -0.188123420226     1.195527409620    -0.122962514529    12.000000000000
         N           -1.505182420226     1.333142409620    -0.114841514529    14.003074004430
         H            1.138493579774    -0.453196590380     0.028243485471     1.007825032230
         H           -3.044751420226    -0.143416590380     0.067477485471     1.007825032230
         H           -0.934056420226    -1.918689590380     0.218558485471     1.007825032230
         H            0.526250579774     1.994528409620    -0.219578514529     1.007825032230
         O            3.175278579774    -1.179286590380     0.069917485471    15.994914619570
         H            3.759207579774    -1.239369590380     0.828821485471     1.007825032230
         H            3.733403579774    -1.398581590380    -0.679031514529     1.007825032230

  Charge       = 0
  Multiplicity = 1
  Basis Set: AUG-CC-PVQZ
    Blend: AUG-CC-PVQZ
  Basis Set: (AUG-CC-PVQZ AUX)
    Blend: AUG-CC-PVQZ-JKFIT

    Orbital Energies [Eh]
    ---------------------

    Doubly Occupied:

       1A    -20.598868     2A    -15.603386     3A    -15.531791
       4A    -11.281560     5A    -11.246235     6A    -11.229872
       7A     -1.386872     8A     -1.326230     9A     -1.152058
      10A     -0.991359    11A     -0.813500    12A     -0.786339
      13A     -0.750557    14A     -0.745466    15A     -0.629673
      16A     -0.590424    17A     -0.587041    18A     -0.584283
      19A     -0.557311    20A     -0.545866    21A     -0.426165
      22A     -0.386880    23A     -0.305563

  @DF-RHF Final Energy:  -300.98349418859181

   => Energetics <=

    Nuclear Repulsion Energy =            217.0214443927831667
    One-Electron Energy =                -839.8952780014997188
    Two-Electron Energy =                 321.8903394201246897
    Total Energy =                       -300.9834941885918056

  Dipole Moment: [D]
     X:     5.7696      Y:    -3.0522      Z:     0.2231     Total:     6.5310

  Basis Set: (AUG-CC-PVQZ AUX)
    Blend: AUG-CC-PVQZ-RI
	 Reference Energy          =    -300.9834941885918056 [Eh]
	 Singles Energy            =      -0.0000000000000000 [Eh]
	 Same-Spin Energy          =      -0.3317944924495830 [Eh]
	 Opposite-Spin Energy      =      -1.0805378168927122 [Eh]
	 Correlation Energy        =      -1.4123323093422953 [Eh]
	 Total Energy              =    -302.3958264979340811 [Eh]

	 ================> DF-SCS-MP2 Energies <==================
	-----------------------------------------------------------
	 SCS Same-Spin Scale       =       0.3333333333333333 [-]
	 SCS Opposite-Spin Scale   =       1.2000000000000000 [-]
	 SCS Same-Spin Energy      =      -0.1105981641498610 [Eh]
	 SCS Opposite-Spin Energy  =      -1.2966453802712545 [Eh]
	 SCS Correlation Energy    =      -1.4072435444211155 [Eh]
	 SCS Total Energy          =    -302.3907377330129407 [Eh]
	-----------------------------------------------------------

*** Psi4 exiting successfully. Buy a developer a beer!
