                               Psi4 1.4a2.dev224

  ==> Input File <==

--------------------------------------------------------------------------
#Generated by lconvert.py for cbs job

memory 20 GB

molecule  {
0 1
  C      -3.750530    0.043170    0.026790
  C      -2.716760   -0.864410    0.104800
  N      -1.573370   -0.118080    0.006370
  C      -1.950270    1.181320   -0.124300
  N      -3.267330    1.318930   -0.116180
  H      -0.623650   -0.467410    0.026910
  H      -4.806890   -0.157630    0.066140
  H      -2.696200   -1.932900    0.217230
  H      -1.235890    1.980320   -0.220910
--
0 1
  O       2.894430   -1.721570    0.098900
  H       3.478360   -1.781650    0.857800
  H       3.452560   -1.940860   -0.650050
units angstrom
no_reorient
symmetry c1
}

set {
scf_type DF
mp2_type DF
e_convergence 7
reference rhf
}

energy('mp2/aug-cc-pv[tq]z', bsse_type='cp')
--------------------------------------------------------------------------

    Molecular point group: c1
  Charge       = 0
  Multiplicity = 1
  Basis Set: AUG-CC-PVTZ
    Blend: AUG-CC-PVTZ
  Basis Set: (AUG-CC-PVTZ AUX)
    Blend: AUG-CC-PVTZ-JKFIT
  @DF-RHF Final Energy:   -76.06044598484223
    Total Energy =                        -76.0604459848422323
  Basis Set: (AUG-CC-PVTZ AUX)
    Blend: AUG-CC-PVTZ-RI
	 Reference Energy          =     -76.0604459848422323 [Eh]
	 Singles Energy            =      -0.0000000000000000 [Eh]
	 Same-Spin Energy          =      -0.0683746799340825 [Eh]
	 Opposite-Spin Energy      =      -0.2152695259964951 [Eh]
	 Correlation Energy        =      -0.2836442059305776 [Eh]
	 Total Energy              =     -76.3440901907728033 [Eh]
	 SCS Total Energy          =     -76.3415609760160550 [Eh]
    Molecular point group: c1
  Basis Set: AUG-CC-PVQZ
    Blend: AUG-CC-PVQZ
  Basis Set: (AUG-CC-PVQZ AUX)
    Blend: AUG-CC-PVQZ-JKFIT
  @DF-RHF Final Energy:   -76.06582810006307
    Total Energy =                        -76.0658281000630723
  Basis Set: (AUG-CC-PVQZ AUX)
  @DF-RHF Final Energy:   -76.06045339499269
    Total Energy =                        -76.0604533949926918
  @DF-RHF Final Energy:   -76.06583284507855
    Total Energy =                        -76.0658328450785461
  @DF-RHF Final Energy:  -224.89665272487142
    Total Energy =                       -224.8966527248714158
  @DF-RHF Final Energy:  -224.91000497734447
    Total Energy =                       -224.9100049773444709
  @DF-RHF Final Energy:  -224.89664142882452
    Total Energy =                       -224.8966414288245232
  @DF-RHF Final Energy:  -224.91000328835838
    Total Energy =                       -224.9100032883583822
  Multiplicity = 1
  @DF-RHF Final Energy:  -300.95978481664497
    Total Energy =                       -300.9597848166449694
	 Singles Energy            =      -0.0000000000000000 [Eh]
	 Same-Spin Energy          =      -0.3122455689278771 [Eh]
	 Opposite-Spin Energy      =      -0.9571950023346227 [Eh]
	 Correlation Energy        =      -1.2694405712624999 [Eh]
	 Total Energy              =    -302.2292253879074906 [Eh]
	 SCS Total Energy          =    -302.2125006757557912 [Eh]
    Molecular point group: c1

    Geometry (in Angstrom), charge = 0, multiplicity = 1:

       Center              X                  Y                   Z               Mass
    ------------   -----------------  -----------------  -----------------  -----------------
         C           -2.298433969859     0.167909573260     0.021779489485    12.000000000000
         C           -1.264663969859    -0.739670426740     0.099789489485    12.000000000000
         N           -0.121273969859     0.006659573260     0.001359489485    14.003074004430
         C           -0.498173969859     1.306059573260    -0.129310510515    12.000000000000
         N           -1.815233969859     1.443669573260    -0.121190510515    14.003074004430
         H            0.828446030141    -0.342670426740     0.021899489485     1.007825032230
         H           -3.354793969859    -0.032890426740     0.061129489485     1.007825032230
         H           -1.244103969859    -1.808160426740     0.212219489485     1.007825032230
         H            0.216206030141     2.105059573260    -0.225920510515     1.007825032230
         O            4.346526030141    -1.596830426740     0.093889489485    15.994914619570
         H            4.930456030141    -1.656910426740     0.852789489485     1.007825032230
         H            4.904656030141    -1.816120426740    -0.655060510515     1.007825032230

  Charge       = 0
  Multiplicity = 1
  Basis Set: AUG-CC-PVQZ
    Blend: AUG-CC-PVQZ
  Basis Set: (AUG-CC-PVQZ AUX)
    Blend: AUG-CC-PVQZ-JKFIT

    Orbital Energies [Eh]
    ---------------------

    Doubly Occupied:

       1A    -20.579930     2A    -15.616394     3A    -15.539152
       4A    -11.289767     5A    -11.253863     6A    -11.236956
       7A     -1.366658     8A     -1.335511     9A     -1.161036
      10A     -0.999189    11A     -0.822620    12A     -0.794570
      13A     -0.752774    14A     -0.731215    15A     -0.603222
      16A     -0.600707    17A     -0.596728    18A     -0.593480
      19A     -0.564228    20A     -0.525479    21A     -0.433203
      22A     -0.395663    23A     -0.312726

  @DF-RHF Final Energy:  -300.97850818611346

   => Energetics <=

    Nuclear Repulsion Energy =            204.8321051638984329
    One-Electron Energy =                -815.4110870554731036
    Two-Electron Energy =                 309.6004737054612406
    Total Energy =                       -300.9785081861134586

  Dipole Moment: [D]
     X:     5.2714      Y:    -2.8683      Z:     0.2123     Total:     6.0050

  Basis Set: (AUG-CC-PVQZ AUX)
    Blend: AUG-CC-PVQZ-RI
	 Reference Energy          =    -300.9785081861134586 [Eh]
	 Singles Energy            =      -0.0000000000000000 [Eh]
	 Same-Spin Energy          =      -0.3306865150449166 [Eh]
	 Opposite-Spin Energy      =      -1.0795764778218220 [Eh]
	 Correlation Energy        =      -1.4102629928667385 [Eh]
	 Total Energy              =    -302.3887711789802211 [Eh]

	 ================> DF-SCS-MP2 Energies <==================
	-----------------------------------------------------------
	 SCS Same-Spin Scale       =       0.3333333333333333 [-]
	 SCS Opposite-Spin Scale   =       1.2000000000000000 [-]
	 SCS Same-Spin Energy      =      -0.1102288383483055 [Eh]
	 SCS Opposite-Spin Energy  =      -1.2954917733861864 [Eh]
	 SCS Correlation Energy    =      -1.4057206117344920 [Eh]
	 SCS Total Energy          =    -302.3842287978479249 [Eh]
	-----------------------------------------------------------

*** Psi4 exiting successfully. Buy a developer a beer!
