                               Psi4 1.4a2.dev224

  ==> Input File <==

--------------------------------------------------------------------------
#Generated by lconvert.py for cbs job

memory 40 GB

molecule  {
0 1
  C       -3.7505320     0.0431690     0.0267870
  C       -2.7167600    -0.8644090     0.1048030
  N       -1.5733750    -0.1180820     0.0063700
  C       -1.9502670     1.1813180    -0.1242960
  N       -3.2673260     1.3189330    -0.1161750
  H       -0.6236500    -0.4674060     0.0269100
  H       -4.8068950    -0.1576260     0.0661440
  H       -2.6962000    -1.9328990     0.2172250
  H       -1.2358930     1.9803190    -0.2209120
--
0 1
  O        1.1353920    -1.0944840     0.0629010
  H        1.7193210    -1.1545670     0.8218050
  H        1.6935170    -1.3137790    -0.6860470
units angstrom
no_reorient
symmetry c1
}

set {
scf_type DF
mp2_type DF
e_convergence 7
reference rhf
}

energy('mp2/aug-cc-pv[tq]z', bsse_type='cp')
--------------------------------------------------------------------------

    Molecular point group: c1
  Charge       = 0
  Multiplicity = 1
  Basis Set: AUG-CC-PVTZ
    Blend: AUG-CC-PVTZ
  Basis Set: (AUG-CC-PVTZ AUX)
    Blend: AUG-CC-PVTZ-JKFIT
  @DF-RHF Final Energy:   -76.06044602354770
    Total Energy =                        -76.0604460235476978
  Basis Set: (AUG-CC-PVTZ AUX)
    Blend: AUG-CC-PVTZ-RI
	 Reference Energy          =     -76.0604460235476978 [Eh]
	 Singles Energy            =      -0.0000000000000000 [Eh]
	 Same-Spin Energy          =      -0.0683746697096097 [Eh]
	 Opposite-Spin Energy      =      -0.2152694959955727 [Eh]
	 Correlation Energy        =      -0.2836441657051824 [Eh]
	 Total Energy              =     -76.3440901892528814 [Eh]
	 SCS Total Energy          =     -76.3415609753122482 [Eh]
    Molecular point group: c1
  Basis Set: AUG-CC-PVQZ
    Blend: AUG-CC-PVQZ
  Basis Set: (AUG-CC-PVQZ AUX)
    Blend: AUG-CC-PVQZ-JKFIT
  @DF-RHF Final Energy:   -76.06582813989640
    Total Energy =                        -76.0658281398963965
  Basis Set: (AUG-CC-PVQZ AUX)
  @DF-RHF Final Energy:   -76.06052525047903
    Total Energy =                        -76.0605252504790315
  @DF-RHF Final Energy:   -76.06586617084611
    Total Energy =                        -76.0658661708461068
  @DF-RHF Final Energy:  -224.89675183617157
    Total Energy =                       -224.8967518361715747
  @DF-RHF Final Energy:  -224.91001852083485
    Total Energy =                       -224.9100185208348535
  @DF-RHF Final Energy:  -224.89664145334905
    Total Energy =                       -224.8966414533490479
  @DF-RHF Final Energy:  -224.91000331553477
    Total Energy =                       -224.9100033155347660
  Multiplicity = 1
  @DF-RHF Final Energy:  -300.96396998710196
    Total Energy =                       -300.9639699871019616
	 Singles Energy            =      -0.0000000000000000 [Eh]
	 Same-Spin Energy          =      -0.3143230435241432 [Eh]
	 Opposite-Spin Energy      =      -0.9602357991795426 [Eh]
	 Correlation Energy        =      -1.2745588427036858 [Eh]
	 Total Energy              =    -302.2385288298056594 [Eh]
	 SCS Total Energy          =    -302.2210272939587981 [Eh]
    Molecular point group: c1

    Geometry (in Angstrom), charge = 0, multiplicity = 1:

       Center              X                  Y                   Z               Mass
    ------------   -----------------  -----------------  -----------------  -----------------
         C           -1.930254500534     0.036654374608     0.029309972920    12.000000000000
         C           -0.896482500534    -0.870923625392     0.107325972920    12.000000000000
         N            0.246902499466    -0.124596625392     0.008892972920    14.003074004430
         C           -0.129989500534     1.174803374608    -0.121773027080    12.000000000000
         N           -1.447048500534     1.312418374608    -0.113652027080    14.003074004430
         H            1.196627499466    -0.473920625392     0.029432972920     1.007825032230
         H           -2.986617500534    -0.164140625392     0.068666972920     1.007825032230
         H           -0.875922500534    -1.939413625392     0.219747972920     1.007825032230
         H            0.584384499466     1.973804374608    -0.218389027080     1.007825032230
         O            2.955669499466    -1.100998625392     0.065423972920    15.994914619570
         H            3.539598499466    -1.161081625392     0.824327972920     1.007825032230
         H            3.513794499466    -1.320293625392    -0.683524027080     1.007825032230

  Charge       = 0
  Multiplicity = 1
  Basis Set: AUG-CC-PVQZ
    Blend: AUG-CC-PVQZ
  Basis Set: (AUG-CC-PVQZ AUX)
    Blend: AUG-CC-PVQZ-JKFIT

    Orbital Energies [Eh]
    ---------------------

    Doubly Occupied:

       1A    -20.606470     2A    -15.595672     3A    -15.528383
       4A    -11.277646     5A    -11.242628     6A    -11.226643
       7A     -1.396627     8A     -1.321755     9A     -1.147971
      10A     -0.987779    11A     -0.811835    12A     -0.782489
      13A     -0.759199    14A     -0.743741    15A     -0.643051
      16A     -0.585954    17A     -0.579832    18A     -0.578668
      19A     -0.555819    20A     -0.553159    21A     -0.422840
      22A     -0.382599    23A     -0.302317

  @DF-RHF Final Energy:  -300.98262325838027

   => Energetics <=

    Nuclear Repulsion Energy =            220.4757969674449782
    One-Electron Energy =                -846.8506829210812157
    Two-Electron Energy =                 325.3922626952560222
    Total Energy =                       -300.9826232583802721

  Dipole Moment: [D]
     X:     6.0356      Y:    -3.1495      Z:     0.2288     Total:     6.8118

  Basis Set: (AUG-CC-PVQZ AUX)
    Blend: AUG-CC-PVQZ-RI
	 Reference Energy          =    -300.9826232583802721 [Eh]
	 Singles Energy            =      -0.0000000000000000 [Eh]
	 Same-Spin Energy          =      -0.3326938556068419 [Eh]
	 Opposite-Spin Energy      =      -1.0812866517518032 [Eh]
	 Correlation Energy        =      -1.4139805073586451 [Eh]
	 Total Energy              =    -302.3966037657389165 [Eh]

	 ================> DF-SCS-MP2 Energies <==================
	-----------------------------------------------------------
	 SCS Same-Spin Scale       =       0.3333333333333333 [-]
	 SCS Opposite-Spin Scale   =       1.2000000000000000 [-]
	 SCS Same-Spin Energy      =      -0.1108979518689473 [Eh]
	 SCS Opposite-Spin Energy  =      -1.2975439821021637 [Eh]
	 SCS Correlation Energy    =      -1.4084419339711109 [Eh]
	 SCS Total Energy          =    -302.3910651923513910 [Eh]
	-----------------------------------------------------------

*** Psi4 exiting successfully. Buy a developer a beer!
