                               Psi4 1.4a2.dev224

  ==> Input File <==

--------------------------------------------------------------------------
#Generated by lconvert.py for cbs job

memory 20 GB

molecule  {
0 1
  C      -3.750530    0.043170    0.026790
  C      -2.716760   -0.864410    0.104800
  N      -1.573370   -0.118080    0.006370
  C      -1.950270    1.181320   -0.124300
  N      -3.267330    1.318930   -0.116180
  H      -0.623650   -0.467410    0.026910
  H      -4.806890   -0.157630    0.066140
  H      -2.696200   -1.932900    0.217230
  H      -1.235890    1.980320   -0.220910
--
0 1
  O       1.783460   -1.325510    0.076160
  H       2.367390   -1.385600    0.835070
  H       2.341580   -1.544810   -0.672790
units angstrom
no_reorient
symmetry c1
}

set {
scf_type DF
mp2_type DF
e_convergence 7
reference rhf
}

energy('mp2/aug-cc-pv[tq]z', bsse_type='cp')
--------------------------------------------------------------------------

    Molecular point group: c1
  Charge       = 0
  Multiplicity = 1
  Basis Set: AUG-CC-PVTZ
    Blend: AUG-CC-PVTZ
  Basis Set: (AUG-CC-PVTZ AUX)
    Blend: AUG-CC-PVTZ-JKFIT
  @DF-RHF Final Energy:   -76.06044584061686
    Total Energy =                        -76.0604458406168646
  Basis Set: (AUG-CC-PVTZ AUX)
    Blend: AUG-CC-PVTZ-RI
	 Reference Energy          =     -76.0604458406168646 [Eh]
	 Singles Energy            =      -0.0000000000000000 [Eh]
	 Same-Spin Energy          =      -0.0683747118874710 [Eh]
	 Opposite-Spin Energy      =      -0.2152696259909757 [Eh]
	 Correlation Energy        =      -0.2836443378784467 [Eh]
	 Total Energy              =     -76.3440901784953070 [Eh]
	 SCS Total Energy          =     -76.3415609624351958 [Eh]
    Molecular point group: c1
  Basis Set: AUG-CC-PVQZ
    Blend: AUG-CC-PVQZ
  Basis Set: (AUG-CC-PVQZ AUX)
    Blend: AUG-CC-PVQZ-JKFIT
  @DF-RHF Final Energy:   -76.06582794234259
    Total Energy =                        -76.0658279423425938
  Basis Set: (AUG-CC-PVQZ AUX)
  @DF-RHF Final Energy:   -76.06049046031912
    Total Energy =                        -76.0604904603191159
  @DF-RHF Final Energy:   -76.06584906066729
    Total Energy =                        -76.0658490606672899
  @DF-RHF Final Energy:  -224.89669617614044
    Total Energy =                       -224.8966961761404377
  @DF-RHF Final Energy:  -224.91001165222326
    Total Energy =                       -224.9100116522232611
  @DF-RHF Final Energy:  -224.89664142841994
    Total Energy =                       -224.8966414284199402
  @DF-RHF Final Energy:  -224.91000328950537
    Total Energy =                       -224.9100032895053687
  Multiplicity = 1
  @DF-RHF Final Energy:  -300.96340744956228
    Total Energy =                       -300.9634074495622826
	 Singles Energy            =      -0.0000000000000000 [Eh]
	 Same-Spin Energy          =      -0.3127921160197844 [Eh]
	 Opposite-Spin Energy      =      -0.9581584192401438 [Eh]
	 Correlation Energy        =      -1.2709505352599282 [Eh]
	 Total Energy              =    -302.2343579848222248 [Eh]
	 SCS Total Energy          =    -302.2174615913237403 [Eh]
    Molecular point group: c1

    Geometry (in Angstrom), charge = 0, multiplicity = 1:

       Center              X                  Y                   Z               Mass
    ------------   -----------------  -----------------  -----------------  -----------------
         C           -2.065898592584     0.085011155756     0.026539043474    12.000000000000
         C           -1.032128592584    -0.822568844244     0.104549043474    12.000000000000
         N            0.111261407416    -0.076238844244     0.006119043474    14.003074004430
         C           -0.265638592584     1.223161155756    -0.124550956526    12.000000000000
         N           -1.582698592584     1.360771155756    -0.116430956526    14.003074004430
         H            1.060981407416    -0.425568844244     0.026659043474     1.007825032230
         H           -3.122258592584    -0.115788844244     0.065889043474     1.007825032230
         H           -1.011568592584    -1.891058844244     0.216979043474     1.007825032230
         H            0.448741407416     2.022161155756    -0.221160956526     1.007825032230
         O            3.468091407416    -1.283668844244     0.075909043474    15.994914619570
         H            4.052021407416    -1.343758844244     0.834819043474     1.007825032230
         H            4.026211407416    -1.502968844244    -0.673040956526     1.007825032230

  Charge       = 0
  Multiplicity = 1
  Basis Set: AUG-CC-PVQZ
    Blend: AUG-CC-PVQZ
  Basis Set: (AUG-CC-PVQZ AUX)
    Blend: AUG-CC-PVQZ-JKFIT

    Orbital Energies [Eh]
    ---------------------

    Doubly Occupied:

       1A    -20.591609     2A    -15.609189     3A    -15.534751
       4A    -11.284903     5A    -11.249325     6A    -11.232699
       7A     -1.378679     8A     -1.330039     9A     -1.155686
      10A     -0.994499    11A     -0.816674    12A     -0.789672
      13A     -0.748046    14A     -0.742904    15A     -0.617342
      16A     -0.595745    17A     -0.591691    18A     -0.588062
      19A     -0.560073    20A     -0.537775    21A     -0.429010
      22A     -0.390503    23A     -0.308411

  @DF-RHF Final Energy:  -300.98208177486134

   => Energetics <=

    Nuclear Repulsion Energy =            213.1552758990251561
    One-Electron Energy =                -832.1201394618734639
    Two-Electron Energy =                 317.9827817879869940
    Total Energy =                       -300.9820817748613422

  Dipole Moment: [D]
     X:     5.5516      Y:    -2.9722      Z:     0.2184     Total:     6.3010

  Basis Set: (AUG-CC-PVQZ AUX)
    Blend: AUG-CC-PVQZ-RI
	 Reference Energy          =    -300.9820817748613422 [Eh]
	 Singles Energy            =      -0.0000000000000000 [Eh]
	 Same-Spin Energy          =      -0.3311863515159853 [Eh]
	 Opposite-Spin Energy      =      -1.0800110210532861 [Eh]
	 Correlation Energy        =      -1.4111973725692715 [Eh]
	 Total Energy              =    -302.3932791474306327 [Eh]

	 ================> DF-SCS-MP2 Energies <==================
	-----------------------------------------------------------
	 SCS Same-Spin Scale       =       0.3333333333333333 [-]
	 SCS Opposite-Spin Scale   =       1.2000000000000000 [-]
	 SCS Same-Spin Energy      =      -0.1103954505053284 [Eh]
	 SCS Opposite-Spin Energy  =      -1.2960132252639431 [Eh]
	 SCS Correlation Energy    =      -1.4064086757692715 [Eh]
	 SCS Total Energy          =    -302.3884904506306270 [Eh]
	-----------------------------------------------------------

*** Psi4 exiting successfully. Buy a developer a beer!
