                               Psi4 1.4a2.dev224

  ==> Input File <==

--------------------------------------------------------------------------
#Generated by lconvert.py for cbs job

memory 40 GB

molecule  {
0 1
  C       -3.7505320     0.0431690     0.0267870
  C       -2.7167600    -0.8644090     0.1048030
  N       -1.5733750    -0.1180820     0.0063700
  C       -1.9502670     1.1813180    -0.1242960
  N       -3.2673260     1.3189330    -0.1161750
  H       -0.6236500    -0.4674060     0.0269100
  H       -4.8068950    -0.1576260     0.0661440
  H       -2.6962000    -1.9328990     0.2172250
  H       -1.2358930     1.9803190    -0.2209120
--
0 1
  O        1.2279730    -1.1274880     0.0647950
  H        1.8119020    -1.1875710     0.8236990
  H        1.7860980    -1.3467830    -0.6841530
units angstrom
no_reorient
symmetry c1
}

set {
scf_type DF
mp2_type DF
e_convergence 7
reference rhf
}

energy('mp2/aug-cc-pv[tq]z', bsse_type='cp')
--------------------------------------------------------------------------

    Molecular point group: c1
  Charge       = 0
  Multiplicity = 1
  Basis Set: AUG-CC-PVTZ
    Blend: AUG-CC-PVTZ
  Basis Set: (AUG-CC-PVTZ AUX)
    Blend: AUG-CC-PVTZ-JKFIT
  @DF-RHF Final Energy:   -76.06044602354405
    Total Energy =                        -76.0604460235440456
  Basis Set: (AUG-CC-PVTZ AUX)
    Blend: AUG-CC-PVTZ-RI
	 Reference Energy          =     -76.0604460235440456 [Eh]
	 Singles Energy            =      -0.0000000000000000 [Eh]
	 Same-Spin Energy          =      -0.0683746697096165 [Eh]
	 Opposite-Spin Energy      =      -0.2152694959956002 [Eh]
	 Correlation Energy        =      -0.2836441657052167 [Eh]
	 Total Energy              =     -76.3440901892492576 [Eh]
	 SCS Total Energy          =     -76.3415609753086386 [Eh]
    Molecular point group: c1
  Basis Set: AUG-CC-PVQZ
    Blend: AUG-CC-PVQZ
  Basis Set: (AUG-CC-PVQZ AUX)
    Blend: AUG-CC-PVQZ-JKFIT
  @DF-RHF Final Energy:   -76.06582813992024
    Total Energy =                        -76.0658281399202423
  Basis Set: (AUG-CC-PVQZ AUX)
  @DF-RHF Final Energy:   -76.06051621175411
    Total Energy =                        -76.0605162117541056
  @DF-RHF Final Energy:   -76.06586304804445
    Total Energy =                        -76.0658630480444629
  @DF-RHF Final Energy:  -224.89674353535497
    Total Energy =                       -224.8967435353549718
  @DF-RHF Final Energy:  -224.91001721065061
    Total Energy =                       -224.9100172106506079
  @DF-RHF Final Energy:  -224.89664145317150
    Total Energy =                       -224.8966414531714975
  @DF-RHF Final Energy:  -224.91000331659313
    Total Energy =                       -224.9100033165931336
  Multiplicity = 1
  @DF-RHF Final Energy:  -300.96465529479565
    Total Energy =                       -300.9646552947956479
	 Singles Energy            =      -0.0000000000000000 [Eh]
	 Same-Spin Energy          =      -0.3139655902189225 [Eh]
	 Opposite-Spin Energy      =      -0.9598599188787874 [Eh]
	 Correlation Energy        =      -1.2738255090977100 [Eh]
	 Total Energy              =    -302.2384808038933670 [Eh]
	 SCS Total Energy          =    -302.2211423941898261 [Eh]
    Molecular point group: c1

    Geometry (in Angstrom), charge = 0, multiplicity = 1:

       Center              X                  Y                   Z               Mass
    ------------   -----------------  -----------------  -----------------  -----------------
         C           -1.949632473764     0.043562386279     0.028913542969    12.000000000000
         C           -0.915860473764    -0.864015613721     0.106929542969    12.000000000000
         N            0.227524526236    -0.117688613721     0.008496542969    14.003074004430
         C           -0.149367473764     1.181711386279    -0.122169457031    12.000000000000
         N           -1.466426473764     1.319326386279    -0.114048457031    14.003074004430
         H            1.177249526236    -0.467012613721     0.029036542969     1.007825032230
         H           -3.005995473764    -0.157232613721     0.068270542969     1.007825032230
         H           -0.895300473764    -1.932505613721     0.219351542969     1.007825032230
         H            0.565006526236     1.980712386279    -0.218785457031     1.007825032230
         O            3.028872526236    -1.127094613721     0.066921542969    15.994914619570
         H            3.612801526236    -1.187177613721     0.825825542969     1.007825032230
         H            3.586997526236    -1.346389613721    -0.682026457031     1.007825032230

  Charge       = 0
  Multiplicity = 1
  Basis Set: AUG-CC-PVQZ
    Blend: AUG-CC-PVQZ
  Basis Set: (AUG-CC-PVQZ AUX)
    Blend: AUG-CC-PVQZ-JKFIT

    Orbital Energies [Eh]
    ---------------------

    Doubly Occupied:

       1A    -20.603666     2A    -15.598721     3A    -15.529674
       4A    -11.279137     5A    -11.244001     6A    -11.227864
       7A     -1.392863     8A     -1.323460     9A     -1.149504
      10A     -0.989131    11A     -0.812152    12A     -0.783948
      13A     -0.755929    14A     -0.744209    15A     -0.638221
      16A     -0.587510    17A     -0.582098    18A     -0.581529
      19A     -0.555504    20A     -0.551325    21A     -0.424107
      22A     -0.384233    23A     -0.303544

  @DF-RHF Final Energy:  -300.98331865402855

   => Energetics <=

    Nuclear Repulsion Energy =            219.2622782856553556
    One-Electron Energy =                -844.4065344624309546
    Two-Electron Energy =                 324.1609375227470196
    Total Energy =                       -300.9833186540285510

  Dipole Moment: [D]
     X:     5.9334      Y:    -3.1121      Z:     0.2266     Total:     6.7038

  Basis Set: (AUG-CC-PVQZ AUX)
    Blend: AUG-CC-PVQZ-RI
	 Reference Energy          =    -300.9833186540285510 [Eh]
	 Singles Energy            =      -0.0000000000000000 [Eh]
	 Same-Spin Energy          =      -0.3323320405310236 [Eh]
	 Opposite-Spin Energy      =      -1.0809843253804705 [Eh]
	 Correlation Energy        =      -1.4133163659114940 [Eh]
	 Total Energy              =    -302.3966350199400495 [Eh]

	 ================> DF-SCS-MP2 Energies <==================
	-----------------------------------------------------------
	 SCS Same-Spin Scale       =       0.3333333333333333 [-]
	 SCS Opposite-Spin Scale   =       1.2000000000000000 [-]
	 SCS Same-Spin Energy      =      -0.1107773468436745 [Eh]
	 SCS Opposite-Spin Energy  =      -1.2971811904565647 [Eh]
	 SCS Correlation Energy    =      -1.4079585373002392 [Eh]
	 SCS Total Energy          =    -302.3912771913288111 [Eh]
	-----------------------------------------------------------

*** Psi4 exiting successfully. Buy a developer a beer!
