                               Psi4 1.4a2.dev224

  ==> Input File <==

--------------------------------------------------------------------------
#Generated by lconvert.py for cbs job

memory 20 GB

molecule  {
0 1
  C      -3.750530    0.043170    0.026790
  C      -2.716760   -0.864410    0.104800
  N      -1.573370   -0.118080    0.006370
  C      -1.950270    1.181320   -0.124300
  N      -3.267330    1.318930   -0.116180
  H      -0.623650   -0.467410    0.026910
  H      -4.806890   -0.157630    0.066140
  H      -2.696200   -1.932900    0.217230
  H      -1.235890    1.980320   -0.220910
--
0 1
  O       2.338940   -1.523540    0.087530
  H       2.922870   -1.583620    0.846430
  H       2.897070   -1.742840   -0.661420
units angstrom
no_reorient
symmetry c1
}

set {
scf_type DF
mp2_type DF
e_convergence 7
reference rhf
}

energy('mp2/aug-cc-pv[tq]z', bsse_type='cp')
--------------------------------------------------------------------------

    Molecular point group: c1
  Charge       = 0
  Multiplicity = 1
  Basis Set: AUG-CC-PVTZ
    Blend: AUG-CC-PVTZ
  Basis Set: (AUG-CC-PVTZ AUX)
    Blend: AUG-CC-PVTZ-JKFIT
  @DF-RHF Final Energy:   -76.06044589633424
    Total Energy =                        -76.0604458963342438
  Basis Set: (AUG-CC-PVTZ AUX)
    Blend: AUG-CC-PVTZ-RI
	 Reference Energy          =     -76.0604458963342438 [Eh]
	 Singles Energy            =      -0.0000000000000000 [Eh]
	 Same-Spin Energy          =      -0.0683747012553935 [Eh]
	 Opposite-Spin Energy      =      -0.2152695906526980 [Eh]
	 Correlation Energy        =      -0.2836442919080915 [Eh]
	 Total Energy              =     -76.3440901882423333 [Eh]
	 SCS Total Energy          =     -76.3415609722026147 [Eh]
    Molecular point group: c1
  Basis Set: AUG-CC-PVQZ
    Blend: AUG-CC-PVQZ
  Basis Set: (AUG-CC-PVQZ AUX)
    Blend: AUG-CC-PVQZ-JKFIT
  @DF-RHF Final Energy:   -76.06582800580014
    Total Energy =                        -76.0658280058001424
  Basis Set: (AUG-CC-PVQZ AUX)
  @DF-RHF Final Energy:   -76.06046052248581
    Total Energy =                        -76.0604605224858119
  @DF-RHF Final Energy:   -76.06583915931172
    Total Energy =                        -76.0658391593117216
  @DF-RHF Final Energy:  -224.89666220161928
    Total Energy =                       -224.8966622016192787
  @DF-RHF Final Energy:  -224.91000741762338
    Total Energy =                       -224.9100074176233761
  @DF-RHF Final Energy:  -224.89664142922922
    Total Energy =                       -224.8966414292292200
  @DF-RHF Final Energy:  -224.91000328814840
    Total Energy =                       -224.9100032881484026
  Multiplicity = 1
  @DF-RHF Final Energy:  -300.96116076371868
    Total Energy =                       -300.9611607637186808
	 Singles Energy            =      -0.0000000000000000 [Eh]
	 Same-Spin Energy          =      -0.3123902652764483 [Eh]
	 Opposite-Spin Energy      =      -0.9574218733689984 [Eh]
	 Correlation Energy        =      -1.2698121386454466 [Eh]
	 Total Energy              =    -302.2309729023641012 [Eh]
	 SCS Total Energy          =    -302.2141971001869365 [Eh]
    Molecular point group: c1

    Geometry (in Angstrom), charge = 0, multiplicity = 1:

       Center              X                  Y                   Z               Mass
    ------------   -----------------  -----------------  -----------------  -----------------
         C           -2.182165293242     0.126460364508     0.024159325041    12.000000000000
         C           -1.148395293242    -0.781119635492     0.102169325041    12.000000000000
         N           -0.005005293242    -0.034789635492     0.003739325041    14.003074004430
         C           -0.381905293242     1.264610364508    -0.126930674959    12.000000000000
         N           -1.698965293242     1.402220364508    -0.118810674959    14.003074004430
         H            0.944714706758    -0.384119635492     0.024279325041     1.007825032230
         H           -3.238525293242    -0.074339635492     0.063509325041     1.007825032230
         H           -1.127835293242    -1.849609635492     0.214599325041     1.007825032230
         H            0.332474706758     2.063610364508    -0.223540674959     1.007825032230
         O            3.907304706758    -1.440249635492     0.084899325041    15.994914619570
         H            4.491234706758    -1.500329635492     0.843799325041     1.007825032230
         H            4.465434706758    -1.659549635492    -0.664050674959     1.007825032230

  Charge       = 0
  Multiplicity = 1
  Basis Set: AUG-CC-PVQZ
    Blend: AUG-CC-PVQZ
  Basis Set: (AUG-CC-PVQZ AUX)
    Blend: AUG-CC-PVQZ-JKFIT

    Orbital Energies [Eh]
    ---------------------

    Doubly Occupied:

       1A    -20.584455     2A    -15.613793     3A    -15.537458
       4A    -11.287909     5A    -11.252121     6A    -11.235309
       7A     -1.371234     8A     -1.333438     9A     -1.159001
      10A     -0.997384    11A     -0.820291    12A     -0.792696
      13A     -0.750902    14A     -0.735707    15A     -0.606973
      16A     -0.600295    17A     -0.594861    18A     -0.591426
      19A     -0.562623    20A     -0.530181    21A     -0.431590
      22A     -0.393712    23A     -0.311052

  @DF-RHF Final Energy:  -300.97987318119823

   => Energetics <=

    Nuclear Repulsion Energy =            208.5058784126611613
    One-Electron Energy =                -822.7826762166539538
    Two-Electron Energy =                 313.2969246227946201
    Total Energy =                       -300.9798731811982293

  Dipole Moment: [D]
     X:     5.3706      Y:    -2.9053      Z:     0.2145     Total:     6.1098

  Basis Set: (AUG-CC-PVQZ AUX)
    Blend: AUG-CC-PVQZ-RI
	 Reference Energy          =    -300.9798731811982293 [Eh]
	 Singles Energy            =      -0.0000000000000000 [Eh]
	 Same-Spin Energy          =      -0.3308170682270888 [Eh]
	 Opposite-Spin Energy      =      -1.0796773597123632 [Eh]
	 Correlation Energy        =      -1.4104944279394520 [Eh]
	 Total Energy              =    -302.3903676091376838 [Eh]

	 ================> DF-SCS-MP2 Energies <==================
	-----------------------------------------------------------
	 SCS Same-Spin Scale       =       0.3333333333333333 [-]
	 SCS Opposite-Spin Scale   =       1.2000000000000000 [-]
	 SCS Same-Spin Energy      =      -0.1102723560756963 [Eh]
	 SCS Opposite-Spin Energy  =      -1.2956128316548359 [Eh]
	 SCS Correlation Energy    =      -1.4058851877305321 [Eh]
	 SCS Total Energy          =    -302.3857583689287480 [Eh]
	-----------------------------------------------------------

*** Psi4 exiting successfully. Buy a developer a beer!
