                               Psi4 1.4a2.dev224

  ==> Input File <==

--------------------------------------------------------------------------
#Generated by lconvert.py for cbs job

memory 40 GB

molecule  {
0 1
  C       -3.7505320     0.0431690     0.0267870
  C       -2.7167600    -0.8644090     0.1048030
  N       -1.5733750    -0.1180820     0.0063700
  C       -1.9502670     1.1813180    -0.1242960
  N       -3.2673260     1.3189330    -0.1161750
  H       -0.6236500    -0.4674060     0.0269100
  H       -4.8068950    -0.1576260     0.0661440
  H       -2.6962000    -1.9328990     0.2172250
  H       -1.2358930     1.9803190    -0.2209120
--
0 1
  O        0.8576480    -0.9954720     0.0572180
  H        1.4415770    -1.0555550     0.8161220
  H        1.4157730    -1.2147670    -0.6917300
units angstrom
no_reorient
symmetry c1
}

set {
scf_type DF
mp2_type DF
e_convergence 7
reference rhf
}

energy('mp2/aug-cc-pv[tq]z', bsse_type='cp')
--------------------------------------------------------------------------

    Molecular point group: c1
  Charge       = 0
  Multiplicity = 1
  Basis Set: AUG-CC-PVTZ
    Blend: AUG-CC-PVTZ
  Basis Set: (AUG-CC-PVTZ AUX)
    Blend: AUG-CC-PVTZ-JKFIT
  @DF-RHF Final Energy:   -76.06044602353712
    Total Energy =                        -76.0604460235371249
  Basis Set: (AUG-CC-PVTZ AUX)
    Blend: AUG-CC-PVTZ-RI
	 Reference Energy          =     -76.0604460235371249 [Eh]
	 Singles Energy            =      -0.0000000000000000 [Eh]
	 Same-Spin Energy          =      -0.0683746697096195 [Eh]
	 Opposite-Spin Energy      =      -0.2152694959956586 [Eh]
	 Correlation Energy        =      -0.2836441657052781 [Eh]
	 Total Energy              =     -76.3440901892424080 [Eh]
	 SCS Total Energy          =     -76.3415609753017890 [Eh]
    Molecular point group: c1
  Basis Set: AUG-CC-PVQZ
    Blend: AUG-CC-PVQZ
  Basis Set: (AUG-CC-PVQZ AUX)
    Blend: AUG-CC-PVQZ-JKFIT
  @DF-RHF Final Energy:   -76.06582813989924
    Total Energy =                        -76.0658281398992386
  Basis Set: (AUG-CC-PVQZ AUX)
  @DF-RHF Final Energy:   -76.06056166539859
    Total Energy =                        -76.0605616653985948
  @DF-RHF Final Energy:   -76.06587928317406
    Total Energy =                        -76.0658792831740556
  @DF-RHF Final Energy:  -224.89677861546642
    Total Energy =                       -224.8967786154664168
  @DF-RHF Final Energy:  -224.91002406516029
    Total Energy =                       -224.9100240651602860
  @DF-RHF Final Energy:  -224.89664145298784
    Total Energy =                       -224.8966414529878364
  @DF-RHF Final Energy:  -224.91000331646939
    Total Energy =                       -224.9100033164693855
  Multiplicity = 1
  @DF-RHF Final Energy:  -300.95625544419624
    Total Energy =                       -300.9562554441962448
	 Singles Energy            =      -0.0000000000000000 [Eh]
	 Same-Spin Energy          =      -0.3159084552398073 [Eh]
	 Opposite-Spin Energy      =      -0.9615877364972247 [Eh]
	 Correlation Energy        =      -1.2774961917370320 [Eh]
	 Total Energy              =    -302.2337516359332881 [Eh]
	 SCS Total Energy          =    -302.2154635464061698 [Eh]
    Molecular point group: c1

    Geometry (in Angstrom), charge = 0, multiplicity = 1:

       Center              X                  Y                   Z               Mass
    ------------   -----------------  -----------------  -----------------  -----------------
         C           -1.872120371533     0.015930339595     0.030499472082    12.000000000000
         C           -0.838348371533    -0.891647660405     0.108515472082    12.000000000000
         N            0.305036628467    -0.145320660405     0.010082472082    14.003074004430
         C           -0.071855371533     1.154079339595    -0.120583527918    12.000000000000
         N           -1.388914371533     1.291694339595    -0.112462527918    14.003074004430
         H            1.254761628467    -0.494644660405     0.030622472082     1.007825032230
         H           -2.928483371533    -0.184864660405     0.069856472082     1.007825032230
         H           -0.817788371533    -1.960137660405     0.220937472082     1.007825032230
         H            0.642518628467     1.953080339595    -0.217199527918     1.007825032230
         O            2.736059628467    -1.022710660405     0.060930472082    15.994914619570
         H            3.319988628467    -1.082793660405     0.819834472082     1.007825032230
         H            3.294184628467    -1.242005660405    -0.688017527918     1.007825032230

  Charge       = 0
  Multiplicity = 1
  Basis Set: AUG-CC-PVQZ
    Blend: AUG-CC-PVQZ
  Basis Set: (AUG-CC-PVQZ AUX)
    Blend: AUG-CC-PVQZ-JKFIT

    Orbital Energies [Eh]
    ---------------------

    Doubly Occupied:

       1A    -20.617212     2A    -15.582052     3A    -15.523193
       4A    -11.271571     5A    -11.237035     6A    -11.221755
       7A     -1.413067     8A     -1.314808     9A     -1.142045
      10A     -0.982430    11A     -0.815830    12A     -0.776648
      13A     -0.772586    14A     -0.744068    15A     -0.657526
      16A     -0.580402    17A     -0.572918    18A     -0.571170
      19A     -0.561073    20A     -0.548174    21A     -0.417648
      22A     -0.375928    23A     -0.297402

  @DF-RHF Final Energy:  -300.97484399530691

   => Energetics <=

    Nuclear Repulsion Energy =            224.5653939315550645
    One-Electron Energy =                -855.0873945839535963
    Two-Electron Energy =                 329.5471566570916480
    Total Energy =                       -300.9748439953069123

  Dipole Moment: [D]
     X:     6.4593      Y:    -3.3040      Z:     0.2378     Total:     7.2591

  Basis Set: (AUG-CC-PVQZ AUX)
    Blend: AUG-CC-PVQZ-RI
	 Reference Energy          =    -300.9748439953069123 [Eh]
	 Singles Energy            =      -0.0000000000000000 [Eh]
	 Same-Spin Energy          =      -0.3343192314174941 [Eh]
	 Opposite-Spin Energy      =      -1.0826520007551750 [Eh]
	 Correlation Energy        =      -1.4169712321726691 [Eh]
	 Total Energy              =    -302.3918152274795830 [Eh]

	 ================> DF-SCS-MP2 Energies <==================
	-----------------------------------------------------------
	 SCS Same-Spin Scale       =       0.3333333333333333 [-]
	 SCS Opposite-Spin Scale   =       1.2000000000000000 [-]
	 SCS Same-Spin Energy      =      -0.1114397438058314 [Eh]
	 SCS Opposite-Spin Energy  =      -1.2991824009062098 [Eh]
	 SCS Correlation Energy    =      -1.4106221447120413 [Eh]
	 SCS Total Energy          =    -302.3854661400189343 [Eh]
	-----------------------------------------------------------

*** Psi4 exiting successfully. Buy a developer a beer!
