                               Psi4 1.4a2.dev224

  ==> Input File <==

--------------------------------------------------------------------------
#Generated by lconvert.py for cbs job

memory 40 GB

molecule  {
0 1
  C       -3.7505320     0.0431690     0.0267870
  C       -2.7167600    -0.8644090     0.1048030
  N       -1.5733750    -0.1180820     0.0063700
  C       -1.9502670     1.1813180    -0.1242960
  N       -3.2673260     1.3189330    -0.1161750
  H       -0.6236500    -0.4674060     0.0269100
  H       -4.8068950    -0.1576260     0.0661440
  H       -2.6962000    -1.9328990     0.2172250
  H       -1.2358930     1.9803190    -0.2209120
--
0 1
  O        1.0428110    -1.0614800     0.0610060
  H        1.6267400    -1.1215630     0.8199100
  H        1.6009360    -1.2807750    -0.6879410
units angstrom
no_reorient
symmetry c1
}

set {
scf_type DF
mp2_type DF
e_convergence 7
reference rhf
}

energy('mp2/aug-cc-pv[tq]z', bsse_type='cp')
--------------------------------------------------------------------------

    Molecular point group: c1
  Charge       = 0
  Multiplicity = 1
  Basis Set: AUG-CC-PVTZ
    Blend: AUG-CC-PVTZ
  Basis Set: (AUG-CC-PVTZ AUX)
    Blend: AUG-CC-PVTZ-JKFIT
  @DF-RHF Final Energy:   -76.06044604973101
    Total Energy =                        -76.0604460497310129
  Basis Set: (AUG-CC-PVTZ AUX)
    Blend: AUG-CC-PVTZ-RI
	 Reference Energy          =     -76.0604460497310129 [Eh]
	 Singles Energy            =      -0.0000000000000000 [Eh]
	 Same-Spin Energy          =      -0.0683746636262478 [Eh]
	 Opposite-Spin Energy      =      -0.2152694772961306 [Eh]
	 Correlation Energy        =      -0.2836441409223784 [Eh]
	 Total Energy              =     -76.3440901906533895 [Eh]
	 SCS Total Energy          =     -76.3415609770284505 [Eh]
    Molecular point group: c1
  Basis Set: AUG-CC-PVQZ
    Blend: AUG-CC-PVQZ
  Basis Set: (AUG-CC-PVQZ AUX)
    Blend: AUG-CC-PVQZ-JKFIT
  @DF-RHF Final Energy:   -76.06582816813254
    Total Energy =                        -76.0658281681325406
  Basis Set: (AUG-CC-PVQZ AUX)
  @DF-RHF Final Energy:   -76.06053617233725
    Total Energy =                        -76.0605361723372368
  @DF-RHF Final Energy:   -76.06587043013883
    Total Energy =                        -76.0658704301388298
  @DF-RHF Final Energy:  -224.89676075809842
    Total Energy =                       -224.8967607580984236
  @DF-RHF Final Energy:  -224.91002002877826
    Total Energy =                       -224.9100200287782627
  @DF-RHF Final Energy:  -224.89664145343397
    Total Energy =                       -224.8966414534339719
  @DF-RHF Final Energy:  -224.91000331577698
    Total Energy =                       -224.9100033157769758
  Multiplicity = 1
  @DF-RHF Final Energy:  -300.96259471160477
    Total Energy =                       -300.9625947116047655
	 Singles Energy            =      -0.0000000000000000 [Eh]
	 Same-Spin Energy          =      -0.3147554290380588 [Eh]
	 Opposite-Spin Energy      =      -0.9606376324506314 [Eh]
	 Correlation Energy        =      -1.2753930614886901 [Eh]
	 Total Energy              =    -302.2379877730934368 [Eh]
	 SCS Total Energy          =    -302.2202783468915186 [Eh]
    Molecular point group: c1

    Geometry (in Angstrom), charge = 0, multiplicity = 1:

       Center              X                  Y                   Z               Mass
    ------------   -----------------  -----------------  -----------------  -----------------
         C           -1.910876527303     0.029746362937     0.029706600467    12.000000000000
         C           -0.877104527303    -0.877831637063     0.107722600467    12.000000000000
         N            0.266280472697    -0.131504637063     0.009289600467    14.003074004430
         C           -0.110611527303     1.167895362937    -0.121376399533    12.000000000000
         N           -1.427670527303     1.305510362937    -0.113255399533    14.003074004430
         H            1.216005472697    -0.480828637063     0.029829600467     1.007825032230
         H           -2.967239527303    -0.171048637063     0.069063600467     1.007825032230
         H           -0.856544527303    -1.946321637063     0.220144600467     1.007825032230
         H            0.603762472697     1.966896362937    -0.217992399533     1.007825032230
         O            2.882466472697    -1.074902637063     0.063925600467    15.994914619570
         H            3.466395472697    -1.134985637063     0.822829600467     1.007825032230
         H            3.440591472697    -1.294197637063    -0.685021399533     1.007825032230

  Charge       = 0
  Multiplicity = 1
  Basis Set: AUG-CC-PVQZ
    Blend: AUG-CC-PVQZ
  Basis Set: (AUG-CC-PVQZ AUX)
    Blend: AUG-CC-PVQZ-JKFIT

    Orbital Energies [Eh]
    ---------------------

    Doubly Occupied:

       1A    -20.609613     2A    -15.591987     3A    -15.526897
       4A    -11.275919     5A    -11.241038     6A    -11.225240
       7A     -1.401097     8A     -1.319780     9A     -1.146233
      10A     -0.986233    11A     -0.812042    12A     -0.780811
      13A     -0.762979    14A     -0.743498    15A     -0.648086
      16A     -0.584250    17A     -0.577865    18A     -0.574602
      19A     -0.559122    20A     -0.552165    21A     -0.421370
      22A     -0.380704    23A     -0.300907

  @DF-RHF Final Energy:  -300.98123025319052

   => Energetics <=

    Nuclear Repulsion Energy =            221.7592768438497330
    One-Electron Energy =                -849.4361360386667457
    Two-Electron Energy =                 326.6956289416264667
    Total Energy =                       -300.9812302531905175

  Dipole Moment: [D]
     X:     6.1550      Y:    -3.1931      Z:     0.2314     Total:     6.9378

  Basis Set: (AUG-CC-PVQZ AUX)
    Blend: AUG-CC-PVQZ-RI
	 Reference Energy          =    -300.9812302531905175 [Eh]
	 Singles Energy            =      -0.0000000000000000 [Eh]
	 Same-Spin Energy          =      -0.3331350021183185 [Eh]
	 Opposite-Spin Energy      =      -1.0816556133790152 [Eh]
	 Correlation Energy        =      -1.4147906154973335 [Eh]
	 Total Energy              =    -302.3960208686878559 [Eh]

	 ================> DF-SCS-MP2 Energies <==================
	-----------------------------------------------------------
	 SCS Same-Spin Scale       =       0.3333333333333333 [-]
	 SCS Opposite-Spin Scale   =       1.2000000000000000 [-]
	 SCS Same-Spin Energy      =      -0.1110450007061062 [Eh]
	 SCS Opposite-Spin Energy  =      -1.2979867360548181 [Eh]
	 SCS Correlation Energy    =      -1.4090317367609242 [Eh]
	 SCS Total Energy          =    -302.3902619899514548 [Eh]
	-----------------------------------------------------------

*** Psi4 exiting successfully. Buy a developer a beer!
