                               Psi4 1.4a2.dev224

  ==> Input File <==

--------------------------------------------------------------------------
#Generated by lconvert.py for cbs job

memory 40 GB

molecule  {
0 1
  C       -3.7505320     0.0431690     0.0267870
  C       -2.7167600    -0.8644090     0.1048030
  N       -1.5733750    -0.1180820     0.0063700
  C       -1.9502670     1.1813180    -0.1242960
  N       -3.2673260     1.3189330    -0.1161750
  H       -0.6236500    -0.4674060     0.0269100
  H       -4.8068950    -0.1576260     0.0661440
  H       -2.6962000    -1.9328990     0.2172250
  H       -1.2358930     1.9803190    -0.2209120
--
0 1
  O        0.6724860    -0.9294630     0.0534290
  H        1.2564150    -0.9895460     0.8123340
  H        1.2306110    -1.1487580    -0.6955190
units angstrom
no_reorient
symmetry c1
}

set {
scf_type DF
mp2_type DF
e_convergence 7
reference rhf
}

energy('mp2/aug-cc-pv[tq]z', bsse_type='cp')
--------------------------------------------------------------------------

    Molecular point group: c1
  Charge       = 0
  Multiplicity = 1
  Basis Set: AUG-CC-PVTZ
    Blend: AUG-CC-PVTZ
  Basis Set: (AUG-CC-PVTZ AUX)
    Blend: AUG-CC-PVTZ-JKFIT
  @DF-RHF Final Energy:   -76.06044599691974
    Total Energy =                        -76.0604459969197393
  Basis Set: (AUG-CC-PVTZ AUX)
    Blend: AUG-CC-PVTZ-RI
	 Reference Energy          =     -76.0604459969197393 [Eh]
	 Singles Energy            =      -0.0000000000000000 [Eh]
	 Same-Spin Energy          =      -0.0683746758987749 [Eh]
	 Opposite-Spin Energy      =      -0.2152695150139750 [Eh]
	 Correlation Energy        =      -0.2836441909127498 [Eh]
	 Total Energy              =     -76.3440901878324922 [Eh]
	 SCS Total Energy          =     -76.3415609735694289 [Eh]
    Molecular point group: c1
  Basis Set: AUG-CC-PVQZ
    Blend: AUG-CC-PVQZ
  Basis Set: (AUG-CC-PVQZ AUX)
    Blend: AUG-CC-PVQZ-JKFIT
  @DF-RHF Final Energy:   -76.06582811122539
    Total Energy =                        -76.0658281112253860
  Basis Set: (AUG-CC-PVQZ AUX)
  @DF-RHF Final Energy:   -76.06059795006904
    Total Energy =                        -76.0605979500690239
  @DF-RHF Final Energy:   -76.06588778475376
    Total Energy =                        -76.0658877847537553
  @DF-RHF Final Energy:  -224.89679718058406
    Total Energy =                       -224.8967971805840591
  @DF-RHF Final Energy:  -224.91002956018784
    Total Energy =                       -224.9100295601878372
  @DF-RHF Final Energy:  -224.89664145322888
    Total Energy =                       -224.8966414532288809
  @DF-RHF Final Energy:  -224.91000331640373
    Total Energy =                       -224.9100033164037313
  Multiplicity = 1
  @DF-RHF Final Energy:  -300.94076548300950
    Total Energy =                       -300.9407654830094998
	 Singles Energy            =      -0.0000000000000000 [Eh]
	 Same-Spin Energy          =      -0.3175624853763042 [Eh]
	 Opposite-Spin Energy      =      -0.9629120832385971 [Eh]
	 Correlation Energy        =      -1.2804745686149013 [Eh]
	 Total Energy              =    -302.2212400516244202 [Eh]
	 SCS Total Energy          =    -302.2021141446879255 [Eh]
    Molecular point group: c1

    Geometry (in Angstrom), charge = 0, multiplicity = 1:

       Center              X                  Y                   Z               Mass
    ------------   -----------------  -----------------  -----------------  -----------------
         C           -1.833364425072     0.002114106945     0.031292529580    12.000000000000
         C           -0.799592425072    -0.905463893055     0.109308529580    12.000000000000
         N            0.343792574928    -0.159136893055     0.010875529580    14.003074004430
         C           -0.033099425072     1.140263106945    -0.119790470420    12.000000000000
         N           -1.350158425072     1.277878106945    -0.111669470420    14.003074004430
         H            1.293517574928    -0.508460893055     0.031415529580     1.007825032230
         H           -2.889727425072    -0.198680893055     0.070649529580     1.007825032230
         H           -0.779032425072    -1.973953893055     0.221730529580     1.007825032230
         H            0.681274574928     1.939264106945    -0.216406470420     1.007825032230
         O            2.589653574928    -0.970517893055     0.057934529580    15.994914619570
         H            3.173582574928    -1.030600893055     0.816839529580     1.007825032230
         H            3.147778574928    -1.189812893055    -0.691013470420     1.007825032230

  Charge       = 0
  Multiplicity = 1
  Basis Set: AUG-CC-PVQZ
    Blend: AUG-CC-PVQZ
  Basis Set: (AUG-CC-PVQZ AUX)
    Blend: AUG-CC-PVQZ-JKFIT

    Orbital Energies [Eh]
    ---------------------

    Doubly Occupied:

       1A    -20.627239     2A    -15.567311     3A    -15.518232
       4A    -11.265668     5A    -11.231598     6A    -11.217106
       7A     -1.431505     8A     -1.308068     9A     -1.136840
      10A     -0.977503    11A     -0.829848    12A     -0.786115
      13A     -0.771147    14A     -0.745593    15A     -0.662865
      16A     -0.586452    17A     -0.573319    18A     -0.566230
      19A     -0.548806    20A     -0.538709    21A     -0.412512
      22A     -0.369448    23A     -0.292712

  @DF-RHF Final Energy:  -300.95932775530457

   => Energetics <=

    Nuclear Repulsion Energy =            227.7524068671713735
    One-Electron Energy =                -861.4938172437816775
    Two-Electron Energy =                 332.7820826213056762
    Total Energy =                       -300.9593277553045709

  Dipole Moment: [D]
     X:     6.8772      Y:    -3.4559      Z:     0.2467     Total:     7.7006

  Basis Set: (AUG-CC-PVQZ AUX)
    Blend: AUG-CC-PVQZ-RI
	 Reference Energy          =    -300.9593277553045709 [Eh]
	 Singles Energy            =      -0.0000000000000000 [Eh]
	 Same-Spin Energy          =      -0.3360167782592443 [Eh]
	 Opposite-Spin Energy      =      -1.0840677681644577 [Eh]
	 Correlation Energy        =      -1.4200845464237020 [Eh]
	 Total Energy              =    -302.3794123017282800 [Eh]

	 ================> DF-SCS-MP2 Energies <==================
	-----------------------------------------------------------
	 SCS Same-Spin Scale       =       0.3333333333333333 [-]
	 SCS Opposite-Spin Scale   =       1.2000000000000000 [-]
	 SCS Same-Spin Energy      =      -0.1120055927530814 [Eh]
	 SCS Opposite-Spin Energy  =      -1.3008813217973492 [Eh]
	 SCS Correlation Energy    =      -1.4128869145504306 [Eh]
	 SCS Total Energy          =    -302.3722146698549977 [Eh]
	-----------------------------------------------------------

*** Psi4 exiting successfully. Buy a developer a beer!
