                               Psi4 1.4a2.dev224

  ==> Input File <==

--------------------------------------------------------------------------
#Generated by lconvert.py for cbs job

memory 40 GB

molecule  {
0 1
  C       -3.7505320     0.0431690     0.0267870
  C       -2.7167600    -0.8644090     0.1048030
  N       -1.5733750    -0.1180820     0.0063700
  C       -1.9502670     1.1813180    -0.1242960
  N       -3.2673260     1.3189330    -0.1161750
  H       -0.6236500    -0.4674060     0.0269100
  H       -4.8068950    -0.1576260     0.0661440
  H       -2.6962000    -1.9328990     0.2172250
  H       -1.2358930     1.9803190    -0.2209120
--
0 1
  O        1.3205540    -1.1604920     0.0666890
  H        1.9044830    -1.2205750     0.8255930
  H        1.8786790    -1.3797870    -0.6822590
units angstrom
no_reorient
symmetry c1
}

set {
scf_type DF
mp2_type DF
e_convergence 7
reference rhf
}

energy('mp2/aug-cc-pv[tq]z', bsse_type='cp')
--------------------------------------------------------------------------

    Molecular point group: c1
  Charge       = 0
  Multiplicity = 1
  Basis Set: AUG-CC-PVTZ
    Blend: AUG-CC-PVTZ
  Basis Set: (AUG-CC-PVTZ AUX)
    Blend: AUG-CC-PVTZ-JKFIT
  @DF-RHF Final Energy:   -76.06044602353253
    Total Energy =                        -76.0604460235325348
  Basis Set: (AUG-CC-PVTZ AUX)
    Blend: AUG-CC-PVTZ-RI
	 Reference Energy          =     -76.0604460235325348 [Eh]
	 Singles Energy            =      -0.0000000000000000 [Eh]
	 Same-Spin Energy          =      -0.0683746697096129 [Eh]
	 Opposite-Spin Energy      =      -0.2152694959956244 [Eh]
	 Correlation Energy        =      -0.2836441657052373 [Eh]
	 Total Energy              =     -76.3440901892377752 [Eh]
	 SCS Total Energy          =     -76.3415609752971562 [Eh]
    Molecular point group: c1
  Basis Set: AUG-CC-PVQZ
    Blend: AUG-CC-PVQZ
  Basis Set: (AUG-CC-PVQZ AUX)
    Blend: AUG-CC-PVQZ-JKFIT
  @DF-RHF Final Energy:   -76.06582813990912
    Total Energy =                        -76.0658281399091294
  Basis Set: (AUG-CC-PVQZ AUX)
  @DF-RHF Final Energy:   -76.06051006018915
    Total Energy =                        -76.0605100601891451
  @DF-RHF Final Energy:   -76.06586065823997
    Total Energy =                        -76.0658606582399841
  @DF-RHF Final Energy:  -224.89673587917966
    Total Energy =                       -224.8967358791796585
  @DF-RHF Final Energy:  -224.91001603075895
    Total Energy =                       -224.9100160307589533
  @DF-RHF Final Energy:  -224.89664145240820
    Total Energy =                       -224.8966414524082040
  @DF-RHF Final Energy:  -224.91000331651492
    Total Energy =                       -224.9100033165149171
  Multiplicity = 1
  @DF-RHF Final Energy:  -300.96488793985594
    Total Energy =                       -300.9648879398559416
	 Singles Energy            =      -0.0000000000000000 [Eh]
	 Same-Spin Energy          =      -0.3136698861577919 [Eh]
	 Opposite-Spin Energy      =      -0.9595060454596908 [Eh]
	 Correlation Energy        =      -1.2731759316174827 [Eh]
	 Total Energy              =    -302.2380638714734005 [Eh]
	 SCS Total Energy          =    -302.2208518231268499 [Eh]
    Molecular point group: c1

    Geometry (in Angstrom), charge = 0, multiplicity = 1:

       Center              X                  Y                   Z               Mass
    ------------   -----------------  -----------------  -----------------  -----------------
         C           -1.969010446995     0.050470397950     0.028517113018    12.000000000000
         C           -0.935238446995    -0.857107602050     0.106533113018    12.000000000000
         N            0.208146553005    -0.110780602050     0.008100113018    14.003074004430
         C           -0.168745446995     1.188619397950    -0.122565886982    12.000000000000
         N           -1.485804446995     1.326234397950    -0.114444886982    14.003074004430
         H            1.157871553005    -0.460104602050     0.028640113018     1.007825032230
         H           -3.025373446995    -0.150324602050     0.067874113018     1.007825032230
         H           -0.914678446995    -1.925597602050     0.218955113018     1.007825032230
         H            0.545628553005     1.987620397950    -0.219181886982     1.007825032230
         O            3.102075553005    -1.153190602050     0.068419113018    15.994914619570
         H            3.686004553005    -1.213273602050     0.827323113018     1.007825032230
         H            3.660200553005    -1.372485602050    -0.680528886982     1.007825032230

  Charge       = 0
  Multiplicity = 1
  Basis Set: AUG-CC-PVQZ
    Blend: AUG-CC-PVQZ
  Basis Set: (AUG-CC-PVQZ AUX)
    Blend: AUG-CC-PVQZ-JKFIT

    Orbital Energies [Eh]
    ---------------------

    Doubly Occupied:

       1A    -20.601146     2A    -15.601258     3A    -15.530801
       4A    -11.280430     5A    -11.245194     6A    -11.228932
       7A     -1.389650     8A     -1.324939     9A     -1.150859
      10A     -0.990316    11A     -0.812754    12A     -0.785222
      13A     -0.753073    14A     -0.744807    15A     -0.633742
      16A     -0.588977    17A     -0.584875    18A     -0.583001
      19A     -0.556415    20A     -0.548486    21A     -0.425206
      22A     -0.385648    23A     -0.304618

  @DF-RHF Final Energy:  -300.98355406711278

   => Energetics <=

    Nuclear Repulsion Energy =            218.1126094922136645
    One-Electron Energy =                -842.0916287309825066
    Two-Electron Energy =                 322.9954651716560647
    Total Energy =                       -300.9835540671127774

  Dipole Moment: [D]
     X:     5.8455      Y:    -3.0800      Z:     0.2248     Total:     6.6111

  Basis Set: (AUG-CC-PVQZ AUX)
    Blend: AUG-CC-PVQZ-RI
	 Reference Energy          =    -300.9835540671127774 [Eh]
	 Singles Energy            =      -0.0000000000000000 [Eh]
	 Same-Spin Energy          =      -0.3320362605925572 [Eh]
	 Opposite-Spin Energy      =      -1.0807379857826787 [Eh]
	 Correlation Energy        =      -1.4127742463752360 [Eh]
	 Total Energy              =    -302.3963283134880271 [Eh]

	 ================> DF-SCS-MP2 Energies <==================
	-----------------------------------------------------------
	 SCS Same-Spin Scale       =       0.3333333333333333 [-]
	 SCS Opposite-Spin Scale   =       1.2000000000000000 [-]
	 SCS Same-Spin Energy      =      -0.1106787535308524 [Eh]
	 SCS Opposite-Spin Energy  =      -1.2968855829392143 [Eh]
	 SCS Correlation Energy    =      -1.4075643364700667 [Eh]
	 SCS Total Energy          =    -302.3911184035828228 [Eh]
	-----------------------------------------------------------

*** Psi4 exiting successfully. Buy a developer a beer!
