                               Psi4 1.4a2.dev224

  ==> Input File <==

--------------------------------------------------------------------------
#Generated by lconvert.py for cbs job

memory 40 GB

molecule  {
0 1
  N       -2.2665280     1.7551600     0.3523560
  C       -3.2562880     0.7247330     0.0142390
  C       -2.4225700    -0.2894620    -0.7756490
  C       -0.9872470    -0.1186910    -0.2215320
  C       -1.1192600     0.9789940     0.8392520
  H       -4.0737160     1.1488270    -0.5652640
  H       -3.6729280     0.2529640     0.9128420
  H       -2.8027860    -1.3003390    -0.6499560
  H       -2.4447730    -0.0452880    -1.8342580
  H       -0.5903580    -1.0371090     0.2041700
  H       -0.3185330     0.2076840    -1.0134090
  H       -1.3194960     0.5329730     1.8213990
  H       -0.2332930     1.6057540     0.9173520
  H       -2.6177160     2.3795850     1.0695950
--
0 1
  O       -1.3403790     2.5378980    -2.2877750
  H       -1.6804480     2.4459700    -1.3786170
  H       -1.3856830     3.4793500    -2.4607450
units angstrom
no_reorient
symmetry c1
}

set {
scf_type DF
mp2_type DF
e_convergence 7
reference rhf
}

energy('mp2/aug-cc-pv[tq]z', bsse_type='cp')
--------------------------------------------------------------------------

    Molecular point group: c1
  Charge       = 0
  Multiplicity = 1
  Basis Set: AUG-CC-PVTZ
    Blend: AUG-CC-PVTZ
  Basis Set: (AUG-CC-PVTZ AUX)
    Blend: AUG-CC-PVTZ-JKFIT
  @DF-RHF Final Energy:   -76.05966895215737
    Total Energy =                        -76.0596689521573666
  Basis Set: (AUG-CC-PVTZ AUX)
    Blend: AUG-CC-PVTZ-RI
	 Reference Energy          =     -76.0596689521573666 [Eh]
	 Singles Energy            =      -0.0000000000000000 [Eh]
	 Same-Spin Energy          =      -0.0685048846401419 [Eh]
	 Opposite-Spin Energy      =      -0.2156705647794821 [Eh]
	 Correlation Energy        =      -0.2841754494196240 [Eh]
	 Total Energy              =     -76.3438444015769875 [Eh]
	 SCS Total Energy          =     -76.3413085914394571 [Eh]
    Molecular point group: c1
  Basis Set: AUG-CC-PVQZ
    Blend: AUG-CC-PVQZ
  Basis Set: (AUG-CC-PVQZ AUX)
    Blend: AUG-CC-PVQZ-JKFIT
  @DF-RHF Final Energy:   -76.06501591233861
    Total Energy =                        -76.0650159123385947
  Basis Set: (AUG-CC-PVQZ AUX)
  @DF-RHF Final Energy:   -76.05979150047753
    Total Energy =                        -76.0597915004775302
  @DF-RHF Final Energy:   -76.06506290016469
    Total Energy =                        -76.0650629001646905
  @DF-RHF Final Energy:  -211.22289911607311
    Total Energy =                       -211.2228991160731084
  @DF-RHF Final Energy:  -211.23538199931204
    Total Energy =                       -211.2353819993120396
  @DF-RHF Final Energy:  -211.22282457951388
    Total Energy =                       -211.2228245795138832
  @DF-RHF Final Energy:  -211.23535956034246
    Total Energy =                       -211.2353595603424310
  Multiplicity = 1
  @DF-RHF Final Energy:  -287.28980305760149
    Total Energy =                       -287.2898030576014889
	 Singles Energy            =      -0.0000000000000000 [Eh]
	 Same-Spin Energy          =      -0.2966028028030017 [Eh]
	 Opposite-Spin Energy      =      -1.0059888466647069 [Eh]
	 Correlation Energy        =      -1.3025916494677086 [Eh]
	 Total Energy              =    -288.5923947070692179 [Eh]
	 SCS Total Energy          =    -288.5958572745334436 [Eh]
    Molecular point group: c1

    Geometry (in Angstrom), charge = 0, multiplicity = 1:

       Center              X                  Y                   Z               Mass
    ------------   -----------------  -----------------  -----------------  -----------------
         N           -0.381711248835     0.739669427193     0.760769831756    14.003074004430
         C           -1.371471248835    -0.290757572807     0.422652831756    12.000000000000
         C           -0.537753248835    -1.304952572807    -0.367235168244    12.000000000000
         C            0.897569751165    -1.134181572807     0.186881831756    12.000000000000
         C            0.765556751165    -0.036496572807     1.247665831756    12.000000000000
         H           -2.188899248835     0.133336427193    -0.156850168244     1.007825032230
         H           -1.788111248835    -0.762526572807     1.321255831756     1.007825032230
         H           -0.917969248835    -2.315829572807    -0.241542168244     1.007825032230
         H           -0.559956248835    -1.060778572807    -1.425844168244     1.007825032230
         H            1.294458751165    -2.052599572807     0.612583831756     1.007825032230
         H            1.566283751165    -0.807806572807    -0.604995168244     1.007825032230
         H            0.565320751165    -0.482517572807     2.229812831756     1.007825032230
         H            1.651523751165     0.590263427193     1.325765831756     1.007825032230
         H           -0.732899248835     1.364094427193     1.478008831756     1.007825032230
         O            0.544437751165     1.522407427193    -1.879361168244    15.994914619570
         H            0.204368751165     1.430479427193    -0.970203168244     1.007825032230
         H            0.499133751165     2.463859427193    -2.052331168244     1.007825032230

  Charge       = 0
  Multiplicity = 1
  Basis Set: AUG-CC-PVQZ
    Blend: AUG-CC-PVQZ
  Basis Set: (AUG-CC-PVQZ AUX)
    Blend: AUG-CC-PVQZ-JKFIT

    Orbital Energies [Eh]
    ---------------------

    Doubly Occupied:

       1A    -20.525434     2A    -15.552667     3A    -11.247349
       4A    -11.247331     5A    -11.213050     6A    -11.212482
       7A     -1.313772     8A     -1.231222     9A     -1.026900
      10A     -0.978803    11A     -0.815294    12A     -0.784246
      13A     -0.703388    14A     -0.686027    15A     -0.653348
      16A     -0.597332    17A     -0.572532    18A     -0.544914
      19A     -0.518404    20A     -0.518031    21A     -0.484222
      22A     -0.475210    23A     -0.474207    24A     -0.458126
      25A     -0.390840

  @DF-RHF Final Energy:  -287.30758823098870

   => Energetics <=

    Nuclear Repulsion Energy =            263.1303964242742950
    One-Electron Energy =                -912.4257053690400880
    Two-Electron Energy =                 361.9877207137770938
    Total Energy =                       -287.3075882309886993

  Dipole Moment: [D]
     X:    -1.0263      Y:     0.3253      Z:     2.5577     Total:     2.7750

  Basis Set: (AUG-CC-PVQZ AUX)
    Blend: AUG-CC-PVQZ-RI
	 Reference Energy          =    -287.3075882309886993 [Eh]
	 Singles Energy            =      -0.0000000000000000 [Eh]
	 Same-Spin Energy          =      -0.3136031308141504 [Eh]
	 Opposite-Spin Energy      =      -1.1219296048415597 [Eh]
	 Correlation Energy        =      -1.4355327356557102 [Eh]
	 Total Energy              =    -288.7431209666444261 [Eh]

	 ================> DF-SCS-MP2 Energies <==================
	-----------------------------------------------------------
	 SCS Same-Spin Scale       =       0.3333333333333333 [-]
	 SCS Opposite-Spin Scale   =       1.2000000000000000 [-]
	 SCS Same-Spin Energy      =      -0.1045343769380501 [Eh]
	 SCS Opposite-Spin Energy  =      -1.3463155258098716 [Eh]
	 SCS Correlation Energy    =      -1.4508499027479218 [Eh]
	 SCS Total Energy          =    -288.7584381337366040 [Eh]
	-----------------------------------------------------------

*** Psi4 exiting successfully. Buy a developer a beer!
