                               Psi4 1.4a2.dev224

  ==> Input File <==

--------------------------------------------------------------------------
#Generated by lconvert.py for cbs job

memory 40 GB

molecule  {
0 1
  N       -2.2665280     1.7551600     0.3523560
  C       -3.2562880     0.7247330     0.0142390
  C       -2.4225700    -0.2894620    -0.7756490
  C       -0.9872470    -0.1186910    -0.2215320
  C       -1.1192600     0.9789940     0.8392520
  H       -4.0737160     1.1488270    -0.5652640
  H       -3.6729280     0.2529640     0.9128420
  H       -2.8027860    -1.3003390    -0.6499560
  H       -2.4447730    -0.0452880    -1.8342580
  H       -0.5903580    -1.0371090     0.2041700
  H       -0.3185330     0.2076840    -1.0134090
  H       -1.3194960     0.5329730     1.8213990
  H       -0.2332930     1.6057540     0.9173520
  H       -2.6177160     2.3795850     1.0695950
--
0 1
  O       -1.4575950     2.3997360    -1.9415800
  H       -1.7976640     2.3078080    -1.0324220
  H       -1.5028990     3.3411880    -2.1145500
units angstrom
no_reorient
symmetry c1
}

set {
scf_type DF
mp2_type DF
e_convergence 7
reference rhf
}

energy('mp2/aug-cc-pv[tq]z', bsse_type='cp')
--------------------------------------------------------------------------

    Molecular point group: c1
  Charge       = 0
  Multiplicity = 1
  Basis Set: AUG-CC-PVTZ
    Blend: AUG-CC-PVTZ
  Basis Set: (AUG-CC-PVTZ AUX)
    Blend: AUG-CC-PVTZ-JKFIT
  @DF-RHF Final Energy:   -76.05966895214596
    Total Energy =                        -76.0596689521459552
  Basis Set: (AUG-CC-PVTZ AUX)
    Blend: AUG-CC-PVTZ-RI
	 Reference Energy          =     -76.0596689521459552 [Eh]
	 Singles Energy            =      -0.0000000000000000 [Eh]
	 Same-Spin Energy          =      -0.0685048846401655 [Eh]
	 Opposite-Spin Energy      =      -0.2156705647794739 [Eh]
	 Correlation Energy        =      -0.2841754494196395 [Eh]
	 Total Energy              =     -76.3438444015655904 [Eh]
	 SCS Total Energy          =     -76.3413085914280458 [Eh]
    Molecular point group: c1
  Basis Set: AUG-CC-PVQZ
    Blend: AUG-CC-PVQZ
  Basis Set: (AUG-CC-PVQZ AUX)
    Blend: AUG-CC-PVQZ-JKFIT
  @DF-RHF Final Energy:   -76.06501591235693
    Total Energy =                        -76.0650159123569267
  Basis Set: (AUG-CC-PVQZ AUX)
  @DF-RHF Final Energy:   -76.05985006581753
    Total Energy =                        -76.0598500658175283
  @DF-RHF Final Energy:   -76.06507854206100
    Total Energy =                        -76.0650785420610021
  @DF-RHF Final Energy:  -211.22295616049041
    Total Energy =                       -211.2229561604904120
  @DF-RHF Final Energy:  -211.23538923010767
    Total Energy =                       -211.2353892301076712
  @DF-RHF Final Energy:  -211.22282457966611
    Total Energy =                       -211.2228245796661099
  @DF-RHF Final Energy:  -211.23535955880919
    Total Energy =                       -211.2353595588091935
  Multiplicity = 1
  @DF-RHF Final Energy:  -287.27930223788678
    Total Energy =                       -287.2793022378867818
	 Singles Energy            =      -0.0000000000000000 [Eh]
	 Same-Spin Energy          =      -0.2993974647065866 [Eh]
	 Opposite-Spin Energy      =      -1.0091312894031388 [Eh]
	 Correlation Energy        =      -1.3085287541097252 [Eh]
	 Total Energy              =    -288.5878309919964977 [Eh]
	 SCS Total Energy          =    -288.5900589400727654 [Eh]
    Molecular point group: c1

    Geometry (in Angstrom), charge = 0, multiplicity = 1:

       Center              X                  Y                   Z               Mass
    ------------   -----------------  -----------------  -----------------  -----------------
         N           -0.358013111865     0.767602320314     0.690777880757    14.003074004430
         C           -1.347773111865    -0.262824679686     0.352660880757    12.000000000000
         C           -0.514055111865    -1.277019679686    -0.437227119243    12.000000000000
         C            0.921267888135    -1.106248679686     0.116889880757    12.000000000000
         C            0.789254888135    -0.008563679686     1.177673880757    12.000000000000
         H           -2.165201111865     0.161269320314    -0.226842119243     1.007825032230
         H           -1.764413111865    -0.734593679686     1.251263880757     1.007825032230
         H           -0.894271111865    -2.287896679686    -0.311534119243     1.007825032230
         H           -0.536258111865    -1.032845679686    -1.495836119243     1.007825032230
         H            1.318156888135    -2.024666679686     0.542591880757     1.007825032230
         H            1.589981888135    -0.779873679686    -0.674987119243     1.007825032230
         H            0.589018888135    -0.454584679686     2.159820880757     1.007825032230
         H            1.675221888135     0.618196320314     1.255773880757     1.007825032230
         H           -0.709201111865     1.392027320314     1.408016880757     1.007825032230
         O            0.450919888135     1.412178320314    -1.603158119243    15.994914619570
         H            0.110850888135     1.320250320314    -0.694000119243     1.007825032230
         H            0.405615888135     2.353630320314    -1.776128119243     1.007825032230

  Charge       = 0
  Multiplicity = 1
  Basis Set: AUG-CC-PVQZ
    Blend: AUG-CC-PVQZ
  Basis Set: (AUG-CC-PVQZ AUX)
    Blend: AUG-CC-PVQZ-JKFIT

    Orbital Energies [Eh]
    ---------------------

    Doubly Occupied:

       1A    -20.498073     2A    -15.557518     3A    -11.250401
       4A    -11.250384     5A    -11.212477     6A    -11.211909
       7A     -1.299983     8A     -1.237228     9A     -1.029533
      10A     -0.981735    11A     -0.820317    12A     -0.785495
      13A     -0.717924    14A     -0.687733    15A     -0.637761
      16A     -0.601754    17A     -0.578674    18A     -0.528089
      19A     -0.522409    20A     -0.520411    21A     -0.485727
      22A     -0.474493    23A     -0.462195    24A     -0.450736
      25A     -0.393194

  @DF-RHF Final Energy:  -287.29701561057811

   => Energetics <=

    Nuclear Repulsion Energy =            270.2609234872591628
    One-Electron Energy =                -926.7235737020173474
    Two-Electron Energy =                 369.1656346041801271
    Total Energy =                       -287.2970156105781143

  Dipole Moment: [D]
     X:    -1.1221      Y:     0.1487      Z:     2.8603     Total:     3.0761

  Basis Set: (AUG-CC-PVQZ AUX)
    Blend: AUG-CC-PVQZ-RI
	 Reference Energy          =    -287.2970156105781143 [Eh]
	 Singles Energy            =      -0.0000000000000000 [Eh]
	 Same-Spin Energy          =      -0.3164181172987653 [Eh]
	 Opposite-Spin Energy      =      -1.1247409258993715 [Eh]
	 Correlation Energy        =      -1.4411590431981369 [Eh]
	 Total Energy              =    -288.7381746537762410 [Eh]

	 ================> DF-SCS-MP2 Energies <==================
	-----------------------------------------------------------
	 SCS Same-Spin Scale       =       0.3333333333333333 [-]
	 SCS Opposite-Spin Scale   =       1.2000000000000000 [-]
	 SCS Same-Spin Energy      =      -0.1054727057662551 [Eh]
	 SCS Opposite-Spin Energy  =      -1.3496891110792457 [Eh]
	 SCS Correlation Energy    =      -1.4551618168455009 [Eh]
	 SCS Total Energy          =    -288.7521774274235895 [Eh]
	-----------------------------------------------------------

*** Psi4 exiting successfully. Buy a developer a beer!
