                               Psi4 1.4a2.dev224

  ==> Input File <==

--------------------------------------------------------------------------
#Generated by lconvert.py for cbs job

memory 40 GB

molecule  {
0 1
  N       -2.2665280     1.7551600     0.3523560
  C       -3.2562880     0.7247330     0.0142390
  C       -2.4225700    -0.2894620    -0.7756490
  C       -0.9872470    -0.1186910    -0.2215320
  C       -1.1192600     0.9789940     0.8392520
  H       -4.0737160     1.1488270    -0.5652640
  H       -3.6729280     0.2529640     0.9128420
  H       -2.8027860    -1.3003390    -0.6499560
  H       -2.4447730    -0.0452880    -1.8342580
  H       -0.5903580    -1.0371090     0.2041700
  H       -0.3185330     0.2076840    -1.0134090
  H       -1.3194960     0.5329730     1.8213990
  H       -0.2332930     1.6057540     0.9173520
  H       -2.6177160     2.3795850     1.0695950
--
0 1
  O       -1.3989870     2.4688170    -2.1146780
  H       -1.7390560     2.3768890    -1.2055200
  H       -1.4442910     3.4102690    -2.2876480
units angstrom
no_reorient
symmetry c1
}

set {
scf_type DF
mp2_type DF
e_convergence 7
reference rhf
}

energy('mp2/aug-cc-pv[tq]z', bsse_type='cp')
--------------------------------------------------------------------------

    Molecular point group: c1
  Charge       = 0
  Multiplicity = 1
  Basis Set: AUG-CC-PVTZ
    Blend: AUG-CC-PVTZ
  Basis Set: (AUG-CC-PVTZ AUX)
    Blend: AUG-CC-PVTZ-JKFIT
  @DF-RHF Final Energy:   -76.05966895215687
    Total Energy =                        -76.0596689521568692
  Basis Set: (AUG-CC-PVTZ AUX)
    Blend: AUG-CC-PVTZ-RI
	 Reference Energy          =     -76.0596689521568692 [Eh]
	 Singles Energy            =      -0.0000000000000000 [Eh]
	 Same-Spin Energy          =      -0.0685048846401364 [Eh]
	 Opposite-Spin Energy      =      -0.2156705647794204 [Eh]
	 Correlation Energy        =      -0.2841754494195568 [Eh]
	 Total Energy              =     -76.3438444015764190 [Eh]
	 SCS Total Energy          =     -76.3413085914388887 [Eh]
    Molecular point group: c1
  Basis Set: AUG-CC-PVQZ
    Blend: AUG-CC-PVQZ
  Basis Set: (AUG-CC-PVQZ AUX)
    Blend: AUG-CC-PVQZ-JKFIT
  @DF-RHF Final Energy:   -76.06501591235543
    Total Energy =                        -76.0650159123554488
  Basis Set: (AUG-CC-PVQZ AUX)
  @DF-RHF Final Energy:   -76.05981787004328
    Total Energy =                        -76.0598178700432754
  @DF-RHF Final Energy:   -76.06507001596960
    Total Energy =                        -76.0650700159696100
  @DF-RHF Final Energy:  -211.22292601486041
    Total Energy =                       -211.2229260148604340
  @DF-RHF Final Energy:  -211.23538527775088
    Total Energy =                       -211.2353852777508791
  @DF-RHF Final Energy:  -211.22282457941159
    Total Energy =                       -211.2228245794116219
  @DF-RHF Final Energy:  -211.23535955855164
    Total Energy =                       -211.2353595585516359
  Multiplicity = 1
  @DF-RHF Final Energy:  -287.28702378909361
    Total Energy =                       -287.2870237890936096
	 Singles Energy            =      -0.0000000000000000 [Eh]
	 Same-Spin Energy          =      -0.2978218139609685 [Eh]
	 Opposite-Spin Energy      =      -1.0074228153261862 [Eh]
	 Correlation Energy        =      -1.3052446292871547 [Eh]
	 Total Energy              =    -288.5922684183807405 [Eh]
	 SCS Total Energy          =    -288.5952051054720187 [Eh]
    Molecular point group: c1

    Geometry (in Angstrom), charge = 0, multiplicity = 1:

       Center              X                  Y                   Z               Mass
    ------------   -----------------  -----------------  -----------------  -----------------
         N           -0.369862180350     0.753635873753     0.725773957344    14.003074004430
         C           -1.359622180350    -0.276791126247     0.387656957344    12.000000000000
         C           -0.525904180350    -1.290986126247    -0.402231042656    12.000000000000
         C            0.909418819650    -1.120215126247     0.151885957344    12.000000000000
         C            0.777405819650    -0.022530126247     1.212669957344    12.000000000000
         H           -2.177050180350     0.147302873753    -0.191846042656     1.007825032230
         H           -1.776262180350    -0.748560126247     1.286259957344     1.007825032230
         H           -0.906120180350    -2.301863126247    -0.276538042656     1.007825032230
         H           -0.548107180350    -1.046812126247    -1.460840042656     1.007825032230
         H            1.306307819650    -2.038633126247     0.577587957344     1.007825032230
         H            1.578132819650    -0.793840126247    -0.639991042656     1.007825032230
         H            0.577169819650    -0.468551126247     2.194816957344     1.007825032230
         H            1.663372819650     0.604229873753     1.290769957344     1.007825032230
         H           -0.721050180350     1.378060873753     1.443012957344     1.007825032230
         O            0.497678819650     1.467292873753    -1.741260042656    15.994914619570
         H            0.157609819650     1.375364873753    -0.832102042656     1.007825032230
         H            0.452374819650     2.408744873753    -1.914230042656     1.007825032230

  Charge       = 0
  Multiplicity = 1
  Basis Set: AUG-CC-PVQZ
    Blend: AUG-CC-PVQZ
  Basis Set: (AUG-CC-PVQZ AUX)
    Blend: AUG-CC-PVQZ-JKFIT

    Orbital Energies [Eh]
    ---------------------

    Doubly Occupied:

       1A    -20.513884     2A    -15.554985     3A    -11.248663
       4A    -11.248645     5A    -11.212737     6A    -11.212169
       7A     -1.306856     8A     -1.234181     9A     -1.027930
      10A     -0.980037    11A     -0.817283    12A     -0.784743
      13A     -0.709058    14A     -0.686214    15A     -0.646394
      16A     -0.599156    17A     -0.575629    18A     -0.536838
      19A     -0.519902    20A     -0.519596    21A     -0.484846
      22A     -0.474303    23A     -0.467825    24A     -0.456637
      25A     -0.392907

  @DF-RHF Final Energy:  -287.30476416306840

   => Energetics <=

    Nuclear Repulsion Energy =            266.5237613337336029
    One-Electron Energy =                -919.2342248764590522
    Two-Electron Energy =                 365.4056993796569941
    Total Energy =                       -287.3047641630683984

  Dipole Moment: [D]
     X:    -1.0661      Y:     0.2475      Z:     2.6850     Total:     2.8995

  Basis Set: (AUG-CC-PVQZ AUX)
    Blend: AUG-CC-PVQZ-RI
	 Reference Energy          =    -287.3047641630683984 [Eh]
	 Singles Energy            =      -0.0000000000000000 [Eh]
	 Same-Spin Energy          =      -0.3148296287999385 [Eh]
	 Opposite-Spin Energy      =      -1.1231634277745286 [Eh]
	 Correlation Energy        =      -1.4379930565744672 [Eh]
	 Total Energy              =    -288.7427572196428400 [Eh]

	 ================> DF-SCS-MP2 Energies <==================
	-----------------------------------------------------------
	 SCS Same-Spin Scale       =       0.3333333333333333 [-]
	 SCS Opposite-Spin Scale   =       1.2000000000000000 [-]
	 SCS Same-Spin Energy      =      -0.1049432095999795 [Eh]
	 SCS Opposite-Spin Energy  =      -1.3477961133294343 [Eh]
	 SCS Correlation Energy    =      -1.4527393229294139 [Eh]
	 SCS Total Energy          =    -288.7575034859978018 [Eh]
	-----------------------------------------------------------

*** Psi4 exiting successfully. Buy a developer a beer!
