                               Psi4 1.4a2.dev224

  ==> Input File <==

--------------------------------------------------------------------------
#Generated by lconvert.py for cbs job

memory 40 GB

molecule  {
0 1
  N       -2.2665280     1.7551600     0.3523560
  C       -3.2562880     0.7247330     0.0142390
  C       -2.4225700    -0.2894620    -0.7756490
  C       -0.9872470    -0.1186910    -0.2215320
  C       -1.1192600     0.9789940     0.8392520
  H       -4.0737160     1.1488270    -0.5652640
  H       -3.6729280     0.2529640     0.9128420
  H       -2.8027860    -1.3003390    -0.6499560
  H       -2.4447730    -0.0452880    -1.8342580
  H       -0.5903580    -1.0371090     0.2041700
  H       -0.3185330     0.2076840    -1.0134090
  H       -1.3194960     0.5329730     1.8213990
  H       -0.2332930     1.6057540     0.9173520
  H       -2.6177160     2.3795850     1.0695950
--
0 1
  O       -1.3110750     2.5724390    -2.3743240
  H       -1.6511440     2.4805100    -1.4651660
  H       -1.3563790     3.5138910    -2.5472940
units angstrom
no_reorient
symmetry c1
}

set {
scf_type DF
mp2_type DF
e_convergence 7
reference rhf
}

energy('mp2/aug-cc-pv[tq]z', bsse_type='cp')
--------------------------------------------------------------------------

    Molecular point group: c1
  Charge       = 0
  Multiplicity = 1
  Basis Set: AUG-CC-PVTZ
    Blend: AUG-CC-PVTZ
  Basis Set: (AUG-CC-PVTZ AUX)
    Blend: AUG-CC-PVTZ-JKFIT
  @DF-RHF Final Energy:   -76.05966894979935
    Total Energy =                        -76.0596689497993452
  Basis Set: (AUG-CC-PVTZ AUX)
    Blend: AUG-CC-PVTZ-RI
	 Reference Energy          =     -76.0596689497993452 [Eh]
	 Singles Energy            =      -0.0000000000000000 [Eh]
	 Same-Spin Energy          =      -0.0685048842674426 [Eh]
	 Opposite-Spin Energy      =      -0.2156705640251674 [Eh]
	 Correlation Energy        =      -0.2841754482926100 [Eh]
	 Total Energy              =     -76.3438443980919601 [Eh]
	 SCS Total Energy          =     -76.3413085880520299 [Eh]
    Molecular point group: c1
  Basis Set: AUG-CC-PVQZ
    Blend: AUG-CC-PVQZ
  Basis Set: (AUG-CC-PVQZ AUX)
    Blend: AUG-CC-PVQZ-JKFIT
  @DF-RHF Final Energy:   -76.06501590973846
    Total Energy =                        -76.0650159097384631
  Basis Set: (AUG-CC-PVQZ AUX)
  @DF-RHF Final Energy:   -76.05978054338688
    Total Energy =                        -76.0597805433868785
  @DF-RHF Final Energy:   -76.06505979282201
    Total Energy =                        -76.0650597928220122
  @DF-RHF Final Energy:  -211.22288804842410
    Total Energy =                       -211.2228880484241245
  @DF-RHF Final Energy:  -211.23537995871698
    Total Energy =                       -211.2353799587169760
  @DF-RHF Final Energy:  -211.22282457918317
    Total Energy =                       -211.2228245791831682
  @DF-RHF Final Energy:  -211.23535955753090
    Total Energy =                       -211.2353595575308987
  Multiplicity = 1
  @DF-RHF Final Energy:  -287.29022122809033
    Total Energy =                       -287.2902212280903314
	 Singles Energy            =      -0.0000000000000000 [Eh]
	 Same-Spin Energy          =      -0.2961074620803652 [Eh]
	 Opposite-Spin Energy      =      -1.0053766704002436 [Eh]
	 Correlation Energy        =      -1.3014841324806088 [Eh]
	 Total Energy              =    -288.5917053605709270 [Eh]
	 SCS Total Energy          =    -288.5953757199307574 [Eh]
    Molecular point group: c1

    Geometry (in Angstrom), charge = 0, multiplicity = 1:

       Center              X                  Y                   Z               Mass
    ------------   -----------------  -----------------  -----------------  -----------------
         N           -0.387635783078     0.732686114138     0.778267870050    14.003074004430
         C           -1.377395783078    -0.297740885862     0.440150870050    12.000000000000
         C           -0.543677783078    -1.311935885862    -0.349737129950    12.000000000000
         C            0.891645216922    -1.141164885862     0.204379870050    12.000000000000
         C            0.759632216922    -0.043479885862     1.265163870050    12.000000000000
         H           -2.194823783078     0.126353114138    -0.139352129950     1.007825032230
         H           -1.794035783078    -0.769509885862     1.338753870050     1.007825032230
         H           -0.923893783078    -2.322812885862    -0.224044129950     1.007825032230
         H           -0.565880783078    -1.067761885862    -1.408346129950     1.007825032230
         H            1.288534216922    -2.059582885862     0.630081870050     1.007825032230
         H            1.560359216922    -0.814789885862    -0.587497129950     1.007825032230
         H            0.559396216922    -0.489500885862     2.247310870050     1.007825032230
         H            1.645599216922     0.583280114138     1.343263870050     1.007825032230
         H           -0.738823783078     1.357111114138     1.495506870050     1.007825032230
         O            0.567817216922     1.549965114138    -1.948412129950    15.994914619570
         H            0.227748216922     1.458036114138    -1.039254129950     1.007825032230
         H            0.522513216922     2.491417114138    -2.121382129950     1.007825032230

  Charge       = 0
  Multiplicity = 1
  Basis Set: AUG-CC-PVQZ
    Blend: AUG-CC-PVQZ
  Basis Set: (AUG-CC-PVQZ AUX)
    Blend: AUG-CC-PVQZ-JKFIT

    Orbital Energies [Eh]
    ---------------------

    Doubly Occupied:

       1A    -20.529981     2A    -15.551586     3A    -11.246814
       4A    -11.246796     5A    -11.213209     6A    -11.212641
       7A     -1.316853     8A     -1.229962     9A     -1.026523
      10A     -0.978312    11A     -0.814551    12A     -0.784063
      13A     -0.701378    14A     -0.686422    15A     -0.655905
      16A     -0.596626    17A     -0.571259    18A     -0.548354
      19A     -0.517887    20A     -0.517269    21A     -0.483981
      22A     -0.478490    23A     -0.474181    24A     -0.458465
      25A     -0.389592

  @DF-RHF Final Energy:  -287.30802391374743

   => Energetics <=

    Nuclear Repulsion Energy =            261.5479690701182562
    One-Electron Energy =                -909.2497800530753693
    Two-Electron Energy =                 360.3937870692096794
    Total Energy =                       -287.3080239137474337

  Dipole Moment: [D]
     X:    -1.0110      Y:     0.3580      Z:     2.5082     Total:     2.7279

  Basis Set: (AUG-CC-PVQZ AUX)
    Blend: AUG-CC-PVQZ-RI
	 Reference Energy          =    -287.3080239137474337 [Eh]
	 Singles Energy            =      -0.0000000000000000 [Eh]
	 Same-Spin Energy          =      -0.3131076019030051 [Eh]
	 Opposite-Spin Energy      =      -1.1214299213140335 [Eh]
	 Correlation Energy        =      -1.4345375232170388 [Eh]
	 Total Energy              =    -288.7425614369644791 [Eh]

	 ================> DF-SCS-MP2 Energies <==================
	-----------------------------------------------------------
	 SCS Same-Spin Scale       =       0.3333333333333333 [-]
	 SCS Opposite-Spin Scale   =       1.2000000000000000 [-]
	 SCS Same-Spin Energy      =      -0.1043692006343350 [Eh]
	 SCS Opposite-Spin Energy  =      -1.3457159055768402 [Eh]
	 SCS Correlation Energy    =      -1.4500851062111753 [Eh]
	 SCS Total Energy          =    -288.7581090199586242 [Eh]
	-----------------------------------------------------------

*** Psi4 exiting successfully. Buy a developer a beer!
