                               Psi4 1.4a2.dev224

  ==> Input File <==

--------------------------------------------------------------------------
#Generated by lconvert.py for cbs job

memory 20 GB

molecule  {
0 1
  N      -2.266530    1.755160    0.352360
  C      -3.256290    0.724730    0.014240
  C      -2.422570   -0.289460   -0.775650
  C      -0.987250   -0.118690   -0.221530
  C      -1.119260    0.978990    0.839250
  H      -4.073720    1.148830   -0.565260
  H      -3.672930    0.252960    0.912840
  H      -2.802790   -1.300340   -0.649960
  H      -2.444770   -0.045290   -1.834260
  H      -0.590360   -1.037110    0.204170
  H      -0.318530    0.207680   -1.013410
  H      -1.319500    0.532970    1.821400
  H      -0.233290    1.605750    0.917350
  H      -2.617720    2.379590    1.069600
--
0 1
  O      -1.164560    2.745140   -2.807070
  H      -1.504620    2.653210   -1.897910
  H      -1.209860    3.686590   -2.980040
units angstrom
no_reorient
symmetry c1
}

set {
scf_type DF
mp2_type DF
e_convergence 7
reference rhf
}

energy('mp2/aug-cc-pv[tq]z', bsse_type='cp')
--------------------------------------------------------------------------

    Molecular point group: c1
  Charge       = 0
  Multiplicity = 1
  Basis Set: AUG-CC-PVTZ
    Blend: AUG-CC-PVTZ
  Basis Set: (AUG-CC-PVTZ AUX)
    Blend: AUG-CC-PVTZ-JKFIT
  @DF-RHF Final Energy:   -76.05966911541604
    Total Energy =                        -76.0596691154160425
  Basis Set: (AUG-CC-PVTZ AUX)
    Blend: AUG-CC-PVTZ-RI
	 Reference Energy          =     -76.0596691154160425 [Eh]
	 Singles Energy            =      -0.0000000000000000 [Eh]
	 Same-Spin Energy          =      -0.0685048503366624 [Eh]
	 Opposite-Spin Energy      =      -0.2156704616559036 [Eh]
	 Correlation Energy        =      -0.2841753119925660 [Eh]
	 Total Energy              =     -76.3438444274086123 [Eh]
	 SCS Total Energy          =     -76.3413086195153454 [Eh]
    Molecular point group: c1
  Basis Set: AUG-CC-PVQZ
    Blend: AUG-CC-PVQZ
  Basis Set: (AUG-CC-PVQZ AUX)
    Blend: AUG-CC-PVQZ-JKFIT
  @DF-RHF Final Energy:   -76.06501608345434
    Total Energy =                        -76.0650160834543385
  Basis Set: (AUG-CC-PVQZ AUX)
  @DF-RHF Final Energy:   -76.05974375152604
    Total Energy =                        -76.0597437515260424
  @DF-RHF Final Energy:   -76.06504609983311
    Total Energy =                        -76.0650460998331113
  @DF-RHF Final Energy:  -211.22286189759510
    Total Energy =                       -211.2228618975950667
  @DF-RHF Final Energy:  -211.23537316874985
    Total Energy =                       -211.2353731687498453
  @DF-RHF Final Energy:  -211.22282434840673
    Total Energy =                       -211.2228243484067320
  @DF-RHF Final Energy:  -211.23535931410484
    Total Energy =                       -211.2353593141048691
  Multiplicity = 1
  @DF-RHF Final Energy:  -287.28885353462363
    Total Energy =                       -287.2888535346236267
	 Singles Energy            =      -0.0000000000000000 [Eh]
	 Same-Spin Energy          =      -0.2944661141136059 [Eh]
	 Opposite-Spin Energy      =      -1.0033170288455593 [Eh]
	 Correlation Energy        =      -1.2977831429591653 [Eh]
	 Total Energy              =    -288.5866366775828169 [Eh]
	 SCS Total Energy          =    -288.5909893406094966 [Eh]
    Molecular point group: c1

    Geometry (in Angstrom), charge = 0, multiplicity = 1:

       Center              X                  Y                   Z               Mass
    ------------   -----------------  -----------------  -----------------  -----------------
         N           -0.417258478142     0.697770998201     0.865761623621    14.003074004430
         C           -1.407018478142    -0.332659001799     0.527641623621    12.000000000000
         C           -0.573298478142    -1.346849001799    -0.262248376379    12.000000000000
         C            0.862021521858    -1.176079001799     0.291871623621    12.000000000000
         C            0.730011521858    -0.078399001799     1.352651623621    12.000000000000
         H           -2.224448478142     0.091440998201    -0.051858376379     1.007825032230
         H           -1.823658478142    -0.804429001799     1.426241623621     1.007825032230
         H           -0.953518478142    -2.357729001799    -0.136558376379     1.007825032230
         H           -0.595498478142    -1.102679001799    -1.320858376379     1.007825032230
         H            1.258911521858    -2.094499001799     0.717571623621     1.007825032230
         H            1.530741521858    -0.849709001799    -0.500008376379     1.007825032230
         H            0.529771521858    -0.524419001799     2.334801623621     1.007825032230
         H            1.615981521858     0.548360998201     1.430751623621     1.007825032230
         H           -0.768448478142     1.322200998201     1.583001623621     1.007825032230
         O            0.684711521858     1.687750998201    -2.293668376379    15.994914619570
         H            0.344651521858     1.595820998201    -1.384508376379     1.007825032230
         H            0.639411521858     2.629200998201    -2.466638376379     1.007825032230

  Charge       = 0
  Multiplicity = 1
  Basis Set: AUG-CC-PVQZ
    Blend: AUG-CC-PVQZ
  Basis Set: (AUG-CC-PVQZ AUX)
    Blend: AUG-CC-PVQZ-JKFIT

    Orbital Energies [Eh]
    ---------------------

    Doubly Occupied:

       1A    -20.544757     2A    -15.546972     3A    -11.244902
       4A    -11.244884     5A    -11.213885     6A    -11.213318
       7A     -1.328171     8A     -1.225558     9A     -1.025334
      10A     -0.976620    11A     -0.812190    12A     -0.783475
      13A     -0.696364    14A     -0.690874    15A     -0.661415
      16A     -0.594299    17A     -0.568473    18A     -0.559389
      19A     -0.515996    20A     -0.514544    21A     -0.490100
      22A     -0.483144    23A     -0.474117    24A     -0.459249
      25A     -0.383818

  @DF-RHF Final Energy:  -287.30667651229982

   => Energetics <=

    Nuclear Repulsion Energy =            254.5994934645806893
    One-Electron Energy =                -895.3086389319324780
    Two-Electron Energy =                 353.4024689550520293
    Total Energy =                       -287.3066765122998163

  Dipole Moment: [D]
     X:    -0.9655      Y:     0.4817      Z:     2.3521     Total:     2.5878

  Basis Set: (AUG-CC-PVQZ AUX)
    Blend: AUG-CC-PVQZ-RI
	 Reference Energy          =    -287.3066765122998163 [Eh]
	 Singles Energy            =      -0.0000000000000000 [Eh]
	 Same-Spin Energy          =      -0.3114773945697989 [Eh]
	 Opposite-Spin Energy      =      -1.1197537303873628 [Eh]
	 Correlation Energy        =      -1.4312311249571619 [Eh]
	 Total Energy              =    -288.7379076372569671 [Eh]

	 ================> DF-SCS-MP2 Energies <==================
	-----------------------------------------------------------
	 SCS Same-Spin Scale       =       0.3333333333333333 [-]
	 SCS Opposite-Spin Scale   =       1.2000000000000000 [-]
	 SCS Same-Spin Energy      =      -0.1038257981899330 [Eh]
	 SCS Opposite-Spin Energy  =      -1.3437044764648354 [Eh]
	 SCS Correlation Energy    =      -1.4475302746547682 [Eh]
	 SCS Total Energy          =    -288.7542067869545690 [Eh]
	-----------------------------------------------------------

*** Psi4 exiting successfully. Buy a developer a beer!
