                               Psi4 1.4a2.dev224

  ==> Input File <==

--------------------------------------------------------------------------
#Generated by lconvert.py for cbs job

memory 40 GB

molecule  {
0 1
  N       -2.2665280     1.7551600     0.3523560
  C       -3.2562880     0.7247330     0.0142390
  C       -2.4225700    -0.2894620    -0.7756490
  C       -0.9872470    -0.1186910    -0.2215320
  C       -1.1192600     0.9789940     0.8392520
  H       -4.0737160     1.1488270    -0.5652640
  H       -3.6729280     0.2529640     0.9128420
  H       -2.8027860    -1.3003390    -0.6499560
  H       -2.4447730    -0.0452880    -1.8342580
  H       -0.5903580    -1.0371090     0.2041700
  H       -0.3185330     0.2076840    -1.0134090
  H       -1.3194960     0.5329730     1.8213990
  H       -0.2332930     1.6057540     0.9173520
  H       -2.6177160     2.3795850     1.0695950
--
0 1
  O       -1.3696830     2.5033570    -2.2012260
  H       -1.7097520     2.4114300    -1.2920680
  H       -1.4149870     3.4448090    -2.3741960
units angstrom
no_reorient
symmetry c1
}

set {
scf_type DF
mp2_type DF
e_convergence 7
reference rhf
}

energy('mp2/aug-cc-pv[tq]z', bsse_type='cp')
--------------------------------------------------------------------------

    Molecular point group: c1
  Charge       = 0
  Multiplicity = 1
  Basis Set: AUG-CC-PVTZ
    Blend: AUG-CC-PVTZ
  Basis Set: (AUG-CC-PVTZ AUX)
    Blend: AUG-CC-PVTZ-JKFIT
  @DF-RHF Final Energy:   -76.05966895448620
    Total Energy =                        -76.0596689544861988
  Basis Set: (AUG-CC-PVTZ AUX)
    Blend: AUG-CC-PVTZ-RI
	 Reference Energy          =     -76.0596689544861988 [Eh]
	 Singles Energy            =      -0.0000000000000000 [Eh]
	 Same-Spin Energy          =      -0.0685048850128790 [Eh]
	 Opposite-Spin Energy      =      -0.2156705655338109 [Eh]
	 Correlation Energy        =      -0.2841754505466899 [Eh]
	 Total Energy              =     -76.3438444050328826 [Eh]
	 SCS Total Energy          =     -76.3413085947977379 [Eh]
    Molecular point group: c1
  Basis Set: AUG-CC-PVQZ
    Blend: AUG-CC-PVQZ
  Basis Set: (AUG-CC-PVQZ AUX)
    Blend: AUG-CC-PVQZ-JKFIT
  @DF-RHF Final Energy:   -76.06501591497276
    Total Energy =                        -76.0650159149727614
  Basis Set: (AUG-CC-PVQZ AUX)
  @DF-RHF Final Energy:   -76.05980398544983
    Total Energy =                        -76.0598039854498325
  @DF-RHF Final Energy:   -76.06506628252846
    Total Energy =                        -76.0650662825284627
  @DF-RHF Final Energy:  -211.22291167804096
    Total Energy =                       -211.2229116780409868
  @DF-RHF Final Energy:  -211.23538384147545
    Total Energy =                       -211.2353838414754819
  @DF-RHF Final Energy:  -211.22282457976868
    Total Energy =                       -211.2228245797687123
  @DF-RHF Final Energy:  -211.23535955820708
    Total Energy =                       -211.2353595582071080
  Multiplicity = 1
  @DF-RHF Final Energy:  -287.28882589196127
    Total Energy =                       -287.2888258919612667
	 Singles Energy            =      -0.0000000000000000 [Eh]
	 Same-Spin Energy          =      -0.2971716245166171 [Eh]
	 Opposite-Spin Energy      =      -1.0066726184858314 [Eh]
	 Correlation Energy        =      -1.3038442430024486 [Eh]
	 Total Energy              =    -288.5926701349637256 [Eh]
	 SCS Total Energy          =    -288.5958902423164432 [Eh]
    Molecular point group: c1

    Geometry (in Angstrom), charge = 0, multiplicity = 1:

       Center              X                  Y                   Z               Mass
    ------------   -----------------  -----------------  -----------------  -----------------
         N           -0.375786714593     0.746652740247     0.743271793463    14.003074004430
         C           -1.365546714593    -0.283774259753     0.405154793463    12.000000000000
         C           -0.531828714593    -1.297969259753    -0.384733206537    12.000000000000
         C            0.903494285407    -1.127198259753     0.169383793463    12.000000000000
         C            0.771481285407    -0.029513259753     1.230167793463    12.000000000000
         H           -2.182974714593     0.140319740247    -0.174348206537     1.007825032230
         H           -1.782186714593    -0.755543259753     1.303757793463     1.007825032230
         H           -0.912044714593    -2.308846259753    -0.259040206537     1.007825032230
         H           -0.554031714593    -1.053795259753    -1.443342206537     1.007825032230
         H            1.300383285407    -2.045616259753     0.595085793463     1.007825032230
         H            1.572208285407    -0.800823259753    -0.622493206537     1.007825032230
         H            0.571245285407    -0.475534259753     2.212314793463     1.007825032230
         H            1.657448285407     0.597246740247     1.308267793463     1.007825032230
         H           -0.726974714593     1.371077740247     1.460510793463     1.007825032230
         O            0.521058285407     1.494849740247    -1.810310206537    15.994914619570
         H            0.180989285407     1.402922740247    -0.901152206537     1.007825032230
         H            0.475754285407     2.436301740247    -1.983280206537     1.007825032230

  Charge       = 0
  Multiplicity = 1
  Basis Set: AUG-CC-PVQZ
    Blend: AUG-CC-PVQZ
  Basis Set: (AUG-CC-PVQZ AUX)
    Blend: AUG-CC-PVQZ-JKFIT

    Orbital Energies [Eh]
    ---------------------

    Doubly Occupied:

       1A    -20.520116     2A    -15.553797     3A    -11.247959
       4A    -11.247941     5A    -11.212890     6A    -11.212323
       7A     -1.310418     8A     -1.232634     9A     -1.027360
      10A     -0.979371    11A     -0.816190    12A     -0.784469
      13A     -0.705904    14A     -0.685953    15A     -0.650165
      16A     -0.598165    17A     -0.574008    18A     -0.541064
      19A     -0.518977    20A     -0.518900    21A     -0.484507
      22A     -0.474246    23A     -0.471599    24A     -0.457597
      25A     -0.391988

  @DF-RHF Final Energy:  -287.30658916408282

   => Energetics <=

    Nuclear Repulsion Energy =            264.7872253255384862
    One-Electron Energy =                -915.7505488295531677
    Two-Electron Energy =                 363.6567343399318020
    Total Energy =                       -287.3065891640828227

  Dipole Moment: [D]
     X:    -1.0445      Y:     0.2886      Z:     2.6161     Total:     2.8317

  Basis Set: (AUG-CC-PVQZ AUX)
    Blend: AUG-CC-PVQZ-RI
	 Reference Energy          =    -287.3065891640828227 [Eh]
	 Singles Energy            =      -0.0000000000000000 [Eh]
	 Same-Spin Energy          =      -0.3141743983263647 [Eh]
	 Opposite-Spin Energy      =      -1.1225053592528527 [Eh]
	 Correlation Energy        =      -1.4366797575792174 [Eh]
	 Total Energy              =    -288.7432689216620361 [Eh]

	 ================> DF-SCS-MP2 Energies <==================
	-----------------------------------------------------------
	 SCS Same-Spin Scale       =       0.3333333333333333 [-]
	 SCS Opposite-Spin Scale   =       1.2000000000000000 [-]
	 SCS Same-Spin Energy      =      -0.1047247994421216 [Eh]
	 SCS Opposite-Spin Energy  =      -1.3470064311034231 [Eh]
	 SCS Correlation Energy    =      -1.4517312305455448 [Eh]
	 SCS Total Energy          =    -288.7583203946283561 [Eh]
	-----------------------------------------------------------

*** Psi4 exiting successfully. Buy a developer a beer!
