                               Psi4 1.4a2.dev224

  ==> Input File <==

--------------------------------------------------------------------------
#Generated by lconvert.py for cbs job

memory 20 GB

molecule  {
0 1
  N      -2.266530    1.755160    0.352360
  C      -3.256290    0.724730    0.014240
  C      -2.422570   -0.289460   -0.775650
  C      -0.987250   -0.118690   -0.221530
  C      -1.119260    0.978990    0.839250
  H      -4.073720    1.148830   -0.565260
  H      -3.672930    0.252960    0.912840
  H      -2.802790   -1.300340   -0.649960
  H      -2.444770   -0.045290   -1.834260
  H      -0.590360   -1.037110    0.204170
  H      -0.318530    0.207680   -1.013410
  H      -1.319500    0.532970    1.821400
  H      -0.233290    1.605750    0.917350
  H      -2.617720    2.379590    1.069600
--
0 1
  O      -0.988730    2.952380   -3.326360
  H      -1.328800    2.860460   -2.417200
  H      -1.034040    3.893840   -3.499330
units angstrom
no_reorient
symmetry c1
}

set {
scf_type DF
mp2_type DF
e_convergence 7
reference rhf
}

energy('mp2/aug-cc-pv[tq]z', bsse_type='cp')
--------------------------------------------------------------------------

    Molecular point group: c1
  Charge       = 0
  Multiplicity = 1
  Basis Set: AUG-CC-PVTZ
    Blend: AUG-CC-PVTZ
  Basis Set: (AUG-CC-PVTZ AUX)
    Blend: AUG-CC-PVTZ-JKFIT
  @DF-RHF Final Energy:   -76.05966853505406
    Total Energy =                        -76.0596685350540440
  Basis Set: (AUG-CC-PVTZ AUX)
    Blend: AUG-CC-PVTZ-RI
	 Reference Energy          =     -76.0596685350540582 [Eh]
	 Singles Energy            =      -0.0000000000000000 [Eh]
	 Same-Spin Energy          =      -0.0685049832109931 [Eh]
	 Opposite-Spin Energy      =      -0.2156708601808089 [Eh]
	 Correlation Energy        =      -0.2841758433918020 [Eh]
	 Total Energy              =     -76.3438443784458656 [Eh]
	 SCS Total Energy          =     -76.3413085616746940 [Eh]
    Molecular point group: c1
  Basis Set: AUG-CC-PVQZ
    Blend: AUG-CC-PVQZ
  Basis Set: (AUG-CC-PVQZ AUX)
    Blend: AUG-CC-PVQZ-JKFIT
  @DF-RHF Final Energy:   -76.06501547159374
    Total Energy =                        -76.0650154715937390
  Basis Set: (AUG-CC-PVQZ AUX)
  @DF-RHF Final Energy:   -76.05971109774254
    Total Energy =                        -76.0597110977425359
  @DF-RHF Final Energy:   -76.06503415347397
    Total Energy =                        -76.0650341534739880
  @DF-RHF Final Energy:  -211.22284563466170
    Total Energy =                       -211.2228456346617236
  @DF-RHF Final Energy:  -211.23536689037104
    Total Energy =                       -211.2353668903710400
  @DF-RHF Final Energy:  -211.22282435027256
    Total Energy =                       -211.2228243502725604
  @DF-RHF Final Energy:  -211.23535931503696
    Total Energy =                       -211.2353593150369306
  Multiplicity = 1
  @DF-RHF Final Energy:  -287.28625787881265
    Total Energy =                       -287.2862578788126484
	 Singles Energy            =      -0.0000000000000000 [Eh]
	 Same-Spin Energy          =      -0.2935694578202503 [Eh]
	 Opposite-Spin Energy      =      -1.0020227382569620 [Eh]
	 Correlation Energy        =      -1.2955921960772123 [Eh]
	 Total Energy              =    -288.5818500748898714 [Eh]
	 SCS Total Energy          =    -288.5865416506611041 [Eh]
    Molecular point group: c1

    Geometry (in Angstrom), charge = 0, multiplicity = 1:

       Center              X                  Y                   Z               Mass
    ------------   -----------------  -----------------  -----------------  -----------------
         N           -0.452806670383     0.655872038781     0.970749044683    14.003074004430
         C           -1.442566670383    -0.374557961219     0.632629044683    12.000000000000
         C           -0.608846670383    -1.388747961219    -0.157260955317    12.000000000000
         C            0.826473329617    -1.217977961219     0.396859044683    12.000000000000
         C            0.694463329617    -0.120297961219     1.457639044683    12.000000000000
         H           -2.259996670383     0.049542038781     0.053129044683     1.007825032230
         H           -1.859206670383    -0.846327961219     1.531229044683     1.007825032230
         H           -0.989066670383    -2.399627961219    -0.031570955317     1.007825032230
         H           -0.631046670383    -1.144577961219    -1.215870955317     1.007825032230
         H            1.223363329617    -2.136397961219     0.822559044683     1.007825032230
         H            1.495193329617    -0.891607961219    -0.395020955317     1.007825032230
         H            0.494223329617    -0.566317961219     2.439789044683     1.007825032230
         H            1.580433329617     0.506462038781     1.535739044683     1.007825032230
         H           -0.803996670383     1.280302038781     1.687989044683     1.007825032230
         O            0.824993329617     1.853092038781    -2.707970955317    15.994914619570
         H            0.484923329617     1.761172038781    -1.798810955317     1.007825032230
         H            0.779683329617     2.794552038781    -2.880940955317     1.007825032230

  Charge       = 0
  Multiplicity = 1
  Basis Set: AUG-CC-PVQZ
    Blend: AUG-CC-PVQZ
  Basis Set: (AUG-CC-PVQZ AUX)
    Blend: AUG-CC-PVQZ-JKFIT

    Orbital Energies [Eh]
    ---------------------

    Doubly Occupied:

       1A    -20.553210     2A    -15.543128     3A    -11.243511
       4A    -11.243493     5A    -11.214280     6A    -11.213713
       7A     -1.335563     8A     -1.222675     9A     -1.024516
      10A     -0.975414    11A     -0.810697    12A     -0.783013
      13A     -0.699352    14A     -0.691427    15A     -0.661763
      16A     -0.592779    17A     -0.571996    18A     -0.561628
      19A     -0.514600    20A     -0.512587    21A     -0.497358
      22A     -0.482519    23A     -0.473968    24A     -0.459483
      25A     -0.379384

  @DF-RHF Final Energy:  -287.30409793133072

   => Energetics <=

    Nuclear Repulsion Energy =            247.9452178403209643
    One-Electron Energy =                -881.9745194812729778
    Two-Electron Energy =                 346.7252037096212689
    Total Energy =                       -287.3040979313307162

  Dipole Moment: [D]
     X:    -0.9446      Y:     0.5784      Z:     2.2680     Total:     2.5240

  Basis Set: (AUG-CC-PVQZ AUX)
    Blend: AUG-CC-PVQZ-RI
	 Reference Energy          =    -287.3040979313307162 [Eh]
	 Singles Energy            =      -0.0000000000000000 [Eh]
	 Same-Spin Energy          =      -0.3105964528253492 [Eh]
	 Opposite-Spin Energy      =      -1.1187509549726042 [Eh]
	 Correlation Energy        =      -1.4293474077979536 [Eh]
	 Total Energy              =    -288.7334453391286502 [Eh]

	 ================> DF-SCS-MP2 Energies <==================
	-----------------------------------------------------------
	 SCS Same-Spin Scale       =       0.3333333333333333 [-]
	 SCS Opposite-Spin Scale   =       1.2000000000000000 [-]
	 SCS Same-Spin Energy      =      -0.1035321509417831 [Eh]
	 SCS Opposite-Spin Energy  =      -1.3425011459671250 [Eh]
	 SCS Correlation Energy    =      -1.4460332969089080 [Eh]
	 SCS Total Energy          =    -288.7501312282396384 [Eh]
	-----------------------------------------------------------

*** Psi4 exiting successfully. Buy a developer a beer!
