                               Psi4 1.4a2.dev224

  ==> Input File <==

--------------------------------------------------------------------------
#Generated by lconvert.py for cbs job

memory 20 GB

molecule  {
0 1
  N      -2.266530    1.755160    0.352360
  C      -3.256290    0.724730    0.014240
  C      -2.422570   -0.289460   -0.775650
  C      -0.987250   -0.118690   -0.221530
  C      -1.119260    0.978990    0.839250
  H      -4.073720    1.148830   -0.565260
  H      -3.672930    0.252960    0.912840
  H      -2.802790   -1.300340   -0.649960
  H      -2.444770   -0.045290   -1.834260
  H      -0.590360   -1.037110    0.204170
  H      -0.318530    0.207680   -1.013410
  H      -1.319500    0.532970    1.821400
  H      -0.233290    1.605750    0.917350
  H      -2.617720    2.379590    1.069600
--
0 1
  O      -0.812910    3.159630   -3.845650
  H      -1.152980    3.067700   -2.936490
  H      -0.858210    4.101080   -4.018620
units angstrom
no_reorient
symmetry c1
}

set {
scf_type DF
mp2_type DF
e_convergence 7
reference rhf
}

energy('mp2/aug-cc-pv[tq]z', bsse_type='cp')
--------------------------------------------------------------------------

    Molecular point group: c1
  Charge       = 0
  Multiplicity = 1
  Basis Set: AUG-CC-PVTZ
    Blend: AUG-CC-PVTZ
  Basis Set: (AUG-CC-PVTZ AUX)
    Blend: AUG-CC-PVTZ-JKFIT
  @DF-RHF Final Energy:   -76.05966888167757
    Total Energy =                        -76.0596688816775668
  Basis Set: (AUG-CC-PVTZ AUX)
    Blend: AUG-CC-PVTZ-RI
	 Reference Energy          =     -76.0596688816775668 [Eh]
	 Singles Energy            =      -0.0000000000000000 [Eh]
	 Same-Spin Energy          =      -0.0685048819751067 [Eh]
	 Opposite-Spin Energy      =      -0.2156705600997455 [Eh]
	 Correlation Energy        =      -0.2841754420748522 [Eh]
	 Total Energy              =     -76.3438443237524211 [Eh]
	 SCS Total Energy          =     -76.3413085144556334 [Eh]
    Molecular point group: c1
  Basis Set: AUG-CC-PVQZ
    Blend: AUG-CC-PVQZ
  Basis Set: (AUG-CC-PVQZ AUX)
    Blend: AUG-CC-PVQZ-JKFIT
  @DF-RHF Final Energy:   -76.06501584144907
    Total Energy =                        -76.0650158414490676
  Basis Set: (AUG-CC-PVQZ AUX)
  @DF-RHF Final Energy:   -76.05969118259274
    Total Energy =                        -76.0596911825927435
  @DF-RHF Final Energy:   -76.06502800075066
    Total Energy =                        -76.0650280007506581
  @DF-RHF Final Energy:  -211.22283084293224
    Total Energy =                       -211.2228308429322396
  @DF-RHF Final Energy:  -211.23536373929966
    Total Energy =                       -211.2353637392996575
  @DF-RHF Final Energy:  -211.22282434825178
    Total Energy =                       -211.2228243482517769
  @DF-RHF Final Energy:  -211.23535931705055
    Total Energy =                       -211.2353593170505519
  Multiplicity = 1
  @DF-RHF Final Energy:  -287.28465907126406
    Total Energy =                       -287.2846590712640591
	 Singles Energy            =      -0.0000000000000000 [Eh]
	 Same-Spin Energy          =      -0.2931792829956982 [Eh]
	 Opposite-Spin Energy      =      -1.0013337894872447 [Eh]
	 Correlation Energy        =      -1.2945130724829430 [Eh]
	 Total Energy              =    -288.5791721437470301 [Eh]
	 SCS Total Energy          =    -288.5839860463140099 [Eh]
    Molecular point group: c1

    Geometry (in Angstrom), charge = 0, multiplicity = 1:

       Center              X                  Y                   Z               Mass
    ------------   -----------------  -----------------  -----------------  -----------------
         N           -0.488353180270     0.613971510139     1.075736465744    14.003074004430
         C           -1.478113180270    -0.416458489861     0.737616465744    12.000000000000
         C           -0.644393180270    -1.430648489861    -0.052273534256    12.000000000000
         C            0.790926819730    -1.259878489861     0.501846465744    12.000000000000
         C            0.658916819730    -0.162198489861     1.562626465744    12.000000000000
         H           -2.295543180270     0.007641510139     0.158116465744     1.007825032230
         H           -1.894753180270    -0.888228489861     1.636216465744     1.007825032230
         H           -1.024613180270    -2.441528489861     0.073416465744     1.007825032230
         H           -0.666593180270    -1.186478489861    -1.110883534256     1.007825032230
         H            1.187816819730    -2.178298489861     0.927546465744     1.007825032230
         H            1.459646819730    -0.933508489861    -0.290033534256     1.007825032230
         H            0.458676819730    -0.608218489861     2.544776465744     1.007825032230
         H            1.544886819730     0.464561510139     1.640726465744     1.007825032230
         H           -0.839543180270     1.238401510139     1.792976465744     1.007825032230
         O            0.965266819730     2.018441510139    -3.122273534256    15.994914619570
         H            0.625196819730     1.926511510139    -2.213113534256     1.007825032230
         H            0.919966819730     2.959891510139    -3.295243534256     1.007825032230

  Charge       = 0
  Multiplicity = 1
  Basis Set: AUG-CC-PVQZ
    Blend: AUG-CC-PVQZ
  Basis Set: (AUG-CC-PVQZ AUX)
    Blend: AUG-CC-PVQZ-JKFIT

    Orbital Energies [Eh]
    ---------------------

    Doubly Occupied:

       1A    -20.557509     2A    -15.540724     3A    -11.242583
       4A    -11.242565     5A    -11.214325     6A    -11.213758
       7A     -1.339578     8A     -1.220992     9A     -1.023914
      10A     -0.974592    11A     -0.809758    12A     -0.782602
      13A     -0.703126    14A     -0.690228    15A     -0.661191
      16A     -0.591810    17A     -0.575509    18A     -0.561250
      19A     -0.513674    20A     -0.511342    21A     -0.501244
      22A     -0.482022    23A     -0.473709    24A     -0.459395
      25A     -0.376884

  @DF-RHF Final Energy:  -287.30252374149325

   => Energetics <=

    Nuclear Repulsion Energy =            242.6425598484163402
    One-Electron Energy =                -871.3615944353502982
    Two-Electron Energy =                 341.4165108454407118
    Total Energy =                       -287.3025237414932462

  Dipole Moment: [D]
     X:    -0.9362      Y:     0.6423      Z:     2.2268     Total:     2.4996

  Basis Set: (AUG-CC-PVQZ AUX)
    Blend: AUG-CC-PVQZ-RI
	 Reference Energy          =    -287.3025237414932462 [Eh]
	 Singles Energy            =      -0.0000000000000000 [Eh]
	 Same-Spin Energy          =      -0.3102262449247886 [Eh]
	 Opposite-Spin Energy      =      -1.1183286352970958 [Eh]
	 Correlation Energy        =      -1.4285548802218844 [Eh]
	 Total Energy              =    -288.7310786217151417 [Eh]

	 ================> DF-SCS-MP2 Energies <==================
	-----------------------------------------------------------
	 SCS Same-Spin Scale       =       0.3333333333333333 [-]
	 SCS Opposite-Spin Scale   =       1.2000000000000000 [-]
	 SCS Same-Spin Energy      =      -0.1034087483082629 [Eh]
	 SCS Opposite-Spin Energy  =      -1.3419943623565149 [Eh]
	 SCS Correlation Energy    =      -1.4454031106647778 [Eh]
	 SCS Total Energy          =    -288.7479268521580025 [Eh]
	-----------------------------------------------------------

*** Psi4 exiting successfully. Buy a developer a beer!
