                               Psi4 1.4a2.dev224

  ==> Input File <==

--------------------------------------------------------------------------
#Generated by lconvert.py for cbs job

memory 40 GB

molecule  {
0 1
  N       -2.2665280     1.7551600     0.3523560
  C       -3.2562880     0.7247330     0.0142390
  C       -2.4225700    -0.2894620    -0.7756490
  C       -0.9872470    -0.1186910    -0.2215320
  C       -1.1192600     0.9789940     0.8392520
  H       -4.0737160     1.1488270    -0.5652640
  H       -3.6729280     0.2529640     0.9128420
  H       -2.8027860    -1.3003390    -0.6499560
  H       -2.4447730    -0.0452880    -1.8342580
  H       -0.5903580    -1.0371090     0.2041700
  H       -0.3185330     0.2076840    -1.0134090
  H       -1.3194960     0.5329730     1.8213990
  H       -0.2332930     1.6057540     0.9173520
  H       -2.6177160     2.3795850     1.0695950
--
0 1
  O       -1.5162030     2.3306550    -1.7684830
  H       -1.8562720     2.2387270    -0.8593250
  H       -1.5615070     3.2721070    -1.9414530
units angstrom
no_reorient
symmetry c1
}

set {
scf_type DF
mp2_type DF
e_convergence 7
reference rhf
}

energy('mp2/aug-cc-pv[tq]z', bsse_type='cp')
--------------------------------------------------------------------------

    Molecular point group: c1
  Charge       = 0
  Multiplicity = 1
  Basis Set: AUG-CC-PVTZ
    Blend: AUG-CC-PVTZ
  Basis Set: (AUG-CC-PVTZ AUX)
    Blend: AUG-CC-PVTZ-JKFIT
  @DF-RHF Final Energy:   -76.05966895215342
    Total Energy =                        -76.0596689521534159
  Basis Set: (AUG-CC-PVTZ AUX)
    Blend: AUG-CC-PVTZ-RI
	 Reference Energy          =     -76.0596689521534159 [Eh]
	 Singles Energy            =      -0.0000000000000000 [Eh]
	 Same-Spin Energy          =      -0.0685048846401627 [Eh]
	 Opposite-Spin Energy      =      -0.2156705647795198 [Eh]
	 Correlation Energy        =      -0.2841754494196825 [Eh]
	 Total Energy              =     -76.3438444015730937 [Eh]
	 SCS Total Energy          =     -76.3413085914355634 [Eh]
    Molecular point group: c1
  Basis Set: AUG-CC-PVQZ
    Blend: AUG-CC-PVQZ
  Basis Set: (AUG-CC-PVQZ AUX)
    Blend: AUG-CC-PVQZ-JKFIT
  @DF-RHF Final Energy:   -76.06501591233408
    Total Energy =                        -76.0650159123340757
  Basis Set: (AUG-CC-PVQZ AUX)
  @DF-RHF Final Energy:   -76.05988832233960
    Total Energy =                        -76.0598883223396030
  @DF-RHF Final Energy:   -76.06508866736374
    Total Energy =                        -76.0650886673637388
  @DF-RHF Final Energy:  -211.22298009620036
    Total Energy =                       -211.2229800962003878
  @DF-RHF Final Energy:  -211.23539357758864
    Total Energy =                       -211.2353935775886384
  @DF-RHF Final Energy:  -211.22282458074818
    Total Energy =                       -211.2228245807481812
  @DF-RHF Final Energy:  -211.23535956084942
    Total Energy =                       -211.2353595608494174
  Multiplicity = 1
  @DF-RHF Final Energy:  -287.26146295184145
    Total Energy =                       -287.2614629518414517
	 Singles Energy            =      -0.0000000000000000 [Eh]
	 Same-Spin Energy          =      -0.3013668878688393 [Eh]
	 Opposite-Spin Energy      =      -1.0112304451069050 [Eh]
	 Correlation Energy        =      -1.3125973329757443 [Eh]
	 Total Energy              =    -288.5740602848172216 [Eh]
	 SCS Total Energy          =    -288.5753951152593686 [Eh]
    Molecular point group: c1

    Geometry (in Angstrom), charge = 0, multiplicity = 1:

       Center              X                  Y                   Z               Mass
    ------------   -----------------  -----------------  -----------------  -----------------
         N           -0.346164043380     0.781568766874     0.655782006345    14.003074004430
         C           -1.335924043380    -0.248858233126     0.317665006345    12.000000000000
         C           -0.502206043380    -1.263053233126    -0.472222993655    12.000000000000
         C            0.933116956620    -1.092282233126     0.081894006345    12.000000000000
         C            0.801103956620     0.005402766874     1.142678006345    12.000000000000
         H           -2.153352043380     0.175235766874    -0.261837993655     1.007825032230
         H           -1.752564043380    -0.720627233126     1.216268006345     1.007825032230
         H           -0.882422043380    -2.273930233126    -0.346529993655     1.007825032230
         H           -0.524409043380    -1.018879233126    -1.530831993655     1.007825032230
         H            1.330005956620    -2.010700233126     0.507596006345     1.007825032230
         H            1.601830956620    -0.765907233126    -0.709982993655     1.007825032230
         H            0.600867956620    -0.440618233126     2.124825006345     1.007825032230
         H            1.687070956620     0.632162766874     1.220778006345     1.007825032230
         H           -0.697352043380     1.405993766874     1.373021006345     1.007825032230
         O            0.404160956620     1.357063766874    -1.465056993655    15.994914619570
         H            0.064091956620     1.265135766874    -0.555898993655     1.007825032230
         H            0.358856956620     2.298515766874    -1.638026993655     1.007825032230

  Charge       = 0
  Multiplicity = 1
  Basis Set: AUG-CC-PVQZ
    Blend: AUG-CC-PVQZ
  Basis Set: (AUG-CC-PVQZ AUX)
    Blend: AUG-CC-PVQZ-JKFIT

    Orbital Energies [Eh]
    ---------------------

    Doubly Occupied:

       1A    -20.476773     2A    -15.560193     3A    -11.252685
       4A    -11.252667     5A    -11.212325     6A    -11.211757
       7A     -1.297586     8A     -1.237564     9A     -1.032077
      10A     -0.984068    11A     -0.825169    12A     -0.786617
      13A     -0.731486    14A     -0.690596    15A     -0.630559
      16A     -0.605474    17A     -0.578736    18A     -0.525858
      19A     -0.525798    20A     -0.514752    21A     -0.486941
      22A     -0.474826    23A     -0.460529    24A     -0.437730
      25A     -0.388942

  @DF-RHF Final Energy:  -287.27917139041170

   => Energetics <=

    Nuclear Repulsion Energy =            274.4014011370813932
    One-Electron Energy =                -934.9977379636738988
    Two-Electron Energy =                 373.3171654361808010
    Total Energy =                       -287.2791713904117046

  Dipole Moment: [D]
     X:    -1.1976      Y:     0.0237      Z:     3.0945     Total:     3.3183

  Basis Set: (AUG-CC-PVQZ AUX)
    Blend: AUG-CC-PVQZ-RI
	 Reference Energy          =    -287.2791713904117046 [Eh]
	 Singles Energy            =      -0.0000000000000000 [Eh]
	 Same-Spin Energy          =      -0.3183886960515714 [Eh]
	 Opposite-Spin Energy      =      -1.1266352833055668 [Eh]
	 Correlation Energy        =      -1.4450239793571382 [Eh]
	 Total Energy              =    -288.7241953697688359 [Eh]

	 ================> DF-SCS-MP2 Energies <==================
	-----------------------------------------------------------
	 SCS Same-Spin Scale       =       0.3333333333333333 [-]
	 SCS Opposite-Spin Scale   =       1.2000000000000000 [-]
	 SCS Same-Spin Energy      =      -0.1061295653505238 [Eh]
	 SCS Opposite-Spin Energy  =      -1.3519623399666802 [Eh]
	 SCS Correlation Energy    =      -1.4580919053172041 [Eh]
	 SCS Total Energy          =    -288.7372632957288943 [Eh]
	-----------------------------------------------------------

*** Psi4 exiting successfully. Buy a developer a beer!
