                               Psi4 1.4a2.dev224

  ==> Input File <==

--------------------------------------------------------------------------
#Generated by lconvert.py for cbs job

memory 40 GB

molecule  {
0 1
  N       -2.2665280     1.7551600     0.3523560
  C       -3.2562880     0.7247330     0.0142390
  C       -2.4225700    -0.2894620    -0.7756490
  C       -0.9872470    -0.1186910    -0.2215320
  C       -1.1192600     0.9789940     0.8392520
  H       -4.0737160     1.1488270    -0.5652640
  H       -3.6729280     0.2529640     0.9128420
  H       -2.8027860    -1.3003390    -0.6499560
  H       -2.4447730    -0.0452880    -1.8342580
  H       -0.5903580    -1.0371090     0.2041700
  H       -0.3185330     0.2076840    -1.0134090
  H       -1.3194960     0.5329730     1.8213990
  H       -0.2332930     1.6057540     0.9173520
  H       -2.6177160     2.3795850     1.0695950
--
0 1
  O       -1.2817710     2.6069790    -2.4608720
  H       -1.6218400     2.5150510    -1.5517140
  H       -1.3270750     3.5484310    -2.6338420
units angstrom
no_reorient
symmetry c1
}

set {
scf_type DF
mp2_type DF
e_convergence 7
reference rhf
}

energy('mp2/aug-cc-pv[tq]z', bsse_type='cp')
--------------------------------------------------------------------------

    Molecular point group: c1
  Charge       = 0
  Multiplicity = 1
  Basis Set: AUG-CC-PVTZ
    Blend: AUG-CC-PVTZ
  Basis Set: (AUG-CC-PVTZ AUX)
    Blend: AUG-CC-PVTZ-JKFIT
  @DF-RHF Final Energy:   -76.05966895215153
    Total Energy =                        -76.0596689521515259
  Basis Set: (AUG-CC-PVTZ AUX)
    Blend: AUG-CC-PVTZ-RI
	 Reference Energy          =     -76.0596689521515259 [Eh]
	 Singles Energy            =      -0.0000000000000000 [Eh]
	 Same-Spin Energy          =      -0.0685048846401435 [Eh]
	 Opposite-Spin Energy      =      -0.2156705647794517 [Eh]
	 Correlation Energy        =      -0.2841754494195952 [Eh]
	 Total Energy              =     -76.3438444015711184 [Eh]
	 SCS Total Energy          =     -76.3413085914335880 [Eh]
    Molecular point group: c1
  Basis Set: AUG-CC-PVQZ
    Blend: AUG-CC-PVQZ
  Basis Set: (AUG-CC-PVQZ AUX)
    Blend: AUG-CC-PVQZ-JKFIT
  @DF-RHF Final Energy:   -76.06501591234984
    Total Energy =                        -76.0650159123498355
  Basis Set: (AUG-CC-PVQZ AUX)
  @DF-RHF Final Energy:   -76.05977115936012
    Total Energy =                        -76.0597711593601105
  @DF-RHF Final Energy:   -76.06505685927965
    Total Energy =                        -76.0650568592796503
  @DF-RHF Final Energy:  -211.22287870292513
    Total Energy =                       -211.2228787029251293
  @DF-RHF Final Energy:  -211.23537816132344
    Total Energy =                       -211.2353781613234105
  @DF-RHF Final Energy:  -211.22282458027536
    Total Energy =                       -211.2228245802753577
  @DF-RHF Final Energy:  -211.23535955788924
    Total Energy =                       -211.2353595578892396
  Multiplicity = 1
  @DF-RHF Final Energy:  -287.29026877547574
    Total Energy =                       -287.2902687754757380
	 Singles Energy            =      -0.0000000000000000 [Eh]
	 Same-Spin Energy          =      -0.2956777679287199 [Eh]
	 Opposite-Spin Energy      =      -1.0048389963339890 [Eh]
	 Correlation Energy        =      -1.3005167642627089 [Eh]
	 Total Energy              =    -288.5907855397384196 [Eh]
	 SCS Total Energy          =    -288.5946348270527437 [Eh]
    Molecular point group: c1

    Geometry (in Angstrom), charge = 0, multiplicity = 1:

       Center              X                  Y                   Z               Mass
    ------------   -----------------  -----------------  -----------------  -----------------
         N           -0.393560317320     0.725702980632     0.795765706168    14.003074004430
         C           -1.383320317320    -0.304724019368     0.457648706168    12.000000000000
         C           -0.549602317320    -1.318919019368    -0.332239293832    12.000000000000
         C            0.885720682680    -1.148148019368     0.221877706168    12.000000000000
         C            0.753707682680    -0.050463019368     1.282661706168    12.000000000000
         H           -2.200748317320     0.119369980632    -0.121854293832     1.007825032230
         H           -1.799960317320    -0.776493019368     1.356251706168     1.007825032230
         H           -0.929818317320    -2.329796019368    -0.206546293832     1.007825032230
         H           -0.571805317320    -1.074745019368    -1.390848293832     1.007825032230
         H            1.282609682680    -2.066566019368     0.647579706168     1.007825032230
         H            1.554434682680    -0.821773019368    -0.569999293832     1.007825032230
         H            0.553471682680    -0.496484019368     2.264808706168     1.007825032230
         H            1.639674682680     0.576296980632     1.360761706168     1.007825032230
         H           -0.744748317320     1.350127980632     1.513004706168     1.007825032230
         O            0.591196682680     1.577521980632    -2.017462293832    15.994914619570
         H            0.251127682680     1.485593980632    -1.108304293832     1.007825032230
         H            0.545892682680     2.518973980632    -2.190432293832     1.007825032230

  Charge       = 0
  Multiplicity = 1
  Basis Set: AUG-CC-PVQZ
    Blend: AUG-CC-PVQZ
  Basis Set: (AUG-CC-PVQZ AUX)
    Blend: AUG-CC-PVQZ-JKFIT

    Orbital Energies [Eh]
    ---------------------

    Doubly Occupied:

       1A    -20.533875     2A    -15.550557     3A    -11.246341
       4A    -11.246323     5A    -11.213364     6A    -11.212797
       7A     -1.319641     8A     -1.228851     9A     -1.026208
      10A     -0.977886    11A     -0.813927    12A     -0.783910
      13A     -0.699777    14A     -0.687094    15A     -0.657864
      16A     -0.596023    17A     -0.570212    18A     -0.551378
      19A     -0.517425    20A     -0.516597    21A     -0.483782
      22A     -0.481404    23A     -0.474163    24A     -0.458708
      25A     -0.388325

  @DF-RHF Final Energy:  -287.30808330935770

   => Energetics <=

    Nuclear Repulsion Energy =            260.0351885073408766
    One-Electron Energy =                -906.2136692648527969
    Two-Electron Energy =                 358.8703974481542218
    Total Energy =                       -287.3080833093576985

  Dipole Moment: [D]
     X:    -0.9984      Y:     0.3875      Z:     2.4662     Total:     2.6887

  Basis Set: (AUG-CC-PVQZ AUX)
    Blend: AUG-CC-PVQZ-RI
	 Reference Energy          =    -287.3080833093576985 [Eh]
	 Singles Energy            =      -0.0000000000000000 [Eh]
	 Same-Spin Energy          =      -0.3126792748473898 [Eh]
	 Opposite-Spin Energy      =      -1.1209981135842595 [Eh]
	 Correlation Energy        =      -1.4336773884316494 [Eh]
	 Total Energy              =    -288.7417606977893456 [Eh]

	 ================> DF-SCS-MP2 Energies <==================
	-----------------------------------------------------------
	 SCS Same-Spin Scale       =       0.3333333333333333 [-]
	 SCS Opposite-Spin Scale   =       1.2000000000000000 [-]
	 SCS Same-Spin Energy      =      -0.1042264249491299 [Eh]
	 SCS Opposite-Spin Energy  =      -1.3451977363011114 [Eh]
	 SCS Correlation Energy    =      -1.4494241612502414 [Eh]
	 SCS Total Energy          =    -288.7575074706079477 [Eh]
	-----------------------------------------------------------

*** Psi4 exiting successfully. Buy a developer a beer!
