                               Psi4 1.4a2.dev224

  ==> Input File <==

--------------------------------------------------------------------------
#Generated by lconvert.py for cbs job

memory 40 GB

molecule  {
0 1
  C       -3.9041850     0.4642280     0.1733950
  C       -3.1319470     1.4949930     0.7047510
  C       -1.7636760     1.5472140     0.4543840
  C       -1.1720530     0.5608840    -0.3336690
  C       -1.9331340    -0.4724600    -0.8708400
  C       -3.3009130    -0.5146670    -0.6115340
  O       -4.0168420    -1.5549100    -1.1571630
  H       -4.9690240     0.4221100     0.3693310
  H       -3.6047260     2.2534000     1.3133110
  H       -1.1656340     2.3469740     0.8669310
  H       -0.1105100     0.5937610    -0.5364240
  H       -1.4885870    -1.2407000    -1.4881610
  H       -4.9454990    -1.4310160    -0.9354470
--
0 1
  O       -2.4411370    -3.1588260    -2.7920390
  H       -2.4848730    -4.0737820    -2.5099930
  H       -3.1216570    -2.7236290    -2.2669140
units angstrom
no_reorient
symmetry c1
}

set {
scf_type DF
mp2_type DF
e_convergence 7
reference rhf
}

energy('mp2/aug-cc-pv[tq]z', bsse_type='cp')
--------------------------------------------------------------------------

    Molecular point group: c1
  Charge       = 0
  Multiplicity = 1
  Basis Set: AUG-CC-PVTZ
    Blend: AUG-CC-PVTZ
  Basis Set: (AUG-CC-PVTZ AUX)
    Blend: AUG-CC-PVTZ-JKFIT
  @DF-RHF Final Energy:   -76.06026924966247
    Total Energy =                        -76.0602692496624684
  Basis Set: (AUG-CC-PVTZ AUX)
    Blend: AUG-CC-PVTZ-RI
	 Reference Energy          =     -76.0602692496624684 [Eh]
	 Singles Energy            =      -0.0000000000000000 [Eh]
	 Same-Spin Energy          =      -0.0684134878657293 [Eh]
	 Opposite-Spin Energy      =      -0.2153847673788064 [Eh]
	 Correlation Energy        =      -0.2837982552445357 [Eh]
	 Total Energy              =     -76.3440675049070023 [Eh]
	 SCS Total Energy          =     -76.3415354664722798 [Eh]
    Molecular point group: c1
  Basis Set: AUG-CC-PVQZ
    Blend: AUG-CC-PVQZ
  Basis Set: (AUG-CC-PVQZ AUX)
    Blend: AUG-CC-PVQZ-JKFIT
  @DF-RHF Final Energy:   -76.06564449751592
    Total Energy =                        -76.0656444975159332
  Basis Set: (AUG-CC-PVQZ AUX)
  @DF-RHF Final Energy:   -76.06039423744626
    Total Energy =                        -76.0603942374462463
  @DF-RHF Final Energy:   -76.06568831950818
    Total Energy =                        -76.0656883195081832
  @DF-RHF Final Energy:  -305.67192525439475
    Total Energy =                       -305.6719252543947505
  @DF-RHF Final Energy:  -305.68996025858405
    Total Energy =                       -305.6899602585840512
  @DF-RHF Final Energy:  -305.67182860644334
    Total Energy =                       -305.6718286064433414
  @DF-RHF Final Energy:  -305.68993204256685
    Total Energy =                       -305.6899320425668520
  Multiplicity = 1
  @DF-RHF Final Energy:  -381.73464835728214
    Total Energy =                       -381.7346483572821398
	 Singles Energy            =      -0.0000000000000000 [Eh]
	 Same-Spin Energy          =      -0.3963856872476678 [Eh]
	 Opposite-Spin Energy      =      -1.2253790603607091 [Eh]
	 Correlation Energy        =      -1.6217647476083767 [Eh]
	 Total Energy              =    -383.3564131048905210 [Eh]
	 SCS Total Energy          =    -383.3372317921308650 [Eh]
    Molecular point group: c1

    Geometry (in Angstrom), charge = 0, multiplicity = 1:

       Center              X                  Y                   Z               Mass
    ------------   -----------------  -----------------  -----------------  -----------------
         C           -1.157010984692     0.841877391227     0.835560581279    12.000000000000
         C           -0.384772984692     1.872642391227     1.366916581279    12.000000000000
         C            0.983498015308     1.924863391227     1.116549581279    12.000000000000
         C            1.575121015308     0.938533391227     0.328496581279    12.000000000000
         C            0.814040015308    -0.094810608773    -0.208674418721    12.000000000000
         C           -0.553738984692    -0.137017608773     0.050631581279    12.000000000000
         O           -1.269667984692    -1.177260608773    -0.494997418721    15.994914619570
         H           -2.221849984692     0.799759391227     1.031496581279     1.007825032230
         H           -0.857551984692     2.631049391227     1.975476581279     1.007825032230
         H            1.581540015308     2.724623391227     1.529096581279     1.007825032230
         H            2.636664015308     0.971410391227     0.125741581279     1.007825032230
         H            1.258587015308    -0.863050608773    -0.825995418721     1.007825032230
         H           -2.198324984692    -1.053366608773    -0.273281418721     1.007825032230
         O            0.306037015308    -2.781176608773    -2.129873418721    15.994914619570
         H            0.262301015308    -3.696132608773    -1.847827418721     1.007825032230
         H           -0.374482984692    -2.345979608773    -1.604748418721     1.007825032230

  Charge       = 0
  Multiplicity = 1
  Basis Set: AUG-CC-PVQZ
    Blend: AUG-CC-PVQZ
  Basis Set: (AUG-CC-PVQZ AUX)
    Blend: AUG-CC-PVQZ-JKFIT

    Orbital Energies [Eh]
    ---------------------

    Doubly Occupied:

       1A    -20.606956     2A    -20.535994     3A    -11.309302
       4A    -11.245740     5A    -11.242076     6A    -11.240213
       7A    -11.231135     8A    -11.229518     9A     -1.423187
      10A     -1.326679    11A     -1.153467    12A     -1.025314
      13A     -1.012110    14A     -0.855064    15A     -0.830250
      16A     -0.744268    17A     -0.709415    18A     -0.689157
      19A     -0.654530    20A     -0.615787    21A     -0.607684
      22A     -0.596621    23A     -0.590551    24A     -0.553346
      25A     -0.522007    26A     -0.502865    27A     -0.491889
      28A     -0.482132    29A     -0.346736    30A     -0.324529

  @DF-RHF Final Energy:  -381.75804456737796

   => Energetics <=

    Nuclear Repulsion Energy =            346.4468854902156636
    One-Electron Energy =               -1207.0128103915599240
    Two-Electron Energy =                 478.8078803339662954
    Total Energy =                       -381.7580445673779650

  Dipole Moment: [D]
     X:    -2.0967      Y:     0.4459      Z:     2.2398     Total:     3.1003

  Basis Set: (AUG-CC-PVQZ AUX)
    Blend: AUG-CC-PVQZ-RI
	 Reference Energy          =    -381.7580445673779650 [Eh]
	 Singles Energy            =      -0.0000000000000000 [Eh]
	 Same-Spin Energy          =      -0.4195678785044570 [Eh]
	 Opposite-Spin Energy      =      -1.3793447344766170 [Eh]
	 Correlation Energy        =      -1.7989126129810740 [Eh]
	 Total Energy              =    -383.5569571803590634 [Eh]

	 ================> DF-SCS-MP2 Energies <==================
	-----------------------------------------------------------
	 SCS Same-Spin Scale       =       0.3333333333333333 [-]
	 SCS Opposite-Spin Scale   =       1.2000000000000000 [-]
	 SCS Same-Spin Energy      =      -0.1398559595014857 [Eh]
	 SCS Opposite-Spin Energy  =      -1.6552136813719402 [Eh]
	 SCS Correlation Energy    =      -1.7950696408734259 [Eh]
	 SCS Total Energy          =    -383.5531142082513725 [Eh]
	-----------------------------------------------------------

*** Psi4 exiting successfully. Buy a developer a beer!
