                               Psi4 1.4a2.dev224

  ==> Input File <==

--------------------------------------------------------------------------
#Generated by lconvert.py for cbs job

memory 40 GB

molecule  {
0 1
  C       -3.9041850     0.4642280     0.1733950
  C       -3.1319470     1.4949930     0.7047510
  C       -1.7636760     1.5472140     0.4543840
  C       -1.1720530     0.5608840    -0.3336690
  C       -1.9331340    -0.4724600    -0.8708400
  C       -3.3009130    -0.5146670    -0.6115340
  O       -4.0168420    -1.5549100    -1.1571630
  H       -4.9690240     0.4221100     0.3693310
  H       -3.6047260     2.2534000     1.3133110
  H       -1.1656340     2.3469740     0.8669310
  H       -0.1105100     0.5937610    -0.5364240
  H       -1.4885870    -1.2407000    -1.4881610
  H       -4.9454990    -1.4310160    -0.9354470
--
0 1
  O       -2.2919390    -3.3536130    -2.9769980
  H       -2.3356750    -4.2685690    -2.6949520
  H       -2.9724590    -2.9184160    -2.4518730
units angstrom
no_reorient
symmetry c1
}

set {
scf_type DF
mp2_type DF
e_convergence 7
reference rhf
}

energy('mp2/aug-cc-pv[tq]z', bsse_type='cp')
--------------------------------------------------------------------------

    Molecular point group: c1
  Charge       = 0
  Multiplicity = 1
  Basis Set: AUG-CC-PVTZ
    Blend: AUG-CC-PVTZ
  Basis Set: (AUG-CC-PVTZ AUX)
    Blend: AUG-CC-PVTZ-JKFIT
  @DF-RHF Final Energy:   -76.06026924965974
    Total Energy =                        -76.0602692496597399
  Basis Set: (AUG-CC-PVTZ AUX)
    Blend: AUG-CC-PVTZ-RI
	 Reference Energy          =     -76.0602692496597399 [Eh]
	 Singles Energy            =      -0.0000000000000000 [Eh]
	 Same-Spin Energy          =      -0.0684134878657214 [Eh]
	 Opposite-Spin Energy      =      -0.2153847673788017 [Eh]
	 Correlation Energy        =      -0.2837982552445231 [Eh]
	 Total Energy              =     -76.3440675049042596 [Eh]
	 SCS Total Energy          =     -76.3415354664695371 [Eh]
    Molecular point group: c1
  Basis Set: AUG-CC-PVQZ
    Blend: AUG-CC-PVQZ
  Basis Set: (AUG-CC-PVQZ AUX)
    Blend: AUG-CC-PVQZ-JKFIT
  @DF-RHF Final Energy:   -76.06564449748659
    Total Energy =                        -76.0656444974865877
  Basis Set: (AUG-CC-PVQZ AUX)
  @DF-RHF Final Energy:   -76.06036233155130
    Total Energy =                        -76.0603623315513175
  @DF-RHF Final Energy:   -76.06568046660598
    Total Energy =                        -76.0656804666059827
  @DF-RHF Final Energy:  -305.67189881378579
    Total Energy =                       -305.6718988137857878
  @DF-RHF Final Energy:  -305.68995246795055
    Total Energy =                       -305.6899524679505475
  @DF-RHF Final Energy:  -305.67182860616185
    Total Energy =                       -305.6718286061618528
  @DF-RHF Final Energy:  -305.68993203982609
    Total Energy =                       -305.6899320398260897
  Multiplicity = 1
  @DF-RHF Final Energy:  -381.73656008881824
    Total Energy =                       -381.7365600888182371
	 Singles Energy            =      -0.0000000000000000 [Eh]
	 Same-Spin Energy          =      -0.3953264397601201 [Eh]
	 Opposite-Spin Energy      =      -1.2242053987720667 [Eh]
	 Correlation Energy        =      -1.6195318385321866 [Eh]
	 Total Energy              =    -383.3560919273504055 [Eh]
	 SCS Total Energy          =    -383.3373820472647822 [Eh]
    Molecular point group: c1

    Geometry (in Angstrom), charge = 0, multiplicity = 1:

       Center              X                  Y                   Z               Mass
    ------------   -----------------  -----------------  -----------------  -----------------
         C           -1.180992082128     0.873186162298     0.865289664783    12.000000000000
         C           -0.408754082128     1.903951162298     1.396645664783    12.000000000000
         C            0.959516917872     1.956172162298     1.146278664783    12.000000000000
         C            1.551139917872     0.969842162298     0.358225664783    12.000000000000
         C            0.790058917872    -0.063501837702    -0.178945335217    12.000000000000
         C           -0.577720082128    -0.105708837702     0.080360664783    12.000000000000
         O           -1.293649082128    -1.145951837702    -0.465268335217    15.994914619570
         H           -2.245831082128     0.831068162298     1.061225664783     1.007825032230
         H           -0.881533082128     2.662358162298     2.005205664783     1.007825032230
         H            1.557558917872     2.755932162298     1.558825664783     1.007825032230
         H            2.612682917872     1.002719162298     0.155470664783     1.007825032230
         H            1.234605917872    -0.831741837702    -0.796266335217     1.007825032230
         H           -2.222306082128    -1.022057837702    -0.243552335217     1.007825032230
         O            0.431253917872    -2.944654837702    -2.285103335217    15.994914619570
         H            0.387517917872    -3.859610837702    -2.003057335217     1.007825032230
         H           -0.249266082128    -2.509457837702    -1.759978335217     1.007825032230

  Charge       = 0
  Multiplicity = 1
  Basis Set: AUG-CC-PVQZ
    Blend: AUG-CC-PVQZ
  Basis Set: (AUG-CC-PVQZ AUX)
    Blend: AUG-CC-PVQZ-JKFIT

    Orbital Energies [Eh]
    ---------------------

    Doubly Occupied:

       1A    -20.602696     2A    -20.545953     3A    -11.308115
       4A    -11.245315     5A    -11.242141     6A    -11.238917
       7A    -11.230409     8A    -11.230016     9A     -1.417126
      10A     -1.333904    11A     -1.152732    12A     -1.024886
      13A     -1.010879    14A     -0.853313    15A     -0.828699
      16A     -0.741007    17A     -0.702733    18A     -0.691252
      19A     -0.657855    20A     -0.614963    21A     -0.602829
      22A     -0.596601    23A     -0.585306    24A     -0.564171
      25A     -0.521480    26A     -0.502518    27A     -0.490645
      28A     -0.490224    29A     -0.346542    30A     -0.323147

  @DF-RHF Final Energy:  -381.75996445315138

   => Energetics <=

    Nuclear Repulsion Energy =            341.8929136279202226
    One-Electron Energy =               -1197.9130057468296400
    Two-Electron Energy =                 474.2601276657579774
    Total Energy =                       -381.7599644531513832

  Dipole Moment: [D]
     X:    -2.0681      Y:     0.3195      Z:     2.1524     Total:     3.0020

  Basis Set: (AUG-CC-PVQZ AUX)
    Blend: AUG-CC-PVQZ-RI
	 Reference Energy          =    -381.7599644531513832 [Eh]
	 Singles Energy            =      -0.0000000000000000 [Eh]
	 Same-Spin Energy          =      -0.4185058972252127 [Eh]
	 Opposite-Spin Energy      =      -1.3783575148669760 [Eh]
	 Correlation Energy        =      -1.7968634120921887 [Eh]
	 Total Energy              =    -383.5568278652435765 [Eh]

	 ================> DF-SCS-MP2 Energies <==================
	-----------------------------------------------------------
	 SCS Same-Spin Scale       =       0.3333333333333333 [-]
	 SCS Opposite-Spin Scale   =       1.2000000000000000 [-]
	 SCS Same-Spin Energy      =      -0.1395019657417376 [Eh]
	 SCS Opposite-Spin Energy  =      -1.6540290178403712 [Eh]
	 SCS Correlation Energy    =      -1.7935309835821087 [Eh]
	 SCS Total Energy          =    -383.5534954367334990 [Eh]
	-----------------------------------------------------------

*** Psi4 exiting successfully. Buy a developer a beer!
