                               Psi4 1.4a2.dev224

  ==> Input File <==

--------------------------------------------------------------------------
#Generated by lconvert.py for cbs job

memory 40 GB

molecule  {
0 1
  C       -3.9041850     0.4642280     0.1733950
  C       -3.1319470     1.4949930     0.7047510
  C       -1.7636760     1.5472140     0.4543840
  C       -1.1720530     0.5608840    -0.3336690
  C       -1.9331340    -0.4724600    -0.8708400
  C       -3.3009130    -0.5146670    -0.6115340
  O       -4.0168420    -1.5549100    -1.1571630
  H       -4.9690240     0.4221100     0.3693310
  H       -3.6047260     2.2534000     1.3133110
  H       -1.1656340     2.3469740     0.8669310
  H       -0.1105100     0.5937610    -0.5364240
  H       -1.4885870    -1.2407000    -1.4881610
  H       -4.9454990    -1.4310160    -0.9354470
--
0 1
  O       -2.6400670    -2.8991110    -2.5454280
  H       -2.6838030    -3.8140670    -2.2633820
  H       -3.3205870    -2.4639140    -2.0203030
units angstrom
no_reorient
symmetry c1
}

set {
scf_type DF
mp2_type DF
e_convergence 7
reference rhf
}

energy('mp2/aug-cc-pv[tq]z', bsse_type='cp')
--------------------------------------------------------------------------

    Molecular point group: c1
  Charge       = 0
  Multiplicity = 1
  Basis Set: AUG-CC-PVTZ
    Blend: AUG-CC-PVTZ
  Basis Set: (AUG-CC-PVTZ AUX)
    Blend: AUG-CC-PVTZ-JKFIT
  @DF-RHF Final Energy:   -76.06026924965593
    Total Energy =                        -76.0602692496559314
  Basis Set: (AUG-CC-PVTZ AUX)
    Blend: AUG-CC-PVTZ-RI
	 Reference Energy          =     -76.0602692496559314 [Eh]
	 Singles Energy            =      -0.0000000000000000 [Eh]
	 Same-Spin Energy          =      -0.0684134878657398 [Eh]
	 Opposite-Spin Energy      =      -0.2153847673788228 [Eh]
	 Correlation Energy        =      -0.2837982552445626 [Eh]
	 Total Energy              =     -76.3440675049004938 [Eh]
	 SCS Total Energy          =     -76.3415354664657713 [Eh]
    Molecular point group: c1
  Basis Set: AUG-CC-PVQZ
    Blend: AUG-CC-PVQZ
  Basis Set: (AUG-CC-PVQZ AUX)
    Blend: AUG-CC-PVQZ-JKFIT
  @DF-RHF Final Energy:   -76.06564449748890
    Total Energy =                        -76.0656444974889041
  Basis Set: (AUG-CC-PVQZ AUX)
  @DF-RHF Final Energy:   -76.06044752359544
    Total Energy =                        -76.0604475235954425
  @DF-RHF Final Energy:   -76.06570032965729
    Total Energy =                        -76.0657003296572896
  @DF-RHF Final Energy:  -305.67198698126566
    Total Energy =                       -305.6719869812656611
  @DF-RHF Final Energy:  -305.68997905526174
    Total Energy =                       -305.6899790552617446
  @DF-RHF Final Energy:  -305.67182860888130
    Total Energy =                       -305.6718286088812988
  @DF-RHF Final Energy:  -305.68993204925312
    Total Energy =                       -305.6899320492531160
  Multiplicity = 1
  @DF-RHF Final Energy:  -381.71659602549914
    Total Energy =                       -381.7165960254991433
	 Singles Energy            =      -0.0000000000000000 [Eh]
	 Same-Spin Energy          =      -0.3989318637459935 [Eh]
	 Opposite-Spin Energy      =      -1.2277955519068806 [Eh]
	 Correlation Energy        =      -1.6267274156528742 [Eh]
	 Total Energy              =    -383.3433234411519948 [Eh]
	 SCS Total Energy          =    -383.3229279757027257 [Eh]
    Molecular point group: c1

    Geometry (in Angstrom), charge = 0, multiplicity = 1:

       Center              X                  Y                   Z               Mass
    ------------   -----------------  -----------------  -----------------  -----------------
         C           -1.125036295266     0.800132523865     0.795921964006    12.000000000000
         C           -0.352798295266     1.830897523865     1.327277964006    12.000000000000
         C            1.015472704734     1.883118523865     1.076910964006    12.000000000000
         C            1.607095704734     0.896788523865     0.288857964006    12.000000000000
         C            0.846014704734    -0.136555476135    -0.248313035994    12.000000000000
         C           -0.521764295266    -0.178762476135     0.010992964006    12.000000000000
         O           -1.237693295266    -1.219005476135    -0.534636035994    15.994914619570
         H           -2.189875295266     0.758014523865     0.991857964006     1.007825032230
         H           -0.825577295266     2.589304523865     1.935837964006     1.007825032230
         H            1.613514704734     2.682878523865     1.489457964006     1.007825032230
         H            2.668638704734     0.929665523865     0.086102964006     1.007825032230
         H            1.290561704734    -0.904795476135    -0.865634035994     1.007825032230
         H           -2.166350295266    -1.095111476135    -0.312920035994     1.007825032230
         O            0.139081704734    -2.563206476135    -1.922901035994    15.994914619570
         H            0.095345704734    -3.478162476135    -1.640855035994     1.007825032230
         H           -0.541438295266    -2.128009476135    -1.397776035994     1.007825032230

  Charge       = 0
  Multiplicity = 1
  Basis Set: AUG-CC-PVQZ
    Blend: AUG-CC-PVQZ
  Basis Set: (AUG-CC-PVQZ AUX)
    Blend: AUG-CC-PVQZ-JKFIT

    Orbital Energies [Eh]
    ---------------------

    Doubly Occupied:

       1A    -20.615927     2A    -20.508457     3A    -11.312561
       4A    -11.247158     5A    -11.243690     6A    -11.242424
       7A    -11.233251     8A    -11.229303     9A     -1.441677
      10A     -1.309100    11A     -1.155784    12A     -1.026829
      13A     -1.015785    14A     -0.860712    15A     -0.835450
      16A     -0.758559    17A     -0.733949    18A     -0.687538
      19A     -0.641930    20A     -0.620793    21A     -0.618164
      22A     -0.597428    23A     -0.592735    24A     -0.529050
      25A     -0.518740    26A     -0.502626    27A     -0.495530
      28A     -0.461508    29A     -0.347702    30A     -0.328209

  @DF-RHF Final Energy:  -381.73992720555850

   => Energetics <=

    Nuclear Repulsion Energy =            353.7391154884904267
    One-Electron Energy =               -1221.5329447489248196
    Two-Electron Energy =                 486.0539020548759481
    Total Energy =                       -381.7399272055585016

  Dipole Moment: [D]
     X:    -2.2141      Y:     0.7876      Z:     2.4880     Total:     3.4224

  Basis Set: (AUG-CC-PVQZ AUX)
    Blend: AUG-CC-PVQZ-RI
	 Reference Energy          =    -381.7399272055585016 [Eh]
	 Singles Energy            =      -0.0000000000000000 [Eh]
	 Same-Spin Energy          =      -0.4221928168393467 [Eh]
	 Opposite-Spin Energy      =      -1.3817463631056479 [Eh]
	 Correlation Energy        =      -1.8039391799449946 [Eh]
	 Total Energy              =    -383.5438663855035202 [Eh]

	 ================> DF-SCS-MP2 Energies <==================
	-----------------------------------------------------------
	 SCS Same-Spin Scale       =       0.3333333333333333 [-]
	 SCS Opposite-Spin Scale   =       1.2000000000000000 [-]
	 SCS Same-Spin Energy      =      -0.1407309389464489 [Eh]
	 SCS Opposite-Spin Energy  =      -1.6580956357267775 [Eh]
	 SCS Correlation Energy    =      -1.7988265746732264 [Eh]
	 SCS Total Energy          =    -383.5387537802317297 [Eh]
	-----------------------------------------------------------

*** Psi4 exiting successfully. Buy a developer a beer!
