                               Psi4 1.4a2.dev224

  ==> Input File <==

--------------------------------------------------------------------------
#Generated by lconvert.py for cbs job

memory 20 GB

molecule  {
0 1
  C      -3.904190    0.464230    0.173390
  C      -3.131950    1.494990    0.704750
  C      -1.763680    1.547210    0.454380
  C      -1.172050    0.560880   -0.333670
  C      -1.933130   -0.472460   -0.870840
  C      -3.300910   -0.514670   -0.611530
  O      -4.016840   -1.554910   -1.157160
  H      -4.969020    0.422110    0.369330
  H      -3.604730    2.253400    1.313310
  H      -1.165630    2.346970    0.866930
  H      -0.110510    0.593760   -0.536420
  H      -1.488590   -1.240700   -1.488160
  H      -4.945500   -1.431020   -0.935450
--
0 1
  O      -1.744880   -4.067830   -3.655180
  H      -1.788620   -4.982790   -3.373130
  H      -2.425400   -3.632640   -3.130060
units angstrom
no_reorient
symmetry c1
}

set {
scf_type DF
mp2_type DF
e_convergence 7
reference rhf
}

energy('mp2/aug-cc-pv[tq]z', bsse_type='cp')
--------------------------------------------------------------------------

    Molecular point group: c1
  Charge       = 0
  Multiplicity = 1
  Basis Set: AUG-CC-PVTZ
    Blend: AUG-CC-PVTZ
  Basis Set: (AUG-CC-PVTZ AUX)
    Blend: AUG-CC-PVTZ-JKFIT
  @DF-RHF Final Energy:   -76.06026928331056
    Total Energy =                        -76.0602692833105607
  Basis Set: (AUG-CC-PVTZ AUX)
    Blend: AUG-CC-PVTZ-RI
	 Reference Energy          =     -76.0602692833105607 [Eh]
	 Singles Energy            =      -0.0000000000000000 [Eh]
	 Same-Spin Energy          =      -0.0684134926645628 [Eh]
	 Opposite-Spin Energy      =      -0.2153847769387160 [Eh]
	 Correlation Energy        =      -0.2837982696032788 [Eh]
	 Total Energy              =     -76.3440675529138417 [Eh]
	 SCS Total Energy          =     -76.3415355131918716 [Eh]
    Molecular point group: c1
  Basis Set: AUG-CC-PVQZ
    Blend: AUG-CC-PVQZ
  Basis Set: (AUG-CC-PVQZ AUX)
    Blend: AUG-CC-PVQZ-JKFIT
  @DF-RHF Final Energy:   -76.06564453325964
    Total Energy =                        -76.0656445332596576
  Basis Set: (AUG-CC-PVQZ AUX)
  @DF-RHF Final Energy:   -76.06029737769775
    Total Energy =                        -76.0602973776977365
  @DF-RHF Final Energy:   -76.06565767358666
    Total Energy =                        -76.0656576735866565
  @DF-RHF Final Energy:  -305.67184773762455
    Total Energy =                       -305.6718477376245460
  @DF-RHF Final Energy:  -305.68993844690578
    Total Energy =                       -305.6899384469057850
  @DF-RHF Final Energy:  -305.67182876161291
    Total Energy =                       -305.6718287616129146
  @DF-RHF Final Energy:  -305.68993220434737
    Total Energy =                       -305.6899322043473717
  Multiplicity = 1
  @DF-RHF Final Energy:  -381.73407125752306
    Total Energy =                       -381.7340712575230555
	 Singles Energy            =      -0.0000000000000000 [Eh]
	 Same-Spin Energy          =      -0.3939812778333495 [Eh]
	 Opposite-Spin Energy      =      -1.2222216510051547 [Eh]
	 Correlation Energy        =      -1.6162029288385042 [Eh]
	 Total Energy              =    -383.3502741863615597 [Eh]
	 SCS Total Energy          =    -383.3320643313403480 [Eh]
    Molecular point group: c1

    Geometry (in Angstrom), charge = 0, multiplicity = 1:

       Center              X                  Y                   Z               Mass
    ------------   -----------------  -----------------  -----------------  -----------------
         C           -1.268927754477     0.987988133090     0.974291482969    12.000000000000
         C           -0.496687754477     2.018748133090     1.505651482969    12.000000000000
         C            0.871582245523     2.070968133090     1.255281482969    12.000000000000
         C            1.463212245523     1.084638133090     0.467231482969    12.000000000000
         C            0.702132245523     0.051298133090    -0.069938517031    12.000000000000
         C           -0.665647754477     0.009088133090     0.189371482969    12.000000000000
         O           -1.381577754477    -1.031151866910    -0.356258517031    15.994914619570
         H           -2.333757754477     0.945868133090     1.170231482969     1.007825032230
         H           -0.969467754477     2.777158133090     2.114211482969     1.007825032230
         H            1.469632245523     2.870728133090     1.667831482969     1.007825032230
         H            2.524752245523     1.117518133090     0.264481482969     1.007825032230
         H            1.146672245523    -0.716941866910    -0.687258517031     1.007825032230
         H           -2.310237754477    -0.907261866910    -0.134548517031     1.007825032230
         O            0.890382245523    -3.544071866910    -2.854278517031    15.994914619570
         H            0.846642245523    -4.459031866910    -2.572228517031     1.007825032230
         H            0.209862245523    -3.108881866910    -2.329158517031     1.007825032230

  Charge       = 0
  Multiplicity = 1
  Basis Set: AUG-CC-PVQZ
    Blend: AUG-CC-PVQZ
  Basis Set: (AUG-CC-PVQZ AUX)
    Blend: AUG-CC-PVQZ-JKFIT

    Orbital Energies [Eh]
    ---------------------

    Doubly Occupied:

       1A    -20.595098     2A    -20.558177     3A    -11.306351
       4A    -11.244720     5A    -11.242321     6A    -11.237003
       7A    -11.230842     8A    -11.229370     9A     -1.408975
      10A     -1.344148    11A     -1.151729    12A     -1.024327
      13A     -1.009165    14A     -0.851070    15A     -0.826753
      16A     -0.736981    17A     -0.707040    18A     -0.690338
      19A     -0.656879    20A     -0.613954    21A     -0.596371
      22A     -0.595664    23A     -0.578930    24A     -0.575088
      25A     -0.520183    26A     -0.503532    27A     -0.499442
      28A     -0.488263    29A     -0.346359    30A     -0.321062

  @DF-RHF Final Energy:  -381.75751467708113

   => Energetics <=

    Nuclear Repulsion Energy =            329.4890684941400423
    One-Electron Energy =               -1173.1128920656249193
    Two-Electron Energy =                 461.8663088944037440
    Total Energy =                       -381.7575146770811330

  Dipole Moment: [D]
     X:    -2.0866      Y:     0.1442      Z:     2.0526     Total:     2.9305

  Basis Set: (AUG-CC-PVQZ AUX)
    Blend: AUG-CC-PVQZ-RI
	 Reference Energy          =    -381.7575146770811330 [Eh]
	 Singles Energy            =      -0.0000000000000000 [Eh]
	 Same-Spin Energy          =      -0.4171821465290516 [Eh]
	 Opposite-Spin Energy      =      -1.3769872267748022 [Eh]
	 Correlation Energy        =      -1.7941693733038537 [Eh]
	 Total Energy              =    -383.5516840503850062 [Eh]

	 ================> DF-SCS-MP2 Energies <==================
	-----------------------------------------------------------
	 SCS Same-Spin Scale       =       0.3333333333333333 [-]
	 SCS Opposite-Spin Scale   =       1.2000000000000000 [-]
	 SCS Same-Spin Energy      =      -0.1390607155096839 [Eh]
	 SCS Opposite-Spin Energy  =      -1.6523846721297626 [Eh]
	 SCS Correlation Energy    =      -1.7914453876394465 [Eh]
	 SCS Total Energy          =    -383.5489600647205748 [Eh]
	-----------------------------------------------------------

*** Psi4 exiting successfully. Buy a developer a beer!
