                               Psi4 1.4a2.dev224

  ==> Input File <==

--------------------------------------------------------------------------
#Generated by lconvert.py for cbs job

memory 40 GB

molecule  {
0 1
  C       -3.9041850     0.4642280     0.1733950
  C       -3.1319470     1.4949930     0.7047510
  C       -1.7636760     1.5472140     0.4543840
  C       -1.1720530     0.5608840    -0.3336690
  C       -1.9331340    -0.4724600    -0.8708400
  C       -3.3009130    -0.5146670    -0.6115340
  O       -4.0168420    -1.5549100    -1.1571630
  H       -4.9690240     0.4221100     0.3693310
  H       -3.6047260     2.2534000     1.3133110
  H       -1.1656340     2.3469740     0.8669310
  H       -0.1105100     0.5937610    -0.5364240
  H       -1.4885870    -1.2407000    -1.4881610
  H       -4.9454990    -1.4310160    -0.9354470
--
0 1
  O       -2.2422070    -3.4185420    -3.0386510
  H       -2.2859430    -4.3334980    -2.7566050
  H       -2.9227270    -2.9833450    -2.5135260
units angstrom
no_reorient
symmetry c1
}

set {
scf_type DF
mp2_type DF
e_convergence 7
reference rhf
}

energy('mp2/aug-cc-pv[tq]z', bsse_type='cp')
--------------------------------------------------------------------------

    Molecular point group: c1
  Charge       = 0
  Multiplicity = 1
  Basis Set: AUG-CC-PVTZ
    Blend: AUG-CC-PVTZ
  Basis Set: (AUG-CC-PVTZ AUX)
    Blend: AUG-CC-PVTZ-JKFIT
  @DF-RHF Final Energy:   -76.06026924966899
    Total Energy =                        -76.0602692496689912
  Basis Set: (AUG-CC-PVTZ AUX)
    Blend: AUG-CC-PVTZ-RI
	 Reference Energy          =     -76.0602692496689912 [Eh]
	 Singles Energy            =      -0.0000000000000000 [Eh]
	 Same-Spin Energy          =      -0.0684134878657078 [Eh]
	 Opposite-Spin Energy      =      -0.2153847673787807 [Eh]
	 Correlation Energy        =      -0.2837982552444884 [Eh]
	 Total Energy              =     -76.3440675049134825 [Eh]
	 SCS Total Energy          =     -76.3415354664787600 [Eh]
    Molecular point group: c1
  Basis Set: AUG-CC-PVQZ
    Blend: AUG-CC-PVQZ
  Basis Set: (AUG-CC-PVQZ AUX)
    Blend: AUG-CC-PVQZ-JKFIT
  @DF-RHF Final Energy:   -76.06564449749114
    Total Energy =                        -76.0656444974911210
  Basis Set: (AUG-CC-PVQZ AUX)
  @DF-RHF Final Energy:   -76.06035360010880
    Total Energy =                        -76.0603536001087974
  @DF-RHF Final Energy:   -76.06567776107828
    Total Energy =                        -76.0656777610782768
  @DF-RHF Final Energy:  -305.67189516003890
    Total Energy =                       -305.6718951600389005
  @DF-RHF Final Energy:  -305.68995053962840
    Total Energy =                       -305.6899505396283985
  @DF-RHF Final Energy:  -305.67182861799893
    Total Energy =                       -305.6718286179989263
  @DF-RHF Final Energy:  -305.68993204389523
    Total Energy =                       -305.6899320438952259
  Multiplicity = 1
  @DF-RHF Final Energy:  -381.73654661017133
    Total Energy =                       -381.7365466101713309
	 Singles Energy            =      -0.0000000000000000 [Eh]
	 Same-Spin Energy          =      -0.3950803864463004 [Eh]
	 Opposite-Spin Energy      =      -1.2239058412580033 [Eh]
	 Correlation Energy        =      -1.6189862277043037 [Eh]
	 Total Energy              =    -383.3555328378756144 [Eh]
	 SCS Total Energy          =    -383.3369270818296854 [Eh]
    Molecular point group: c1

    Geometry (in Angstrom), charge = 0, multiplicity = 1:

       Center              X                  Y                   Z               Mass
    ------------   -----------------  -----------------  -----------------  -----------------
         C           -1.188985674118     0.883622419322     0.875199359285    12.000000000000
         C           -0.416747674118     1.914387419322     1.406555359285    12.000000000000
         C            0.951523325882     1.966608419322     1.156188359285    12.000000000000
         C            1.543146325882     0.980278419322     0.368135359285    12.000000000000
         C            0.782065325882    -0.053065580678    -0.169035640715    12.000000000000
         C           -0.585713674118    -0.095272580678     0.090270359285    12.000000000000
         O           -1.301642674118    -1.135515580678    -0.455358640715    15.994914619570
         H           -2.253824674118     0.841504419322     1.071135359285     1.007825032230
         H           -0.889526674118     2.672794419322     2.015115359285     1.007825032230
         H            1.549565325882     2.766368419322     1.568735359285     1.007825032230
         H            2.604689325882     1.013155419322     0.165380359285     1.007825032230
         H            1.226612325882    -0.821305580678    -0.786356640715     1.007825032230
         H           -2.230299674118    -1.011621580678    -0.233642640715     1.007825032230
         O            0.472992325882    -2.999147580678    -2.336846640715    15.994914619570
         H            0.429256325882    -3.914103580678    -2.054800640715     1.007825032230
         H           -0.207527674118    -2.563950580678    -1.811721640715     1.007825032230

  Charge       = 0
  Multiplicity = 1
  Basis Set: AUG-CC-PVQZ
    Blend: AUG-CC-PVQZ
  Basis Set: (AUG-CC-PVQZ AUX)
    Blend: AUG-CC-PVQZ-JKFIT

    Orbital Energies [Eh]
    ---------------------

    Doubly Occupied:

       1A    -20.601579     2A    -20.548170     3A    -11.307843
       4A    -11.245228     5A    -11.242177     6A    -11.238616
       7A    -11.230260     8A    -11.230159     9A     -1.415759
      10A     -1.335618    11A     -1.152575    12A     -1.024802
      13A     -1.010604    14A     -0.852933    15A     -0.828367
      16A     -0.740313    17A     -0.702250    18A     -0.691524
      19A     -0.658150    20A     -0.614794    21A     -0.601694
      22A     -0.596559    23A     -0.583856    24A     -0.566618
      25A     -0.521315    26A     -0.502411    27A     -0.492361
      28A     -0.490093    29A     -0.346516    30A     -0.322824

  @DF-RHF Final Energy:  -381.75994695149996

   => Energetics <=

    Nuclear Repulsion Energy =            340.5130959155578694
    One-Electron Energy =               -1195.1541455012904862
    Two-Electron Energy =                 472.8811026342326613
    Total Energy =                       -381.7599469514999555

  Dipole Moment: [D]
     X:    -2.0648      Y:     0.2907      Z:     2.1336     Total:     2.9833

  Basis Set: (AUG-CC-PVQZ AUX)
    Blend: AUG-CC-PVQZ-RI
	 Reference Energy          =    -381.7599469514999555 [Eh]
	 Singles Energy            =      -0.0000000000000000 [Eh]
	 Same-Spin Energy          =      -0.4182603861540067 [Eh]
	 Opposite-Spin Energy      =      -1.3781183934588950 [Eh]
	 Correlation Energy        =      -1.7963787796129016 [Eh]
	 Total Energy              =    -383.5563257311128496 [Eh]

	 ================> DF-SCS-MP2 Energies <==================
	-----------------------------------------------------------
	 SCS Same-Spin Scale       =       0.3333333333333333 [-]
	 SCS Opposite-Spin Scale   =       1.2000000000000000 [-]
	 SCS Same-Spin Energy      =      -0.1394201287180022 [Eh]
	 SCS Opposite-Spin Energy  =      -1.6537420721506739 [Eh]
	 SCS Correlation Energy    =      -1.7931622008686761 [Eh]
	 SCS Total Energy          =    -383.5531091523686200 [Eh]
	-----------------------------------------------------------

*** Psi4 exiting successfully. Buy a developer a beer!
