                               Psi4 1.4a2.dev224

  ==> Input File <==

--------------------------------------------------------------------------
#Generated by lconvert.py for cbs job

memory 40 GB

molecule  {
0 1
  C       -3.9041850     0.4642280     0.1733950
  C       -3.1319470     1.4949930     0.7047510
  C       -1.7636760     1.5472140     0.4543840
  C       -1.1720530     0.5608840    -0.3336690
  C       -1.9331340    -0.4724600    -0.8708400
  C       -3.3009130    -0.5146670    -0.6115340
  O       -4.0168420    -1.5549100    -1.1571630
  H       -4.9690240     0.4221100     0.3693310
  H       -3.6047260     2.2534000     1.3133110
  H       -1.1656340     2.3469740     0.8669310
  H       -0.1105100     0.5937610    -0.5364240
  H       -1.4885870    -1.2407000    -1.4881610
  H       -4.9454990    -1.4310160    -0.9354470
--
0 1
  O       -2.3914050    -3.2237550    -2.8536920
  H       -2.4351410    -4.1387110    -2.5716460
  H       -3.0719250    -2.7885580    -2.3285670
units angstrom
no_reorient
symmetry c1
}

set {
scf_type DF
mp2_type DF
e_convergence 7
reference rhf
}

energy('mp2/aug-cc-pv[tq]z', bsse_type='cp')
--------------------------------------------------------------------------

    Molecular point group: c1
  Charge       = 0
  Multiplicity = 1
  Basis Set: AUG-CC-PVTZ
    Blend: AUG-CC-PVTZ
  Basis Set: (AUG-CC-PVTZ AUX)
    Blend: AUG-CC-PVTZ-JKFIT
  @DF-RHF Final Energy:   -76.06026924965080
    Total Energy =                        -76.0602692496508013
  Basis Set: (AUG-CC-PVTZ AUX)
    Blend: AUG-CC-PVTZ-RI
	 Reference Energy          =     -76.0602692496508013 [Eh]
	 Singles Energy            =      -0.0000000000000000 [Eh]
	 Same-Spin Energy          =      -0.0684134878657298 [Eh]
	 Opposite-Spin Energy      =      -0.2153847673788177 [Eh]
	 Correlation Energy        =      -0.2837982552445475 [Eh]
	 Total Energy              =     -76.3440675048953494 [Eh]
	 SCS Total Energy          =     -76.3415354664606269 [Eh]
    Molecular point group: c1
  Basis Set: AUG-CC-PVQZ
    Blend: AUG-CC-PVQZ
  Basis Set: (AUG-CC-PVQZ AUX)
    Blend: AUG-CC-PVQZ-JKFIT
  @DF-RHF Final Energy:   -76.06564449750476
    Total Energy =                        -76.0656444975047776
  Basis Set: (AUG-CC-PVQZ AUX)
  @DF-RHF Final Energy:   -76.06038234914112
    Total Energy =                        -76.0603823491411362
  @DF-RHF Final Energy:   -76.06568583626168
    Total Energy =                        -76.0656858362616788
  @DF-RHF Final Energy:  -305.67191258791036
    Total Energy =                       -305.6719125879103558
  @DF-RHF Final Energy:  -305.68995671531962
    Total Energy =                       -305.6899567153196244
  @DF-RHF Final Energy:  -305.67182860698347
    Total Energy =                       -305.6718286069834676
  @DF-RHF Final Energy:  -305.68993204585075
    Total Energy =                       -305.6899320458507532
  Multiplicity = 1
  @DF-RHF Final Energy:  -381.73577148396248
    Total Energy =                       -381.7357714839624805
	 Singles Energy            =      -0.0000000000000000 [Eh]
	 Same-Spin Energy          =      -0.3959696055078721 [Eh]
	 Opposite-Spin Energy      =      -1.2249336863290652 [Eh]
	 Correlation Energy        =      -1.6209032918369373 [Eh]
	 Total Energy              =    -383.3566747757994335 [Eh]
	 SCS Total Energy          =    -383.3376817760599806 [Eh]
    Molecular point group: c1

    Geometry (in Angstrom), charge = 0, multiplicity = 1:

       Center              X                  Y                   Z               Mass
    ------------   -----------------  -----------------  -----------------  -----------------
         C           -1.165004576682     0.852313648251     0.845470275780    12.000000000000
         C           -0.392766576682     1.883078648251     1.376826275780    12.000000000000
         C            0.975504423318     1.935299648251     1.126459275780    12.000000000000
         C            1.567127423318     0.948969648251     0.338406275780    12.000000000000
         C            0.806046423318    -0.084374351749    -0.198764724220    12.000000000000
         C           -0.561732576682    -0.126581351749     0.060541275780    12.000000000000
         O           -1.277661576682    -1.166824351749    -0.485087724220    15.994914619570
         H           -2.229843576682     0.810195648251     1.041406275780     1.007825032230
         H           -0.865545576682     2.641485648251     1.985386275780     1.007825032230
         H            1.573546423318     2.735059648251     1.539006275780     1.007825032230
         H            2.628670423318     0.981846648251     0.135651275780     1.007825032230
         H            1.250593423318    -0.852614351749    -0.816085724220     1.007825032230
         H           -2.206318576682    -1.042930351749    -0.263371724220     1.007825032230
         O            0.347775423318    -2.835669351749    -2.181616724220    15.994914619570
         H            0.304039423318    -3.750625351749    -1.899570724220     1.007825032230
         H           -0.332744576682    -2.400472351749    -1.656491724220     1.007825032230

  Charge       = 0
  Multiplicity = 1
  Basis Set: AUG-CC-PVQZ
    Blend: AUG-CC-PVQZ
  Basis Set: (AUG-CC-PVQZ AUX)
    Blend: AUG-CC-PVQZ-JKFIT

    Orbital Energies [Eh]
    ---------------------

    Doubly Occupied:

       1A    -20.605361     2A    -20.539998     3A    -11.308829
       4A    -11.245563     5A    -11.242084     6A    -11.239699
       7A    -11.230841     8A    -11.229681     9A     -1.420745
      10A     -1.329504    11A     -1.153164    12A     -1.025132
      13A     -1.011612    14A     -0.854347    15A     -0.829611
      16A     -0.742912    17A     -0.706144    18A     -0.689979
      19A     -0.656186    20A     -0.615441    21A     -0.605766
      22A     -0.596651    23A     -0.588693    24A     -0.557652
      25A     -0.521834    26A     -0.502751    27A     -0.491329
      28A     -0.485388    29A     -0.346644    30A     -0.323982

  @DF-RHF Final Energy:  -381.75917731736439

   => Energetics <=

    Nuclear Repulsion Energy =            344.8542087662236213
    One-Electron Energy =               -1203.8317253472287121
    Two-Electron Energy =                 477.2183392636407575
    Total Energy =                       -381.7591773173643901

  Dipole Moment: [D]
     X:    -2.0832      Y:     0.3955      Z:     2.2043     Total:     3.0586

  Basis Set: (AUG-CC-PVQZ AUX)
    Blend: AUG-CC-PVQZ-RI
	 Reference Energy          =    -381.7591773173643901 [Eh]
	 Singles Energy            =      -0.0000000000000000 [Eh]
	 Same-Spin Energy          =      -0.4191491201166336 [Eh]
	 Opposite-Spin Energy      =      -1.3789611767549137 [Eh]
	 Correlation Energy        =      -1.7981102968715472 [Eh]
	 Total Energy              =    -383.5572876142359178 [Eh]

	 ================> DF-SCS-MP2 Energies <==================
	-----------------------------------------------------------
	 SCS Same-Spin Scale       =       0.3333333333333333 [-]
	 SCS Opposite-Spin Scale   =       1.2000000000000000 [-]
	 SCS Same-Spin Energy      =      -0.1397163733722112 [Eh]
	 SCS Opposite-Spin Energy  =      -1.6547534121058964 [Eh]
	 SCS Correlation Energy    =      -1.7944697854781075 [Eh]
	 SCS Total Energy          =    -383.5536471028424899 [Eh]
	-----------------------------------------------------------

*** Psi4 exiting successfully. Buy a developer a beer!
