                               Psi4 1.4a2.dev224

  ==> Input File <==

--------------------------------------------------------------------------
#Generated by lconvert.py for cbs job

memory 40 GB

molecule  {
0 1
  C       -3.9041850     0.4642280     0.1733950
  C       -3.1319470     1.4949930     0.7047510
  C       -1.7636760     1.5472140     0.4543840
  C       -1.1720530     0.5608840    -0.3336690
  C       -1.9331340    -0.4724600    -0.8708400
  C       -3.3009130    -0.5146670    -0.6115340
  O       -4.0168420    -1.5549100    -1.1571630
  H       -4.9690240     0.4221100     0.3693310
  H       -3.6047260     2.2534000     1.3133110
  H       -1.1656340     2.3469740     0.8669310
  H       -0.1105100     0.5937610    -0.5364240
  H       -1.4885870    -1.2407000    -1.4881610
  H       -4.9454990    -1.4310160    -0.9354470
--
0 1
  O       -2.5406020    -3.0289690    -2.6687340
  H       -2.5843380    -3.9439250    -2.3866880
  H       -3.2211220    -2.5937720    -2.1436090
units angstrom
no_reorient
symmetry c1
}

set {
scf_type DF
mp2_type DF
e_convergence 7
reference rhf
}

energy('mp2/aug-cc-pv[tq]z', bsse_type='cp')
--------------------------------------------------------------------------

    Molecular point group: c1
  Charge       = 0
  Multiplicity = 1
  Basis Set: AUG-CC-PVTZ
    Blend: AUG-CC-PVTZ
  Basis Set: (AUG-CC-PVTZ AUX)
    Blend: AUG-CC-PVTZ-JKFIT
  @DF-RHF Final Energy:   -76.06026924966152
    Total Energy =                        -76.0602692496615163
  Basis Set: (AUG-CC-PVTZ AUX)
    Blend: AUG-CC-PVTZ-RI
	 Reference Energy          =     -76.0602692496615163 [Eh]
	 Singles Energy            =      -0.0000000000000000 [Eh]
	 Same-Spin Energy          =      -0.0684134878656972 [Eh]
	 Opposite-Spin Energy      =      -0.2153847673787859 [Eh]
	 Correlation Energy        =      -0.2837982552444832 [Eh]
	 Total Energy              =     -76.3440675049059934 [Eh]
	 SCS Total Energy          =     -76.3415354664712851 [Eh]
    Molecular point group: c1
  Basis Set: AUG-CC-PVQZ
    Blend: AUG-CC-PVQZ
  Basis Set: (AUG-CC-PVQZ AUX)
    Blend: AUG-CC-PVQZ-JKFIT
  @DF-RHF Final Energy:   -76.06564449748991
    Total Energy =                        -76.0656444974899131
  Basis Set: (AUG-CC-PVQZ AUX)
  @DF-RHF Final Energy:   -76.06041986955553
    Total Energy =                        -76.0604198695555169
  @DF-RHF Final Energy:   -76.06569338932454
    Total Energy =                        -76.0656933893245224
  @DF-RHF Final Energy:  -305.67195510641835
    Total Energy =                       -305.6719551064183520
  @DF-RHF Final Energy:  -305.68997075425932
    Total Energy =                       -305.6899707542593205
  @DF-RHF Final Energy:  -305.67182860922730
    Total Energy =                       -305.6718286092273047
  @DF-RHF Final Energy:  -305.68993204447031
    Total Energy =                       -305.6899320444703108
  Multiplicity = 1
  @DF-RHF Final Energy:  -381.72947633461399
    Total Energy =                       -381.7294763346139916
	 Singles Energy            =      -0.0000000000000000 [Eh]
	 Same-Spin Energy          =      -0.3974586660415507 [Eh]
	 Opposite-Spin Energy      =      -1.2264562777134331 [Eh]
	 Correlation Energy        =      -1.6239149437549838 [Eh]
	 Total Energy              =    -383.3533912783689743 [Eh]
	 SCS Total Energy          =    -383.3337100898839367 [Eh]
    Molecular point group: c1

    Geometry (in Angstrom), charge = 0, multiplicity = 1:

       Center              X                  Y                   Z               Mass
    ------------   -----------------  -----------------  -----------------  -----------------
         C           -1.141023639979     0.821005037913     0.815741353009    12.000000000000
         C           -0.368785639979     1.851770037913     1.347097353009    12.000000000000
         C            0.999485360021     1.903991037913     1.096730353009    12.000000000000
         C            1.591108360021     0.917661037913     0.308677353009    12.000000000000
         C            0.830027360021    -0.115682962087    -0.228493646991    12.000000000000
         C           -0.537751639979    -0.157889962087     0.030812353009    12.000000000000
         O           -1.253680639979    -1.198132962087    -0.514816646991    15.994914619570
         H           -2.205862639979     0.778887037913     1.011677353009     1.007825032230
         H           -0.841564639979     2.610177037913     1.955657353009     1.007825032230
         H            1.597527360021     2.703751037913     1.509277353009     1.007825032230
         H            2.652651360021     0.950538037913     0.105922353009     1.007825032230
         H            1.274574360021    -0.883922962087    -0.845814646991     1.007825032230
         H           -2.182337639979    -1.074238962087    -0.293100646991     1.007825032230
         O            0.222559360021    -2.672191962087    -2.026387646991    15.994914619570
         H            0.178823360021    -3.587147962087    -1.744341646991     1.007825032230
         H           -0.457960639979    -2.236994962087    -1.501262646991     1.007825032230

  Charge       = 0
  Multiplicity = 1
  Basis Set: AUG-CC-PVQZ
    Blend: AUG-CC-PVQZ
  Basis Set: (AUG-CC-PVQZ AUX)
    Blend: AUG-CC-PVQZ-JKFIT

    Orbital Energies [Eh]
    ---------------------

    Doubly Occupied:

       1A    -20.610833     2A    -20.525020     3A    -11.310597
       4A    -11.246270     5A    -11.242148     6A    -11.241603
       7A    -11.231960     8A    -11.229278     9A     -1.430120
      10A     -1.319342    11A     -1.154346    12A     -1.025874
      13A     -1.013518    14A     -0.857148    15A     -0.832135
      16A     -0.748600    17A     -0.719736    18A     -0.687831
      19A     -0.649093    20A     -0.616831    21A     -0.612821
      22A     -0.596192    23A     -0.594077    24A     -0.542007
      25A     -0.522134    26A     -0.503029    27A     -0.493382
      28A     -0.473598    29A     -0.347066    30A     -0.326004

  @DF-RHF Final Energy:  -381.75283674732373

   => Energetics <=

    Nuclear Repulsion Energy =            349.8906677062003610
    One-Electron Energy =               -1213.8818176799645698
    Two-Electron Energy =                 482.2383132264404821
    Total Energy =                       -381.7528367473237267

  Dipole Moment: [D]
     X:    -2.1404      Y:     0.5830      Z:     2.3385     Total:     3.2233

  Basis Set: (AUG-CC-PVQZ AUX)
    Blend: AUG-CC-PVQZ-RI
	 Reference Energy          =    -381.7528367473237267 [Eh]
	 Singles Energy            =      -0.0000000000000000 [Eh]
	 Same-Spin Energy          =      -0.4206635805610179 [Eh]
	 Opposite-Spin Energy      =      -1.3803434341047951 [Eh]
	 Correlation Energy        =      -1.8010070146658130 [Eh]
	 Total Energy              =    -383.5538437619895262 [Eh]

	 ================> DF-SCS-MP2 Energies <==================
	-----------------------------------------------------------
	 SCS Same-Spin Scale       =       0.3333333333333333 [-]
	 SCS Opposite-Spin Scale   =       1.2000000000000000 [-]
	 SCS Same-Spin Energy      =      -0.1402211935203393 [Eh]
	 SCS Opposite-Spin Energy  =      -1.6564121209257541 [Eh]
	 SCS Correlation Energy    =      -1.7966333144460933 [Eh]
	 SCS Total Energy          =    -383.5494700617697958 [Eh]
	-----------------------------------------------------------

*** Psi4 exiting successfully. Buy a developer a beer!
