                               Psi4 1.4a2.dev224

  ==> Input File <==

--------------------------------------------------------------------------
#Generated by lconvert.py for cbs job

memory 40 GB

molecule  {
0 1
  C       -3.9041850     0.4642280     0.1733950
  C       -3.1319470     1.4949930     0.7047510
  C       -1.7636760     1.5472140     0.4543840
  C       -1.1720530     0.5608840    -0.3336690
  C       -1.9331340    -0.4724600    -0.8708400
  C       -3.3009130    -0.5146670    -0.6115340
  O       -4.0168420    -1.5549100    -1.1571630
  H       -4.9690240     0.4221100     0.3693310
  H       -3.6047260     2.2534000     1.3133110
  H       -1.1656340     2.3469740     0.8669310
  H       -0.1105100     0.5937610    -0.5364240
  H       -1.4885870    -1.2407000    -1.4881610
  H       -4.9454990    -1.4310160    -0.9354470
--
0 1
  O       -2.3416720    -3.2886840    -2.9153450
  H       -2.3854080    -4.2036400    -2.6332990
  H       -3.0221920    -2.8534870    -2.3902200
units angstrom
no_reorient
symmetry c1
}

set {
scf_type DF
mp2_type DF
e_convergence 7
reference rhf
}

energy('mp2/aug-cc-pv[tq]z', bsse_type='cp')
--------------------------------------------------------------------------

    Molecular point group: c1
  Charge       = 0
  Multiplicity = 1
  Basis Set: AUG-CC-PVTZ
    Blend: AUG-CC-PVTZ
  Basis Set: (AUG-CC-PVTZ AUX)
    Blend: AUG-CC-PVTZ-JKFIT
  @DF-RHF Final Energy:   -76.06026924966568
    Total Energy =                        -76.0602692496656800
  Basis Set: (AUG-CC-PVTZ AUX)
    Blend: AUG-CC-PVTZ-RI
	 Reference Energy          =     -76.0602692496656800 [Eh]
	 Singles Energy            =      -0.0000000000000000 [Eh]
	 Same-Spin Energy          =      -0.0684134878657298 [Eh]
	 Opposite-Spin Energy      =      -0.2153847673788021 [Eh]
	 Correlation Energy        =      -0.2837982552445318 [Eh]
	 Total Energy              =     -76.3440675049102140 [Eh]
	 SCS Total Energy          =     -76.3415354664754915 [Eh]
    Molecular point group: c1
  Basis Set: AUG-CC-PVQZ
    Blend: AUG-CC-PVQZ
  Basis Set: (AUG-CC-PVQZ AUX)
    Blend: AUG-CC-PVQZ-JKFIT
  @DF-RHF Final Energy:   -76.06564449748817
    Total Energy =                        -76.0656444974881651
  Basis Set: (AUG-CC-PVQZ AUX)
  @DF-RHF Final Energy:   -76.06037175119276
    Total Energy =                        -76.0603717511927613
  @DF-RHF Final Energy:   -76.06568320463151
    Total Energy =                        -76.0656832046315117
  @DF-RHF Final Energy:  -305.67190391100121
    Total Energy =                       -305.6719039110012091
  @DF-RHF Final Energy:  -305.68995439535666
    Total Energy =                       -305.6899543953566649
  @DF-RHF Final Energy:  -305.67182860765553
    Total Energy =                       -305.6718286076555273
  @DF-RHF Final Energy:  -305.68993204811790
    Total Energy =                       -305.6899320481178961
  Multiplicity = 1
  @DF-RHF Final Energy:  -381.73634456181082
    Total Energy =                       -381.7363445618108244
	 Singles Energy            =      -0.0000000000000000 [Eh]
	 Same-Spin Energy          =      -0.3956198158058792 [Eh]
	 Opposite-Spin Energy      =      -1.2245450773279520 [Eh]
	 Correlation Energy        =      -1.6201648931338313 [Eh]
	 Total Energy              =    -383.3565094549446712 [Eh]
	 SCS Total Energy          =    -383.3376719265396559 [Eh]
    Molecular point group: c1

    Geometry (in Angstrom), charge = 0, multiplicity = 1:

       Center              X                  Y                   Z               Mass
    ------------   -----------------  -----------------  -----------------  -----------------
         C           -1.172998329405     0.862749905274     0.855379970282    12.000000000000
         C           -0.400760329405     1.893514905274     1.386735970282    12.000000000000
         C            0.967510670595     1.945735905274     1.136368970282    12.000000000000
         C            1.559133670595     0.959405905274     0.348315970282    12.000000000000
         C            0.798052670595    -0.073938094726    -0.188855029718    12.000000000000
         C           -0.569726329405    -0.116145094726     0.070450970282    12.000000000000
         O           -1.285655329405    -1.156388094726    -0.475178029718    15.994914619570
         H           -2.237837329405     0.820631905274     1.051315970282     1.007825032230
         H           -0.873539329405     2.651921905274     1.995295970282     1.007825032230
         H            1.565552670595     2.745495905274     1.548915970282     1.007825032230
         H            2.620676670595     0.992282905274     0.145560970282     1.007825032230
         H            1.242599670595    -0.842178094726    -0.806176029718     1.007825032230
         H           -2.214312329405    -1.032494094726    -0.253462029718     1.007825032230
         O            0.389514670595    -2.890162094726    -2.233360029718    15.994914619570
         H            0.345778670595    -3.805118094726    -1.951314029718     1.007825032230
         H           -0.291005329405    -2.454965094726    -1.708235029718     1.007825032230

  Charge       = 0
  Multiplicity = 1
  Basis Set: AUG-CC-PVQZ
    Blend: AUG-CC-PVQZ
  Basis Set: (AUG-CC-PVQZ AUX)
    Blend: AUG-CC-PVQZ-JKFIT

    Orbital Energies [Eh]
    ---------------------

    Doubly Occupied:

       1A    -20.603950     2A    -20.543269     3A    -11.308439
       4A    -11.245424     5A    -11.242108     6A    -11.239273
       7A    -11.230603     8A    -11.229850     9A     -1.418761
      10A     -1.331887    11A     -1.152924    12A     -1.024993
      13A     -1.011209    14A     -0.853776    15A     -0.829105
      16A     -0.741854    17A     -0.703969    18A     -0.690719
      19A     -0.657245    20A     -0.615173    21A     -0.604169
      22A     -0.596636    23A     -0.586927    24A     -0.561218
      25A     -0.521654    26A     -0.502634    27A     -0.490866
      28A     -0.488110    29A     -0.346582    30A     -0.323528

  @DF-RHF Final Energy:  -381.75975229360762

   => Energetics <=

    Nuclear Repulsion Energy =            343.3382038126224529
    One-Electron Energy =               -1200.8021941037036413
    Two-Electron Energy =                 475.7042379974736264
    Total Energy =                       -381.7597522936076189

  Dipole Moment: [D]
     X:    -2.0740      Y:     0.3540      Z:     2.1756     Total:     3.0266

  Basis Set: (AUG-CC-PVQZ AUX)
    Blend: AUG-CC-PVQZ-RI
	 Reference Energy          =    -381.7597522936076189 [Eh]
	 Singles Energy            =      -0.0000000000000000 [Eh]
	 Same-Spin Energy          =      -0.4187988967386559 [Eh]
	 Opposite-Spin Energy      =      -1.3786356238595232 [Eh]
	 Correlation Energy        =      -1.7974345205981792 [Eh]
	 Total Energy              =    -383.5571868142058065 [Eh]

	 ================> DF-SCS-MP2 Energies <==================
	-----------------------------------------------------------
	 SCS Same-Spin Scale       =       0.3333333333333333 [-]
	 SCS Opposite-Spin Scale   =       1.2000000000000000 [-]
	 SCS Same-Spin Energy      =      -0.1395996322462186 [Eh]
	 SCS Opposite-Spin Energy  =      -1.6543627486314278 [Eh]
	 SCS Correlation Energy    =      -1.7939623808776464 [Eh]
	 SCS Total Energy          =    -383.5537146744852635 [Eh]
	-----------------------------------------------------------

*** Psi4 exiting successfully. Buy a developer a beer!
