                               Psi4 1.4a2.dev224

  ==> Input File <==

--------------------------------------------------------------------------
#Generated by lconvert.py for cbs job

memory 20 GB

molecule  {
0 1
  C      -3.904190    0.464230    0.173390
  C      -3.131950    1.494990    0.704750
  C      -1.763680    1.547210    0.454380
  C      -1.172050    0.560880   -0.333670
  C      -1.933130   -0.472460   -0.870840
  C      -3.300910   -0.514670   -0.611530
  O      -4.016840   -1.554910   -1.157160
  H      -4.969020    0.422110    0.369330
  H      -3.604730    2.253400    1.313310
  H      -1.165630    2.346970    0.866930
  H      -0.110510    0.593760   -0.536420
  H      -1.488590   -1.240700   -1.488160
  H      -4.945500   -1.431020   -0.935450
--
0 1
  O      -2.043280   -3.678260   -3.285260
  H      -2.087010   -4.593210   -3.003220
  H      -2.723800   -3.243060   -2.760140
units angstrom
no_reorient
symmetry c1
}

set {
scf_type DF
mp2_type DF
e_convergence 7
reference rhf
}

energy('mp2/aug-cc-pv[tq]z', bsse_type='cp')
--------------------------------------------------------------------------

    Molecular point group: c1
  Charge       = 0
  Multiplicity = 1
  Basis Set: AUG-CC-PVTZ
    Blend: AUG-CC-PVTZ
  Basis Set: (AUG-CC-PVTZ AUX)
    Blend: AUG-CC-PVTZ-JKFIT
  @DF-RHF Final Energy:   -76.06026964028354
    Total Energy =                        -76.0602696402835363
  Basis Set: (AUG-CC-PVTZ AUX)
    Blend: AUG-CC-PVTZ-RI
	 Reference Energy          =     -76.0602696402835363 [Eh]
	 Singles Energy            =      -0.0000000000000000 [Eh]
	 Same-Spin Energy          =      -0.0684133933807964 [Eh]
	 Opposite-Spin Energy      =      -0.2153844847070245 [Eh]
	 Correlation Energy        =      -0.2837978780878209 [Eh]
	 Total Energy              =     -76.3440675183713608 [Eh]
	 SCS Total Energy          =     -76.3415354863922317 [Eh]
    Molecular point group: c1
  Basis Set: AUG-CC-PVQZ
    Blend: AUG-CC-PVQZ
  Basis Set: (AUG-CC-PVQZ AUX)
    Blend: AUG-CC-PVQZ-JKFIT
  @DF-RHF Final Energy:   -76.06564491063241
    Total Energy =                        -76.0656449106324146
  Basis Set: (AUG-CC-PVQZ AUX)
  @DF-RHF Final Energy:   -76.06032152503863
    Total Energy =                        -76.0603215250386455
  @DF-RHF Final Energy:   -76.06566903990495
    Total Energy =                        -76.0656690399049467
  @DF-RHF Final Energy:  -305.67187599442912
    Total Energy =                       -305.6718759944291151
  @DF-RHF Final Energy:  -305.68994357431478
    Total Energy =                       -305.6899435743147819
  @DF-RHF Final Energy:  -305.67182875809272
    Total Energy =                       -305.6718287580927154
  @DF-RHF Final Energy:  -305.68993220534986
    Total Energy =                       -305.6899322053498622
  Multiplicity = 1
  @DF-RHF Final Energy:  -381.73557721515556
    Total Energy =                       -381.7355772151555584
	 Singles Energy            =      -0.0000000000000000 [Eh]
	 Same-Spin Energy          =      -0.3944257450937160 [Eh]
	 Opposite-Spin Energy      =      -1.2229860076095314 [Eh]
	 Correlation Energy        =      -1.6174117527032474 [Eh]
	 Total Energy              =    -383.3529889678587779 [Eh]
	 SCS Total Energy          =    -383.3346356726515864 [Eh]
    Molecular point group: c1

    Geometry (in Angstrom), charge = 0, multiplicity = 1:

       Center              X                  Y                   Z               Mass
    ------------   -----------------  -----------------  -----------------  -----------------
         C           -1.220965006613     0.925371053997     0.914833084436    12.000000000000
         C           -0.448725006613     1.956131053997     1.446193084436    12.000000000000
         C            0.919544993387     2.008351053997     1.195823084436    12.000000000000
         C            1.511174993387     1.022021053997     0.407773084436    12.000000000000
         C            0.750094993387    -0.011318946003    -0.129396915564    12.000000000000
         C           -0.617685006613    -0.053528946003     0.129913084436    12.000000000000
         O           -1.333615006613    -1.093768946003    -0.415716915564    15.994914619570
         H           -2.285795006613     0.883251053997     1.110773084436     1.007825032230
         H           -0.921505006613     2.714541053997     2.054753084436     1.007825032230
         H            1.517594993387     2.808111053997     1.608373084436     1.007825032230
         H            2.572714993387     1.054901053997     0.205023084436     1.007825032230
         H            1.194634993387    -0.779558946003    -0.746716915564     1.007825032230
         H           -2.262275006613    -0.969878946003    -0.194006915564     1.007825032230
         O            0.639944993387    -3.217118946003    -2.543816915564    15.994914619570
         H            0.596214993387    -4.132068946003    -2.261776915564     1.007825032230
         H           -0.040575006613    -2.781918946003    -2.018696915564     1.007825032230

  Charge       = 0
  Multiplicity = 1
  Basis Set: AUG-CC-PVQZ
    Blend: AUG-CC-PVQZ
  Basis Set: (AUG-CC-PVQZ AUX)
    Blend: AUG-CC-PVQZ-JKFIT

    Orbital Energies [Eh]
    ---------------------

    Doubly Occupied:

       1A    -20.598166     2A    -20.553975     3A    -11.307072
       4A    -11.244986     5A    -11.242299     6A    -11.237761
       7A    -11.230639     8A    -11.229789     9A     -1.412003
      10A     -1.340384    11A     -1.152145    12A     -1.024581
      13A     -1.009844    14A     -0.851918    15A     -0.827488
      16A     -0.738462    17A     -0.703827    18A     -0.691163
      19A     -0.657925    20A     -0.614358    21A     -0.598529
      22A     -0.596375    23A     -0.579810    24A     -0.572867
      25A     -0.520763    26A     -0.502224    27A     -0.497344
      28A     -0.489135    29A     -0.346465    30A     -0.321901

  @DF-RHF Final Energy:  -381.75898956152167

   => Energetics <=

    Nuclear Repulsion Energy =            335.5626015672911535
    One-Electron Energy =               -1185.2547760011091214
    Two-Electron Energy =                 467.9331848722962945
    Total Energy =                       -381.7589895615216733

  Dipole Moment: [D]
     X:    -2.0674      Y:     0.2113      Z:     2.0859     Total:     2.9444

  Basis Set: (AUG-CC-PVQZ AUX)
    Blend: AUG-CC-PVQZ-RI
	 Reference Energy          =    -381.7589895615216733 [Eh]
	 Singles Energy            =      -0.0000000000000000 [Eh]
	 Same-Spin Energy          =      -0.4176118964173083 [Eh]
	 Opposite-Spin Energy      =      -1.3774491345264768 [Eh]
	 Correlation Energy        =      -1.7950610309437851 [Eh]
	 Total Energy              =    -383.5540505924654440 [Eh]

	 ================> DF-SCS-MP2 Energies <==================
	-----------------------------------------------------------
	 SCS Same-Spin Scale       =       0.3333333333333333 [-]
	 SCS Opposite-Spin Scale   =       1.2000000000000000 [-]
	 SCS Same-Spin Energy      =      -0.1392039654724361 [Eh]
	 SCS Opposite-Spin Energy  =      -1.6529389614317720 [Eh]
	 SCS Correlation Energy    =      -1.7921429269042082 [Eh]
	 SCS Total Energy          =    -383.5511324884258784 [Eh]
	-----------------------------------------------------------

*** Psi4 exiting successfully. Buy a developer a beer!
