                               Psi4 1.4a2.dev224

  ==> Input File <==

--------------------------------------------------------------------------
#Generated by lconvert.py for cbs job

memory 40 GB

molecule  {
0 1
  C       -3.9041850     0.4642280     0.1733950
  C       -3.1319470     1.4949930     0.7047510
  C       -1.7636760     1.5472140     0.4543840
  C       -1.1720530     0.5608840    -0.3336690
  C       -1.9331340    -0.4724600    -0.8708400
  C       -3.3009130    -0.5146670    -0.6115340
  O       -4.0168420    -1.5549100    -1.1571630
  H       -4.9690240     0.4221100     0.3693310
  H       -3.6047260     2.2534000     1.3133110
  H       -1.1656340     2.3469740     0.8669310
  H       -0.1105100     0.5937610    -0.5364240
  H       -1.4885870    -1.2407000    -1.4881610
  H       -4.9454990    -1.4310160    -0.9354470
--
0 1
  O       -2.6400670    -2.8991110    -2.5454280
  H       -2.6838030    -3.8140670    -2.2633820
  H       -3.3205870    -2.4639140    -2.0203030
units angstrom
no_reorient
symmetry c1
}

set {
scf_type DF
mp2_type DF
e_convergence 7
reference rhf
}

energy('mp2/aug-cc-pv[tq]z', bsse_type='cp')
--------------------------------------------------------------------------

    Molecular point group: c1
  Charge       = 0
  Multiplicity = 1
  Basis Set: AUG-CC-PVTZ
    Blend: AUG-CC-PVTZ
  Basis Set: (AUG-CC-PVTZ AUX)
    Blend: AUG-CC-PVTZ-JKFIT
  @DF-RHF Final Energy:   -76.06026924965593
    Total Energy =                        -76.0602692496559314
  Basis Set: (AUG-CC-PVTZ AUX)
    Blend: AUG-CC-PVTZ-RI
	 Reference Energy          =     -76.0602692496559314 [Eh]
	 Singles Energy            =      -0.0000000000000000 [Eh]
	 Same-Spin Energy          =      -0.0684134878657398 [Eh]
	 Opposite-Spin Energy      =      -0.2153847673788228 [Eh]
	 Correlation Energy        =      -0.2837982552445626 [Eh]
	 Total Energy              =     -76.3440675049004938 [Eh]
	 SCS Total Energy          =     -76.3415354664657713 [Eh]
    Molecular point group: c1
  Basis Set: AUG-CC-PVQZ
    Blend: AUG-CC-PVQZ
  Basis Set: (AUG-CC-PVQZ AUX)
    Blend: AUG-CC-PVQZ-JKFIT
  @DF-RHF Final Energy:   -76.06564449748890
    Total Energy =                        -76.0656444974889041
  Basis Set: (AUG-CC-PVQZ AUX)
  @DF-RHF Final Energy:   -76.06044752359544
    Total Energy =                        -76.0604475235954425
  @DF-RHF Final Energy:   -76.06570032965729
    Total Energy =                        -76.0657003296572896
  @DF-RHF Final Energy:  -305.67198698126566
    Total Energy =                       -305.6719869812656611
  @DF-RHF Final Energy:  -305.68997905526174
    Total Energy =                       -305.6899790552617446
  @DF-RHF Final Energy:  -305.67182860888130
    Total Energy =                       -305.6718286088812988
  @DF-RHF Final Energy:  -305.68993204925312
    Total Energy =                       -305.6899320492531160
  @DF-RHF Final Energy:  -381.71659602549914
    Total Energy =                       -381.7165960254991433
  @DF-RHF Final Energy:  -381.73992720555850
    Total Energy =                       -381.7399272055585016
*** Psi4 exiting successfully. Buy a developer a beer!
                               Psi4 1.4a2.dev224
  @DF-RHF Final Energy:   -76.06026924966152
    Total Energy =                        -76.0602692496615163
  @DF-RHF Final Energy:   -76.06564449748991
    Total Energy =                        -76.0656444974899131
  @DF-RHF Final Energy:   -76.06041986955553
    Total Energy =                        -76.0604198695555169
  @DF-RHF Final Energy:   -76.06569338932454
    Total Energy =                        -76.0656933893245224
  @DF-RHF Final Energy:  -305.67195510641835
    Total Energy =                       -305.6719551064183520
  @DF-RHF Final Energy:  -305.68997075425932
    Total Energy =                       -305.6899707542593205
  @DF-RHF Final Energy:  -305.67182860922730
    Total Energy =                       -305.6718286092273047
  @DF-RHF Final Energy:  -305.68993204447031
    Total Energy =                       -305.6899320444703108
  @DF-RHF Final Energy:  -381.72947633461399
    Total Energy =                       -381.7294763346139916
  @DF-RHF Final Energy:  -381.75283674732373
    Total Energy =                       -381.7528367473237267
*** Psi4 exiting successfully. Buy a developer a beer!
                               Psi4 1.4a2.dev224
                               Psi4 1.4a2.dev224
                               Psi4 1.4a2.dev224
                               Psi4 1.4a2.dev224
                               Psi4 1.4a2.dev224
                               Psi4 1.4a2.dev224
                               Psi4 1.4a2.dev224
  @DF-RHF Final Energy:   -76.06026928331056
    Total Energy =                        -76.0602692833105607
  @DF-RHF Final Energy:   -76.06564453325964
    Total Energy =                        -76.0656445332596576
  @DF-RHF Final Energy:   -76.06029737769775
    Total Energy =                        -76.0602973776977365
  @DF-RHF Final Energy:   -76.06565767358666
    Total Energy =                        -76.0656576735866565
  @DF-RHF Final Energy:  -305.67184773762455
    Total Energy =                       -305.6718477376245460
  @DF-RHF Final Energy:  -305.68993844690578
    Total Energy =                       -305.6899384469057850
  @DF-RHF Final Energy:  -305.67182876161291
    Total Energy =                       -305.6718287616129146
  @DF-RHF Final Energy:  -305.68993220434737
    Total Energy =                       -305.6899322043473717
  @DF-RHF Final Energy:  -381.73407125752306
    Total Energy =                       -381.7340712575230555
  @DF-RHF Final Energy:  -381.75751467708113
    Total Energy =                       -381.7575146770811330
*** Psi4 exiting successfully. Buy a developer a beer!
                               Psi4 1.4a2.dev224
  @DF-RHF Final Energy:   -76.06026924017803
    Total Energy =                        -76.0602692401780445
  @DF-RHF Final Energy:   -76.06564449006481
    Total Energy =                        -76.0656444900648125
  @DF-RHF Final Energy:   -76.06029026302359
    Total Energy =                        -76.0602902630235747
  @DF-RHF Final Energy:   -76.06565220466143
    Total Energy =                        -76.0656522046614327
  @DF-RHF Final Energy:  -305.67184097725425
    Total Energy =                       -305.6718409772542486
  @DF-RHF Final Energy:  -305.68993597651399
    Total Energy =                       -305.6899359765139934
  @DF-RHF Final Energy:  -305.67182876591755
    Total Energy =                       -305.6718287659175530
  @DF-RHF Final Energy:  -305.68993220808488
    Total Energy =                       -305.6899322080848833
  Multiplicity = 1
  @DF-RHF Final Energy:  -381.73323088409097
    Total Energy =                       -381.7332308840909718
	 Singles Energy            =      -0.0000000000000000 [Eh]
	 Same-Spin Energy          =      -0.3938036533517005 [Eh]
	 Opposite-Spin Energy      =      -1.2218725728834876 [Eh]
	 Correlation Energy        =      -1.6156762262351880 [Eh]
	 Total Energy              =    -383.3489071103261381 [Eh]
	 SCS Total Energy          =    -383.3307458560017267 [Eh]
    Molecular point group: c1

    Geometry (in Angstrom), charge = 0, multiplicity = 1:

       Center              X                  Y                   Z               Mass
    ------------   -----------------  -----------------  -----------------  -----------------
         C           -1.316889074891     1.050606459749     1.033749881502    12.000000000000
         C           -0.544649074891     2.081366459749     1.565109881502    12.000000000000
         C            0.823620925109     2.133586459749     1.314739881502    12.000000000000
         C            1.415250925109     1.147256459749     0.526689881502    12.000000000000
         C            0.654170925109     0.113916459749    -0.010480118498    12.000000000000
         C           -0.713609074891     0.071706459749     0.248829881502    12.000000000000
         O           -1.429539074891    -0.968533540251    -0.296800118498    15.994914619570
         H           -2.381719074891     1.008486459749     1.229689881502     1.007825032230
         H           -1.017429074891     2.839776459749     2.173669881502     1.007825032230
         H            1.421670925109     2.933346459749     1.727289881502     1.007825032230
         H            2.476790925109     1.180136459749     0.323939881502     1.007825032230
         H            1.098710925109    -0.654323540251    -0.627800118498     1.007825032230
         H           -2.358199074891    -0.844643540251    -0.075090118498     1.007825032230
         O            1.140810925109    -3.871033540251    -3.164740118498    15.994914619570
         H            1.097080925109    -4.785983540251    -2.882690118498     1.007825032230
         H            0.460290925109    -3.435833540251    -2.639610118498     1.007825032230

  Charge       = 0
  Multiplicity = 1
  Basis Set: AUG-CC-PVQZ
    Blend: AUG-CC-PVQZ
  Basis Set: (AUG-CC-PVQZ AUX)
    Blend: AUG-CC-PVQZ-JKFIT

    Orbital Energies [Eh]
    ---------------------

    Doubly Occupied:

       1A    -20.593341     2A    -20.560308     3A    -11.305838
       4A    -11.244472     5A    -11.242218     6A    -11.236508
       7A    -11.230724     8A    -11.229064     9A     -1.407297
      10A     -1.346167    11A     -1.151398    12A     -1.024073
      13A     -1.008700    14A     -0.850525    15A     -0.826264
      16A     -0.736124    17A     -0.709044    18A     -0.689808
      19A     -0.656114    20A     -0.613628    21A     -0.596002
      22A     -0.594306    23A     -0.580582    24A     -0.574083
      25A     -0.519769    26A     -0.505240    27A     -0.499352
      28A     -0.487696    29A     -0.346190    30A     -0.320502

  @DF-RHF Final Energy:  -381.75668394792308

   => Energetics <=

    Nuclear Repulsion Energy =            324.6084409715947459
    One-Electron Energy =               -1163.3595762090619701
    Two-Electron Energy =                 456.9944512895441449
    Total Energy =                       -381.7566839479230794

  Dipole Moment: [D]
     X:    -2.1043      Y:     0.1024      Z:     2.0348     Total:     2.9291

  Basis Set: (AUG-CC-PVQZ AUX)
    Blend: AUG-CC-PVQZ-RI
	 Reference Energy          =    -381.7566839479230794 [Eh]
	 Singles Energy            =      -0.0000000000000000 [Eh]
	 Same-Spin Energy          =      -0.4170146323912717 [Eh]
	 Opposite-Spin Energy      =      -1.3768049338431658 [Eh]
	 Correlation Energy        =      -1.7938195662344376 [Eh]
	 Total Energy              =    -383.5505035141575263 [Eh]

	 ================> DF-SCS-MP2 Energies <==================
	-----------------------------------------------------------
	 SCS Same-Spin Scale       =       0.3333333333333333 [-]
	 SCS Opposite-Spin Scale   =       1.2000000000000000 [-]
	 SCS Same-Spin Energy      =      -0.1390048774637572 [Eh]
	 SCS Opposite-Spin Energy  =      -1.6521659206117989 [Eh]
	 SCS Correlation Energy    =      -1.7911707980755560 [Eh]
	 SCS Total Energy          =    -383.5478547459986203 [Eh]
	-----------------------------------------------------------

*** Psi4 exiting successfully. Buy a developer a beer!
