                               Psi4 1.4a2.dev224

  ==> Input File <==

--------------------------------------------------------------------------
#Generated by lconvert.py for cbs job

memory 20 GB

molecule  {
0 1
  C      -3.555220   -0.145050    0.625060
  C      -3.185550    1.196340    0.554090
  C      -1.965330    1.566370   -0.005380
  C      -1.113310    0.577740   -0.495980
  C      -1.473890   -0.763770   -0.429410
  C      -2.697760   -1.131260    0.132030
  O      -3.000300   -2.456700    0.171870
  H      -4.503840   -0.431940    1.060060
  H      -3.857480    1.951680    0.939040
  H      -1.682140    2.607900   -0.058620
  H      -0.162200    0.849850   -0.933370
  H      -0.822580   -1.539990   -0.806080
  H      -3.872060   -2.569580    0.583710
--
0 1
  O      -6.578580   -3.227200    1.837800
  H      -7.240540   -3.642520    1.280230
  H      -6.583070   -3.751690    2.641820
units angstrom
no_reorient
symmetry c1
}

set {
scf_type DF
mp2_type DF
e_convergence 7
reference rhf
}

energy('mp2/aug-cc-pv[tq]z', bsse_type='cp')
--------------------------------------------------------------------------

    Molecular point group: c1
  Charge       = 0
  Multiplicity = 1
  Basis Set: AUG-CC-PVTZ
    Blend: AUG-CC-PVTZ
  Basis Set: (AUG-CC-PVTZ AUX)
    Blend: AUG-CC-PVTZ-JKFIT
  @DF-RHF Final Energy:   -76.06039663864685
    Total Energy =                        -76.0603966386468642
  Basis Set: (AUG-CC-PVTZ AUX)
    Blend: AUG-CC-PVTZ-RI
	 Reference Energy          =     -76.0603966386468500 [Eh]
	 Singles Energy            =      -0.0000000000000000 [Eh]
	 Same-Spin Energy          =      -0.0683867309808932 [Eh]
	 Opposite-Spin Energy      =      -0.2153056493958434 [Eh]
	 Correlation Energy        =      -0.2836923803767366 [Eh]
	 Total Energy              =     -76.3440890190235848 [Eh]
	 SCS Total Energy          =     -76.3415589949154878 [Eh]
    Molecular point group: c1
  Basis Set: AUG-CC-PVQZ
    Blend: AUG-CC-PVQZ
  Basis Set: (AUG-CC-PVQZ AUX)
    Blend: AUG-CC-PVQZ-JKFIT
  @DF-RHF Final Energy:   -76.06577614970722
    Total Energy =                        -76.0657761497072187
  Basis Set: (AUG-CC-PVQZ AUX)
  @DF-RHF Final Energy:   -76.06043154879606
    Total Energy =                        -76.0604315487960605
  @DF-RHF Final Energy:   -76.06579486081095
    Total Energy =                        -76.0657948608109535
  @DF-RHF Final Energy:  -305.67174393702214
    Total Energy =                       -305.6717439370221427
  @DF-RHF Final Energy:  -305.68983352033314
    Total Energy =                       -305.6898335203331385
  @DF-RHF Final Energy:  -305.67172014676970
    Total Energy =                       -305.6717201467697009
  @DF-RHF Final Energy:  -305.68982721935095
    Total Energy =                       -305.6898272193509456
  Multiplicity = 1
  @DF-RHF Final Energy:  -381.73618739034418
    Total Energy =                       -381.7361873903441847
	 Singles Energy            =      -0.0000000000000000 [Eh]
	 Same-Spin Energy          =      -0.3940655007229354 [Eh]
	 Opposite-Spin Energy      =      -1.2219208976361544 [Eh]
	 Correlation Energy        =      -1.6159863983590899 [Eh]
	 Total Energy              =    -383.3521737887032828 [Eh]
	 SCS Total Energy          =    -383.3338476344152355 [Eh]
    Molecular point group: c1

    Geometry (in Angstrom), charge = 0, multiplicity = 1:

       Center              X                  Y                   Z               Mass
    ------------   -----------------  -----------------  -----------------  -----------------
         C           -0.431193463100     0.585736596983     0.255116741893    12.000000000000
         C           -0.061523463100     1.927126596983     0.184146741893    12.000000000000
         C            1.158696536900     2.297156596983    -0.375323258107    12.000000000000
         C            2.010716536900     1.308526596983    -0.865923258107    12.000000000000
         C            1.650136536900    -0.032983403017    -0.799353258107    12.000000000000
         C            0.426266536900    -0.400473403017    -0.237913258107    12.000000000000
         O            0.123726536900    -1.725913403017    -0.198073258107    15.994914619570
         H           -1.379813463100     0.298846596983     0.690116741893     1.007825032230
         H           -0.733453463100     2.682466596983     0.569096741893     1.007825032230
         H            1.441886536900     3.338686596983    -0.428563258107     1.007825032230
         H            2.961826536900     1.580636596983    -1.303313258107     1.007825032230
         H            2.301446536900    -0.809203403017    -1.176023258107     1.007825032230
         H           -0.748033463100    -1.838793403017     0.213766741893     1.007825032230
         O           -3.454553463100    -2.496413403017     1.467856741893    15.994914619570
         H           -4.116513463100    -2.911733403017     0.910286741893     1.007825032230
         H           -3.459043463100    -3.020903403017     2.271876741893     1.007825032230

  Charge       = 0
  Multiplicity = 1
  Basis Set: AUG-CC-PVQZ
    Blend: AUG-CC-PVQZ
  Basis Set: (AUG-CC-PVQZ AUX)
    Blend: AUG-CC-PVQZ-JKFIT

    Orbital Energies [Eh]
    ---------------------

    Doubly Occupied:

       1A    -20.581098     2A    -20.580508     3A    -11.295139
       4A    -11.234439     5A    -11.233044     6A    -11.224304
       7A    -11.220028     8A    -11.219456     9A     -1.397893
      10A     -1.367515    11A     -1.140054    12A     -1.012879
      13A     -0.997697    14A     -0.839975    15A     -0.815930
      16A     -0.731530    17A     -0.726186    18A     -0.678968
      19A     -0.646144    20A     -0.603934    21A     -0.602676
      22A     -0.584041    23A     -0.583921    24A     -0.561589
      25A     -0.526772    26A     -0.511159    27A     -0.486195
      28A     -0.476751    29A     -0.336022    30A     -0.308121

  @DF-RHF Final Energy:  -381.75962884001092

   => Energetics <=

    Nuclear Repulsion Energy =            329.9985207154949762
    One-Electron Energy =               -1174.4683607159017811
    Two-Electron Energy =                 462.7102111603958292
    Total Energy =                       -381.7596288400109188

  Dipole Moment: [D]
     X:    -2.5962      Y:    -1.3139      Z:     1.1482     Total:     3.1280

  Basis Set: (AUG-CC-PVQZ AUX)
    Blend: AUG-CC-PVQZ-RI
	 Reference Energy          =    -381.7596288400109188 [Eh]
	 Singles Energy            =      -0.0000000000000000 [Eh]
	 Same-Spin Energy          =      -0.4172662199736508 [Eh]
	 Opposite-Spin Energy      =      -1.3767643917540224 [Eh]
	 Correlation Energy        =      -1.7940306117276732 [Eh]
	 Total Energy              =    -383.5536594517386106 [Eh]

	 ================> DF-SCS-MP2 Energies <==================
	-----------------------------------------------------------
	 SCS Same-Spin Scale       =       0.3333333333333333 [-]
	 SCS Opposite-Spin Scale   =       1.2000000000000000 [-]
	 SCS Same-Spin Energy      =      -0.1390887399912169 [Eh]
	 SCS Opposite-Spin Energy  =      -1.6521172701048268 [Eh]
	 SCS Correlation Energy    =      -1.7912060100960436 [Eh]
	 SCS Total Energy          =    -383.5508348501069804 [Eh]
	-----------------------------------------------------------

*** Psi4 exiting successfully. Buy a developer a beer!
