                               Psi4 1.4a2.dev224

  ==> Input File <==

--------------------------------------------------------------------------
#Generated by lconvert.py for cbs job

memory 40 GB

molecule  {
0 1
  C       -3.5552230    -0.1450460     0.6250600
  C       -3.1855540     1.1963420     0.5540920
  C       -1.9653260     1.5663730    -0.0053800
  C       -1.1133080     0.5777380    -0.4959790
  C       -1.4738950    -0.7637690    -0.4294080
  C       -2.6977570    -1.1312560     0.1320280
  O       -3.0003010    -2.4566990     0.1718740
  H       -4.5038360    -0.4319420     1.0600560
  H       -3.8574770     1.9516770     0.9390400
  H       -1.6821440     2.6079020    -0.0586190
  H       -0.1621950     0.8498460    -0.9333730
  H       -0.8225770    -1.5399910    -0.8060840
  H       -3.8720560    -2.5695820     0.5837070
--
0 1
  O       -5.3944770    -2.9394920     1.2891330
  H       -6.0564370    -3.3548100     0.7315600
  H       -5.3989630    -3.4639880     2.0931540
units angstrom
no_reorient
symmetry c1
}

set {
scf_type DF
mp2_type DF
e_convergence 7
reference rhf
}

energy('mp2/aug-cc-pv[tq]z', bsse_type='cp')
--------------------------------------------------------------------------

    Molecular point group: c1
  Charge       = 0
  Multiplicity = 1
  Basis Set: AUG-CC-PVTZ
    Blend: AUG-CC-PVTZ
  Basis Set: (AUG-CC-PVTZ AUX)
    Blend: AUG-CC-PVTZ-JKFIT
  @DF-RHF Final Energy:   -76.06039646549085
    Total Energy =                        -76.0603964654908538
  Basis Set: (AUG-CC-PVTZ AUX)
    Blend: AUG-CC-PVTZ-RI
	 Reference Energy          =     -76.0603964654908538 [Eh]
	 Singles Energy            =      -0.0000000000000000 [Eh]
	 Same-Spin Energy          =      -0.0683867705195678 [Eh]
	 Opposite-Spin Energy      =      -0.2153057708982270 [Eh]
	 Correlation Energy        =      -0.2836925414177948 [Eh]
	 Total Energy              =     -76.3440890069086464 [Eh]
	 SCS Total Energy          =     -76.3415589807419224 [Eh]
    Molecular point group: c1
  Basis Set: AUG-CC-PVQZ
    Blend: AUG-CC-PVQZ
  Basis Set: (AUG-CC-PVQZ AUX)
    Blend: AUG-CC-PVQZ-JKFIT
  @DF-RHF Final Energy:   -76.06577596371372
    Total Energy =                        -76.0657759637137190
  Basis Set: (AUG-CC-PVQZ AUX)
  @DF-RHF Final Energy:   -76.06054002219011
    Total Energy =                        -76.0605400221901107
  @DF-RHF Final Energy:   -76.06582971345472
    Total Energy =                        -76.0658297134547183
  @DF-RHF Final Energy:  -305.67183496943380
    Total Energy =                       -305.6718349694338031
  @DF-RHF Final Energy:  -305.68985214443114
    Total Energy =                       -305.6898521444311427
  @DF-RHF Final Energy:  -305.67172055328894
    Total Energy =                       -305.6717205532889352
  @DF-RHF Final Energy:  -305.68982764455484
    Total Energy =                       -305.6898276445548390
  Multiplicity = 1
  @DF-RHF Final Energy:  -381.73811515926286
    Total Energy =                       -381.7381151592628612
	 Singles Energy            =      -0.0000000000000000 [Eh]
	 Same-Spin Energy          =      -0.3966228013291478 [Eh]
	 Opposite-Spin Energy      =      -1.2248910102839226 [Eh]
	 Correlation Energy        =      -1.6215138116130703 [Eh]
	 Total Energy              =    -383.3596289708759173 [Eh]
	 SCS Total Energy          =    -383.3401919720466253 [Eh]
    Molecular point group: c1

    Geometry (in Angstrom), charge = 0, multiplicity = 1:

       Center              X                  Y                   Z               Mass
    ------------   -----------------  -----------------  -----------------  -----------------
         C           -0.621521036370     0.539495018438     0.343305080830    12.000000000000
         C           -0.251852036370     1.880883018438     0.272337080830    12.000000000000
         C            0.968375963630     2.250914018438    -0.287134919170    12.000000000000
         C            1.820393963630     1.262279018438    -0.777733919170    12.000000000000
         C            1.459806963630    -0.079227981562    -0.711162919170    12.000000000000
         C            0.235944963630    -0.446714981562    -0.149726919170    12.000000000000
         O           -0.066599036370    -1.772157981562    -0.109880919170    15.994914619570
         H           -1.570134036370     0.252599018438     0.778301080830     1.007825032230
         H           -0.923775036370     2.636218018438     0.657285080830     1.007825032230
         H            1.251557963630     3.292443018438    -0.340373919170     1.007825032230
         H            2.771506963630     1.534387018438    -1.215127919170     1.007825032230
         H            2.111124963630    -0.855449981562    -1.087838919170     1.007825032230
         H           -0.938354036370    -1.885040981562     0.301952080830     1.007825032230
         O           -2.460775036370    -2.254950981562     1.007378080830    15.994914619570
         H           -3.122735036370    -2.670268981562     0.449805080830     1.007825032230
         H           -2.465261036370    -2.779446981562     1.811399080830     1.007825032230

  Charge       = 0
  Multiplicity = 1
  Basis Set: AUG-CC-PVQZ
    Blend: AUG-CC-PVQZ
  Basis Set: (AUG-CC-PVQZ AUX)
    Blend: AUG-CC-PVQZ-JKFIT

    Orbital Energies [Eh]
    ---------------------

    Doubly Occupied:

       1A    -20.606916     2A    -20.554204     3A    -11.284553
       4A    -11.227273     5A    -11.225857     6A    -11.214381
       7A    -11.211928     8A    -11.210985     9A     -1.401313
      10A     -1.375975    11A     -1.131720    12A     -1.004871
      13A     -0.988653    14A     -0.831769    15A     -0.807029
      16A     -0.759625    17A     -0.722093    18A     -0.678511
      19A     -0.635403    20A     -0.630529    21A     -0.597118
      22A     -0.575259    23A     -0.566518    24A     -0.561437
      25A     -0.537167    26A     -0.502084    27A     -0.475291
      28A     -0.466517    29A     -0.328695    30A     -0.298022

  @DF-RHF Final Energy:  -381.76146172972386

   => Energetics <=

    Nuclear Repulsion Energy =            345.8613368437422082
    One-Electron Energy =               -1206.4222026937502505
    Two-Electron Energy =                 478.7994041202841231
    Total Energy =                       -381.7614617297238624

  Dipole Moment: [D]
     X:    -3.2822      Y:    -1.9032      Z:     1.4321     Total:     4.0554

  Basis Set: (AUG-CC-PVQZ AUX)
    Blend: AUG-CC-PVQZ-RI
	 Reference Energy          =    -381.7614617297238624 [Eh]
	 Singles Energy            =      -0.0000000000000000 [Eh]
	 Same-Spin Energy          =      -0.4198248642843583 [Eh]
	 Opposite-Spin Energy      =      -1.3789759208886794 [Eh]
	 Correlation Energy        =      -1.7988007851730377 [Eh]
	 Total Energy              =    -383.5602625148969196 [Eh]

	 ================> DF-SCS-MP2 Energies <==================
	-----------------------------------------------------------
	 SCS Same-Spin Scale       =       0.3333333333333333 [-]
	 SCS Opposite-Spin Scale   =       1.2000000000000000 [-]
	 SCS Same-Spin Energy      =      -0.1399416214281194 [Eh]
	 SCS Opposite-Spin Energy  =      -1.6547711050664151 [Eh]
	 SCS Correlation Energy    =      -1.7947127264945346 [Eh]
	 SCS Total Energy          =    -383.5561744562184003 [Eh]
	-----------------------------------------------------------

*** Psi4 exiting successfully. Buy a developer a beer!
