                               Psi4 1.4a2.dev224

  ==> Input File <==

--------------------------------------------------------------------------
#Generated by lconvert.py for cbs job

memory 40 GB

molecule  {
0 1
  C       -3.5552230    -0.1450460     0.6250600
  C       -3.1855540     1.1963420     0.5540920
  C       -1.9653260     1.5663730    -0.0053800
  C       -1.1133080     0.5777380    -0.4959790
  C       -1.4738950    -0.7637690    -0.4294080
  C       -2.6977570    -1.1312560     0.1320280
  O       -3.0003010    -2.4566990     0.1718740
  H       -4.5038360    -0.4319420     1.0600560
  H       -3.8574770     1.9516770     0.9390400
  H       -1.6821440     2.6079020    -0.0586190
  H       -0.1621950     0.8498460    -0.9333730
  H       -0.8225770    -1.5399910    -0.8060840
  H       -3.8720560    -2.5695820     0.5837070
--
0 1
  O       -5.0561610    -2.8572900     1.1323720
  H       -5.7181210    -3.2726080     0.5747990
  H       -5.0606470    -3.3817860     1.9363930
units angstrom
no_reorient
symmetry c1
}

set {
scf_type DF
mp2_type DF
e_convergence 7
reference rhf
}

energy('mp2/aug-cc-pv[tq]z', bsse_type='cp')
--------------------------------------------------------------------------

    Molecular point group: c1
  Charge       = 0
  Multiplicity = 1
  Basis Set: AUG-CC-PVTZ
    Blend: AUG-CC-PVTZ
  Basis Set: (AUG-CC-PVTZ AUX)
    Blend: AUG-CC-PVTZ-JKFIT
  @DF-RHF Final Energy:   -76.06039646550450
    Total Energy =                        -76.0603964655044820
  Basis Set: (AUG-CC-PVTZ AUX)
    Blend: AUG-CC-PVTZ-RI
	 Reference Energy          =     -76.0603964655044962 [Eh]
	 Singles Energy            =      -0.0000000000000000 [Eh]
	 Same-Spin Energy          =      -0.0683867705195594 [Eh]
	 Opposite-Spin Energy      =      -0.2153057708981691 [Eh]
	 Correlation Energy        =      -0.2836925414177285 [Eh]
	 Total Energy              =     -76.3440890069222178 [Eh]
	 SCS Total Energy          =     -76.3415589807554795 [Eh]
    Molecular point group: c1
  Basis Set: AUG-CC-PVQZ
    Blend: AUG-CC-PVQZ
  Basis Set: (AUG-CC-PVQZ AUX)
    Blend: AUG-CC-PVQZ-JKFIT
  @DF-RHF Final Energy:   -76.06577596372126
    Total Energy =                        -76.0657759637212649
  Basis Set: (AUG-CC-PVQZ AUX)
  @DF-RHF Final Energy:   -76.06060029975288
    Total Energy =                        -76.0606002997528776
  @DF-RHF Final Energy:   -76.06584807778566
    Total Energy =                        -76.0658480777856596
  @DF-RHF Final Energy:  -305.67189944363344
    Total Energy =                       -305.6718994436334356
  @DF-RHF Final Energy:  -305.68986241620536
    Total Energy =                       -305.6898624162053579
  @DF-RHF Final Energy:  -305.67172055820311
    Total Energy =                       -305.6717205582031056
  @DF-RHF Final Energy:  -305.68982763588696
    Total Energy =                       -305.6898276358869566
  @DF-RHF Final Energy:  -381.71671838873908
    Total Energy =                       -381.7167183887390820
  @DF-RHF Final Energy:  -381.73998967717688
    Total Energy =                       -381.7399896771768795
*** Psi4 exiting successfully. Buy a developer a beer!
                               Psi4 1.4a2.dev224
  @DF-RHF Final Energy:   -76.06039646549354
    Total Energy =                        -76.0603964654935396
  @DF-RHF Final Energy:   -76.06577596370428
    Total Energy =                        -76.0657759637042830
  @DF-RHF Final Energy:   -76.06057243529646
    Total Energy =                        -76.0605724352964785
  @DF-RHF Final Energy:   -76.06583771700390
    Total Energy =                        -76.0658377170039017
  @DF-RHF Final Energy:  -305.67186521403301
    Total Energy =                       -305.6718652140330050
  @DF-RHF Final Energy:  -305.68985688334590
    Total Energy =                       -305.6898568833458967
  @DF-RHF Final Energy:  -305.67172055300927
    Total Energy =                       -305.6717205530092656
  @DF-RHF Final Energy:  -305.68982764166287
    Total Energy =                       -305.6898276416628732
  @DF-RHF Final Energy:  -381.73195305956398
    Total Energy =                       -381.7319530595639776
  @DF-RHF Final Energy:  -381.75523994078890
    Total Energy =                       -381.7552399407888970
*** Psi4 exiting successfully. Buy a developer a beer!
                               Psi4 1.4a2.dev224
                               Psi4 1.4a2.dev224
                               Psi4 1.4a2.dev224
                               Psi4 1.4a2.dev224
                               Psi4 1.4a2.dev224
                               Psi4 1.4a2.dev224
                               Psi4 1.4a2.dev224
  @DF-RHF Final Energy:   -76.06039663864685
    Total Energy =                        -76.0603966386468642
  @DF-RHF Final Energy:   -76.06577614970722
    Total Energy =                        -76.0657761497072187
  @DF-RHF Final Energy:   -76.06043154879606
    Total Energy =                        -76.0604315487960605
  @DF-RHF Final Energy:   -76.06579486081095
    Total Energy =                        -76.0657948608109535
  @DF-RHF Final Energy:  -305.67174393702214
    Total Energy =                       -305.6717439370221427
  @DF-RHF Final Energy:  -305.68983352033314
    Total Energy =                       -305.6898335203331385
  @DF-RHF Final Energy:  -305.67172014676970
    Total Energy =                       -305.6717201467697009
  @DF-RHF Final Energy:  -305.68982721935095
    Total Energy =                       -305.6898272193509456
  @DF-RHF Final Energy:  -381.73618739034418
    Total Energy =                       -381.7361873903441847
  @DF-RHF Final Energy:  -381.75962884001092
    Total Energy =                       -381.7596288400109188
*** Psi4 exiting successfully. Buy a developer a beer!
                               Psi4 1.4a2.dev224
  @DF-RHF Final Energy:   -76.06039644061627
    Total Energy =                        -76.0603964406162874
  @DF-RHF Final Energy:   -76.06577593782553
    Total Energy =                        -76.0657759378255207
  @DF-RHF Final Energy:   -76.06041144965781
    Total Energy =                        -76.0604114496577921
  @DF-RHF Final Energy:   -76.06578471033829
    Total Energy =                        -76.0657847103382920
  @DF-RHF Final Energy:  -305.67173490111486
    Total Energy =                       -305.6717349011148599
  @DF-RHF Final Energy:  -305.68983073500885
    Total Energy =                       -305.6898307350088544
  @DF-RHF Final Energy:  -305.67172014259563
    Total Energy =                       -305.6717201425956318
  @DF-RHF Final Energy:  -305.68982721865831
    Total Energy =                       -305.6898272186583085
  Multiplicity = 1
  @DF-RHF Final Energy:  -381.73468632412300
    Total Energy =                       -381.7346863241230039
	 Singles Energy            =      -0.0000000000000000 [Eh]
	 Same-Spin Energy          =      -0.3938727854136310 [Eh]
	 Opposite-Spin Energy      =      -1.2216296445821455 [Eh]
	 Correlation Energy        =      -1.6155024299957765 [Eh]
	 Total Energy              =    -383.3501887541187898 [Eh]
	 SCS Total Energy          =    -383.3319328260927819 [Eh]
    Molecular point group: c1

    Geometry (in Angstrom), charge = 0, multiplicity = 1:

       Center              X                  Y                   Z               Mass
    ------------   -----------------  -----------------  -----------------  -----------------
         C           -0.349624582099     0.605555111528     0.217321897115    12.000000000000
         C            0.020045417901     1.946945111528     0.146351897115    12.000000000000
         C            1.240265417901     2.316975111528    -0.413118102885    12.000000000000
         C            2.092285417901     1.328345111528    -0.903718102885    12.000000000000
         C            1.731705417901    -0.013164888472    -0.837148102885    12.000000000000
         C            0.507835417901    -0.380654888472    -0.275708102885    12.000000000000
         O            0.205295417901    -1.706094888472    -0.235868102885    15.994914619570
         H           -1.298244582099     0.318665111528     0.652321897115     1.007825032230
         H           -0.651884582099     2.702285111528     0.531301897115     1.007825032230
         H            1.523455417901     3.358505111528    -0.466358102885     1.007825032230
         H            3.043395417901     1.600455111528    -1.341108102885     1.007825032230
         H            2.383015417901    -0.789384888472    -1.213818102885     1.007825032230
         H           -0.666464582099    -1.818974888472     0.175971897115     1.007825032230
         O           -3.880464582099    -2.599894888472     1.665201897115    15.994914619570
         H           -4.542424582099    -3.015214888472     1.107631897115     1.007825032230
         H           -3.884944582099    -3.124394888472     2.469221897115     1.007825032230

  Charge       = 0
  Multiplicity = 1
  Basis Set: AUG-CC-PVQZ
    Blend: AUG-CC-PVQZ
  Basis Set: (AUG-CC-PVQZ AUX)
    Blend: AUG-CC-PVQZ-JKFIT

    Orbital Energies [Eh]
    ---------------------

    Doubly Occupied:

       1A    -20.583489     2A    -20.576687     3A    -11.296947
       4A    -11.235900     5A    -11.234400     6A    -11.226265
       7A    -11.221529     8A    -11.220819     9A     -1.400640
      10A     -1.363044    11A     -1.141600    12A     -1.014417
      13A     -0.999349    14A     -0.841772    15A     -0.817627
      16A     -0.728225    17A     -0.727185    18A     -0.680671
      19A     -0.647976    20A     -0.605516    21A     -0.597415
      22A     -0.586501    23A     -0.585555    24A     -0.563658
      25A     -0.522102    26A     -0.512747    27A     -0.487869
      28A     -0.478411    29A     -0.337484    30A     -0.309804

  @DF-RHF Final Energy:  -381.75814539460760

   => Energetics <=

    Nuclear Repulsion Energy =            325.3505435365592575
    One-Electron Energy =               -1165.1261645254501218
    Two-Electron Energy =                 458.0174755942832689
    Total Energy =                       -381.7581453946075953

  Dipole Moment: [D]
     X:    -2.4944      Y:    -1.2356      Z:     1.1053     Total:     2.9951

  Basis Set: (AUG-CC-PVQZ AUX)
    Blend: AUG-CC-PVQZ-RI
	 Reference Energy          =    -381.7581453946075953 [Eh]
	 Singles Energy            =      -0.0000000000000000 [Eh]
	 Same-Spin Energy          =      -0.4170887138658017 [Eh]
	 Opposite-Spin Energy      =      -1.3766110822591662 [Eh]
	 Correlation Energy        =      -1.7936997961249679 [Eh]
	 Total Energy              =    -383.5518451907325357 [Eh]

	 ================> DF-SCS-MP2 Energies <==================
	-----------------------------------------------------------
	 SCS Same-Spin Scale       =       0.3333333333333333 [-]
	 SCS Opposite-Spin Scale   =       1.2000000000000000 [-]
	 SCS Same-Spin Energy      =      -0.1390295712886006 [Eh]
	 SCS Opposite-Spin Energy  =      -1.6519332987109994 [Eh]
	 SCS Correlation Energy    =      -1.7909628699995999 [Eh]
	 SCS Total Energy          =    -383.5491082646071845 [Eh]
	-----------------------------------------------------------

*** Psi4 exiting successfully. Buy a developer a beer!
