                               Psi4 1.4a2.dev224

  ==> Input File <==

--------------------------------------------------------------------------
#Generated by lconvert.py for cbs job

memory 40 GB

molecule  {
0 1
  C       -3.5552230    -0.1450460     0.6250600
  C       -3.1855540     1.1963420     0.5540920
  C       -1.9653260     1.5663730    -0.0053800
  C       -1.1133080     0.5777380    -0.4959790
  C       -1.4738950    -0.7637690    -0.4294080
  C       -2.6977570    -1.1312560     0.1320280
  O       -3.0003010    -2.4566990     0.1718740
  H       -4.5038360    -0.4319420     1.0600560
  H       -3.8574770     1.9516770     0.9390400
  H       -1.6821440     2.6079020    -0.0586190
  H       -0.1621950     0.8498460    -0.9333730
  H       -0.8225770    -1.5399910    -0.8060840
  H       -3.8720560    -2.5695820     0.5837070
--
0 1
  O       -5.4790560    -2.9600420     1.3283240
  H       -6.1410160    -3.3753600     0.7707510
  H       -5.4835420    -3.4845380     2.1323450
units angstrom
no_reorient
symmetry c1
}

set {
scf_type DF
mp2_type DF
e_convergence 7
reference rhf
}

energy('mp2/aug-cc-pv[tq]z', bsse_type='cp')
--------------------------------------------------------------------------

    Molecular point group: c1
  Charge       = 0
  Multiplicity = 1
  Basis Set: AUG-CC-PVTZ
    Blend: AUG-CC-PVTZ
  Basis Set: (AUG-CC-PVTZ AUX)
    Blend: AUG-CC-PVTZ-JKFIT
  @DF-RHF Final Energy:   -76.06039646550238
    Total Energy =                        -76.0603964655023788
  Basis Set: (AUG-CC-PVTZ AUX)
    Blend: AUG-CC-PVTZ-RI
	 Reference Energy          =     -76.0603964655023788 [Eh]
	 Singles Energy            =      -0.0000000000000000 [Eh]
	 Same-Spin Energy          =      -0.0683867705195426 [Eh]
	 Opposite-Spin Energy      =      -0.2153057708980940 [Eh]
	 Correlation Energy        =      -0.2836925414176366 [Eh]
	 Total Energy              =     -76.3440890069200151 [Eh]
	 SCS Total Energy          =     -76.3415589807532768 [Eh]
    Molecular point group: c1
  Basis Set: AUG-CC-PVQZ
    Blend: AUG-CC-PVQZ
  Basis Set: (AUG-CC-PVQZ AUX)
    Blend: AUG-CC-PVQZ-JKFIT
  @DF-RHF Final Energy:   -76.06577596370383
    Total Energy =                        -76.0657759637038282
  Basis Set: (AUG-CC-PVQZ AUX)
  @DF-RHF Final Energy:   -76.06052358005520
    Total Energy =                        -76.0605235800552038
  @DF-RHF Final Energy:   -76.06582514597069
    Total Energy =                        -76.0658251459706776
  @DF-RHF Final Energy:  -305.67182126075147
    Total Energy =                       -305.6718212607514715
  @DF-RHF Final Energy:  -305.68985014413499
    Total Energy =                       -305.6898501441349936
  @DF-RHF Final Energy:  -305.67172055371753
    Total Energy =                       -305.6717205537175346
  @DF-RHF Final Energy:  -305.68982763832491
    Total Energy =                       -305.6898276383249140
  Multiplicity = 1
  @DF-RHF Final Energy:  -381.73942798698397
    Total Energy =                       -381.7394279869839693
	 Singles Energy            =      -0.0000000000000000 [Eh]
	 Same-Spin Energy          =      -0.3961860681154404 [Eh]
	 Opposite-Spin Energy      =      -1.2245221675019007 [Eh]
	 Correlation Energy        =      -1.6207082356173412 [Eh]
	 Total Energy              =    -383.3601362226012839 [Eh]
	 SCS Total Energy          =    -383.3409166106914086 [Eh]
    Molecular point group: c1

    Geometry (in Angstrom), charge = 0, multiplicity = 1:

       Center              X                  Y                   Z               Mass
    ------------   -----------------  -----------------  -----------------  -----------------
         C           -0.607926368613     0.542798089205     0.337005779300    12.000000000000
         C           -0.238257368613     1.884186089205     0.266037779300    12.000000000000
         C            0.981970631387     2.254217089205    -0.293434220700    12.000000000000
         C            1.833988631387     1.265582089205    -0.784033220700    12.000000000000
         C            1.473401631387    -0.075924910795    -0.717462220700    12.000000000000
         C            0.249539631387    -0.443411910795    -0.156026220700    12.000000000000
         O           -0.053004368613    -1.768854910795    -0.116180220700    15.994914619570
         H           -1.556539368613     0.255902089205     0.772001779300     1.007825032230
         H           -0.910180368613     2.639521089205     0.650985779300     1.007825032230
         H            1.265152631387     3.295746089205    -0.346673220700     1.007825032230
         H            2.785101631387     1.537690089205    -1.221427220700     1.007825032230
         H            2.124719631387    -0.852146910795    -1.094138220700     1.007825032230
         H           -0.924759368613    -1.881737910795     0.295652779300     1.007825032230
         O           -2.531759368613    -2.272197910795     1.040269779300    15.994914619570
         H           -3.193719368613    -2.687515910795     0.482696779300     1.007825032230
         H           -2.536245368613    -2.796693910795     1.844290779300     1.007825032230

  Charge       = 0
  Multiplicity = 1
  Basis Set: AUG-CC-PVQZ
    Blend: AUG-CC-PVQZ
  Basis Set: (AUG-CC-PVQZ AUX)
    Blend: AUG-CC-PVQZ-JKFIT

    Orbital Energies [Eh]
    ---------------------

    Doubly Occupied:

       1A    -20.603704     2A    -20.558585     3A    -11.285972
       4A    -11.228118     5A    -11.226761     6A    -11.215558
       7A    -11.212902     8A    -11.212211     9A     -1.396386
      10A     -1.378946    11A     -1.132766    12A     -1.005857
      13A     -0.989766    14A     -0.832479    15A     -0.808007
      16A     -0.755714    17A     -0.720785    18A     -0.677107
      19A     -0.636833    20A     -0.628805    21A     -0.597488
      22A     -0.576253    23A     -0.569075    24A     -0.559104
      25A     -0.539459    26A     -0.503270    27A     -0.476922
      28A     -0.467944    29A     -0.329578    30A     -0.299393

  @DF-RHF Final Energy:  -381.76280457895342

   => Energetics <=

    Nuclear Repulsion Energy =            344.3837092862154918
    One-Electron Energy =               -1203.4415279569093400
    Two-Electron Energy =                 477.2950140917404838
    Total Energy =                       -381.7628045789534212

  Dipole Moment: [D]
     X:    -3.1873      Y:    -1.8183      Z:     1.3931     Total:     3.9251

  Basis Set: (AUG-CC-PVQZ AUX)
    Blend: AUG-CC-PVQZ-RI
	 Reference Energy          =    -381.7628045789534212 [Eh]
	 Singles Energy            =      -0.0000000000000000 [Eh]
	 Same-Spin Energy          =      -0.4193781583482997 [Eh]
	 Opposite-Spin Energy      =      -1.3786074528101393 [Eh]
	 Correlation Energy        =      -1.7979856111584391 [Eh]
	 Total Energy              =    -383.5607901901118453 [Eh]

	 ================> DF-SCS-MP2 Energies <==================
	-----------------------------------------------------------
	 SCS Same-Spin Scale       =       0.3333333333333333 [-]
	 SCS Opposite-Spin Scale   =       1.2000000000000000 [-]
	 SCS Same-Spin Energy      =      -0.1397927194494332 [Eh]
	 SCS Opposite-Spin Energy  =      -1.6543289433721671 [Eh]
	 SCS Correlation Energy    =      -1.7941216628216003 [Eh]
	 SCS Total Energy          =    -383.5569262417750451 [Eh]
	-----------------------------------------------------------

*** Psi4 exiting successfully. Buy a developer a beer!
