                               Psi4 1.4a2.dev224

  ==> Input File <==

--------------------------------------------------------------------------
#Generated by lconvert.py for cbs job

memory 20 GB

molecule  {
0 1
  C      -3.555220   -0.145050    0.625060
  C      -3.185550    1.196340    0.554090
  C      -1.965330    1.566370   -0.005380
  C      -1.113310    0.577740   -0.495980
  C      -1.473890   -0.763770   -0.429410
  C      -2.697760   -1.131260    0.132030
  O      -3.000300   -2.456700    0.171870
  H      -4.503840   -0.431940    1.060060
  H      -3.857480    1.951680    0.939040
  H      -1.682140    2.607900   -0.058620
  H      -0.162200    0.849850   -0.933370
  H      -0.822580   -1.539990   -0.806080
  H      -3.872060   -2.569580    0.583710
--
0 1
  O      -6.071110   -3.103900    1.602660
  H      -6.733070   -3.519210    1.045080
  H      -6.075590   -3.628390    2.406680
units angstrom
no_reorient
symmetry c1
}

set {
scf_type DF
mp2_type DF
e_convergence 7
reference rhf
}

energy('mp2/aug-cc-pv[tq]z', bsse_type='cp')
--------------------------------------------------------------------------

    Molecular point group: c1
  Charge       = 0
  Multiplicity = 1
  Basis Set: AUG-CC-PVTZ
    Blend: AUG-CC-PVTZ
  Basis Set: (AUG-CC-PVTZ AUX)
    Blend: AUG-CC-PVTZ-JKFIT
  @DF-RHF Final Energy:   -76.06039667398110
    Total Energy =                        -76.0603966739811028
  Basis Set: (AUG-CC-PVTZ AUX)
    Blend: AUG-CC-PVTZ-RI
	 Reference Energy          =     -76.0603966739811028 [Eh]
	 Singles Energy            =      -0.0000000000000000 [Eh]
	 Same-Spin Energy          =      -0.0683867187702825 [Eh]
	 Opposite-Spin Energy      =      -0.2153056183159140 [Eh]
	 Correlation Energy        =      -0.2836923370861966 [Eh]
	 Total Energy              =     -76.3440890110672967 [Eh]
	 SCS Total Energy          =     -76.3415589888836337 [Eh]
    Molecular point group: c1
  Basis Set: AUG-CC-PVQZ
    Blend: AUG-CC-PVQZ
  Basis Set: (AUG-CC-PVQZ AUX)
    Blend: AUG-CC-PVQZ-JKFIT
  @DF-RHF Final Energy:   -76.06577617987342
    Total Energy =                        -76.0657761798734242
  Basis Set: (AUG-CC-PVQZ AUX)
  @DF-RHF Final Energy:   -76.06047473734996
    Total Energy =                        -76.0604747373499634
  @DF-RHF Final Energy:   -76.06580721381731
    Total Energy =                        -76.0658072138173083
  @DF-RHF Final Energy:  -305.67176991051605
    Total Energy =                       -305.6717699105160477
  @DF-RHF Final Energy:  -305.68983897871618
    Total Energy =                       -305.6898389787161818
  @DF-RHF Final Energy:  -305.67172014621946
    Total Energy =                       -305.6717201462194566
  @DF-RHF Final Energy:  -305.68982721840189
    Total Energy =                       -305.6898272184018879
  Multiplicity = 1
  @DF-RHF Final Energy:  -381.73862221822611
    Total Energy =                       -381.7386222182261122
	 Singles Energy            =      -0.0000000000000000 [Eh]
	 Same-Spin Energy          =      -0.3945485025742584 [Eh]
	 Opposite-Spin Energy      =      -1.2226522362869470 [Eh]
	 Correlation Energy        =      -1.6172007388612055 [Eh]
	 Total Energy              =    -383.3558229570872982 [Eh]
	 SCS Total Energy          =    -383.3373210692952284 [Eh]
    Molecular point group: c1

    Geometry (in Angstrom), charge = 0, multiplicity = 1:

       Center              X                  Y                   Z               Mass
    ------------   -----------------  -----------------  -----------------  -----------------
         C           -0.512760916653     0.565918082438     0.292911676613    12.000000000000
         C           -0.143090916653     1.907308082438     0.221941676613    12.000000000000
         C            1.077129083347     2.277338082438    -0.337528323387    12.000000000000
         C            1.929149083347     1.288708082438    -0.828128323387    12.000000000000
         C            1.568569083347    -0.052801917562    -0.761558323387    12.000000000000
         C            0.344699083347    -0.420291917562    -0.200118323387    12.000000000000
         O            0.042159083347    -1.745731917562    -0.160278323387    15.994914619570
         H           -1.461380916653     0.279028082438     0.727911676613     1.007825032230
         H           -0.815020916653     2.662648082438     0.606891676613     1.007825032230
         H            1.360319083347     3.318868082438    -0.390768323387     1.007825032230
         H            2.880259083347     1.560818082438    -1.265518323387     1.007825032230
         H            2.219879083347    -0.829021917562    -1.138228323387     1.007825032230
         H           -0.829600916653    -1.858611917562     0.251561676613     1.007825032230
         O           -3.028650916653    -2.392931917562     1.270511676613    15.994914619570
         H           -3.690610916653    -2.808241917562     0.712931676613     1.007825032230
         H           -3.033130916653    -2.917421917562     2.074531676613     1.007825032230

  Charge       = 0
  Multiplicity = 1
  Basis Set: AUG-CC-PVQZ
    Blend: AUG-CC-PVQZ
  Basis Set: (AUG-CC-PVQZ AUX)
    Blend: AUG-CC-PVQZ-JKFIT

    Orbital Energies [Eh]
    ---------------------

    Doubly Occupied:

       1A    -20.588349     2A    -20.575001     3A    -11.292305
       4A    -11.232301     5A    -11.231002     6A    -11.221372
       7A    -11.217651     8A    -11.217371     9A     -1.393177
      10A     -1.375088    11A     -1.137700    12A     -1.010573
      13A     -0.995139    14A     -0.837267    15A     -0.813296
      16A     -0.738795    17A     -0.723137    18A     -0.676671
      19A     -0.643265    20A     -0.611873    21A     -0.601552
      22A     -0.581380    23A     -0.579819    24A     -0.558296
      25A     -0.534327    26A     -0.508686    27A     -0.483507
      28A     -0.474107    29A     -0.333868    30A     -0.305456

  @DF-RHF Final Energy:  -381.76202941212580

   => Energetics <=

    Nuclear Repulsion Energy =            335.7215092977295399
    One-Electron Energy =               -1185.9824096510142226
    Two-Electron Energy =                 468.4988709411588843
    Total Energy =                       -381.7620294121257984

  Dipole Moment: [D]
     X:    -2.7706      Y:    -1.4561      Z:     1.2210     Total:     3.3597

  Basis Set: (AUG-CC-PVQZ AUX)
    Blend: AUG-CC-PVQZ-RI
	 Reference Energy          =    -381.7620294121257984 [Eh]
	 Singles Energy            =      -0.0000000000000000 [Eh]
	 Same-Spin Energy          =      -0.4177278082117007 [Eh]
	 Opposite-Spin Energy      =      -1.3772014971330178 [Eh]
	 Correlation Energy        =      -1.7949293053447186 [Eh]
	 Total Energy              =    -383.5569587174705362 [Eh]

	 ================> DF-SCS-MP2 Energies <==================
	-----------------------------------------------------------
	 SCS Same-Spin Scale       =       0.3333333333333333 [-]
	 SCS Opposite-Spin Scale   =       1.2000000000000000 [-]
	 SCS Same-Spin Energy      =      -0.1392426027372336 [Eh]
	 SCS Opposite-Spin Energy  =      -1.6526417965596212 [Eh]
	 SCS Correlation Energy    =      -1.7918843992968547 [Eh]
	 SCS Total Energy          =    -383.5539138114226603 [Eh]
	-----------------------------------------------------------

*** Psi4 exiting successfully. Buy a developer a beer!
