                               Psi4 1.4a2.dev224

  ==> Input File <==

--------------------------------------------------------------------------
#Generated by lconvert.py for cbs job

memory 40 GB

molecule  {
0 1
  C       -3.5552230    -0.1450460     0.6250600
  C       -3.1855540     1.1963420     0.5540920
  C       -1.9653260     1.5663730    -0.0053800
  C       -1.1133080     0.5777380    -0.4959790
  C       -1.4738950    -0.7637690    -0.4294080
  C       -2.6977570    -1.1312560     0.1320280
  O       -3.0003010    -2.4566990     0.1718740
  H       -4.5038360    -0.4319420     1.0600560
  H       -3.8574770     1.9516770     0.9390400
  H       -1.6821440     2.6079020    -0.0586190
  H       -0.1621950     0.8498460    -0.9333730
  H       -0.8225770    -1.5399910    -0.8060840
  H       -3.8720560    -2.5695820     0.5837070
--
0 1
  O       -5.5636350    -2.9805930     1.3675140
  H       -6.2255950    -3.3959110     0.8099410
  H       -5.5681210    -3.5050890     2.1715350
units angstrom
no_reorient
symmetry c1
}

set {
scf_type DF
mp2_type DF
e_convergence 7
reference rhf
}

energy('mp2/aug-cc-pv[tq]z', bsse_type='cp')
--------------------------------------------------------------------------

    Molecular point group: c1
  Charge       = 0
  Multiplicity = 1
  Basis Set: AUG-CC-PVTZ
    Blend: AUG-CC-PVTZ
  Basis Set: (AUG-CC-PVTZ AUX)
    Blend: AUG-CC-PVTZ-JKFIT
  @DF-RHF Final Energy:   -76.06039646549344
    Total Energy =                        -76.0603964654934543
  Basis Set: (AUG-CC-PVTZ AUX)
    Blend: AUG-CC-PVTZ-RI
	 Reference Energy          =     -76.0603964654934401 [Eh]
	 Singles Energy            =      -0.0000000000000000 [Eh]
	 Same-Spin Energy          =      -0.0683867705195684 [Eh]
	 Opposite-Spin Energy      =      -0.2153057708981530 [Eh]
	 Correlation Energy        =      -0.2836925414177214 [Eh]
	 Total Energy              =     -76.3440890069111617 [Eh]
	 SCS Total Energy          =     -76.3415589807444093 [Eh]
    Molecular point group: c1
  Basis Set: AUG-CC-PVQZ
    Blend: AUG-CC-PVQZ
  Basis Set: (AUG-CC-PVQZ AUX)
    Blend: AUG-CC-PVQZ-JKFIT
  @DF-RHF Final Energy:   -76.06577596371480
    Total Energy =                        -76.0657759637147848
  Basis Set: (AUG-CC-PVQZ AUX)
  @DF-RHF Final Energy:   -76.06050824231120
    Total Energy =                        -76.0605082423112009
  @DF-RHF Final Energy:   -76.06582121122531
    Total Energy =                        -76.0658212112253125
  @DF-RHF Final Energy:  -305.67180959003258
    Total Energy =                       -305.6718095900325807
  @DF-RHF Final Energy:  -305.68984833691212
    Total Energy =                       -305.6898483369121209
  @DF-RHF Final Energy:  -305.67172055754935
    Total Energy =                       -305.6717205575493495
  @DF-RHF Final Energy:  -305.68982764183374
    Total Energy =                       -305.6898276418337446
  Multiplicity = 1
  @DF-RHF Final Energy:  -381.74006205650255
    Total Energy =                       -381.7400620565025520
	 Singles Energy            =      -0.0000000000000000 [Eh]
	 Same-Spin Energy          =      -0.3958182224321221 [Eh]
	 Opposite-Spin Energy      =      -1.2241916024638220 [Eh]
	 Correlation Energy        =      -1.6200098248959440 [Eh]
	 Total Energy              =    -383.3600718813984827 [Eh]
	 SCS Total Energy          =    -383.3410313869364927 [Eh]
    Molecular point group: c1

    Geometry (in Angstrom), charge = 0, multiplicity = 1:

       Center              X                  Y                   Z               Mass
    ------------   -----------------  -----------------  -----------------  -----------------
         C           -0.594331700855     0.546101320705     0.330706638504    12.000000000000
         C           -0.224662700855     1.887489320705     0.259738638504    12.000000000000
         C            0.995565299145     2.257520320705    -0.299733361496    12.000000000000
         C            1.847583299145     1.268885320705    -0.790332361496    12.000000000000
         C            1.486996299145    -0.072621679295    -0.723761361496    12.000000000000
         C            0.263134299145    -0.440108679295    -0.162325361496    12.000000000000
         O           -0.039409700855    -1.765551679295    -0.122479361496    15.994914619570
         H           -1.542944700855     0.259205320705     0.765702638504     1.007825032230
         H           -0.896585700855     2.642824320705     0.644686638504     1.007825032230
         H            1.278747299145     3.299049320705    -0.352972361496     1.007825032230
         H            2.798696299145     1.540993320705    -1.227726361496     1.007825032230
         H            2.138314299145    -0.848843679295    -1.100437361496     1.007825032230
         H           -0.911164700855    -1.878434679295     0.289353638504     1.007825032230
         O           -2.602743700855    -2.289445679295     1.073160638504    15.994914619570
         H           -3.264703700855    -2.704763679295     0.515587638504     1.007825032230
         H           -2.607229700855    -2.813941679295     1.877181638504     1.007825032230

  Charge       = 0
  Multiplicity = 1
  Basis Set: AUG-CC-PVQZ
    Blend: AUG-CC-PVQZ
  Basis Set: (AUG-CC-PVQZ AUX)
    Blend: AUG-CC-PVQZ-JKFIT

    Orbital Energies [Eh]
    ---------------------

    Doubly Occupied:

       1A    -20.600816     2A    -20.562248     3A    -11.287221
       4A    -11.228886     5A    -11.227569     6A    -11.216629
       7A    -11.213767     8A    -11.213290     9A     -1.392483
      10A     -1.381282    11A     -1.133704    12A     -1.006744
      13A     -0.990777    14A     -0.833233    15A     -0.808944
      16A     -0.752315    17A     -0.720356    18A     -0.676182
      19A     -0.638097    20A     -0.626542    21A     -0.598044
      22A     -0.577178    23A     -0.571295    24A     -0.557318
      25A     -0.540736    26A     -0.504323    27A     -0.478303
      28A     -0.469187    29A     -0.330376    30A     -0.300597

  @DF-RHF Final Energy:  -381.76346100658083

   => Energetics <=

    Nuclear Repulsion Energy =            342.9758134240784671
    One-Electron Energy =               -1200.6016622461290808
    Two-Electron Energy =                 475.8623878154697309
    Total Energy =                       -381.7634610065808261

  Dipole Moment: [D]
     X:    -3.1040      Y:    -1.7442      Z:     1.3588     Total:     3.8109

  Basis Set: (AUG-CC-PVQZ AUX)
    Blend: AUG-CC-PVQZ-RI
	 Reference Energy          =    -381.7634610065808261 [Eh]
	 Singles Energy            =      -0.0000000000000000 [Eh]
	 Same-Spin Energy          =      -0.4190020930341191 [Eh]
	 Opposite-Spin Energy      =      -1.3782956862238320 [Eh]
	 Correlation Energy        =      -1.7972977792579510 [Eh]
	 Total Energy              =    -383.5607587858388001 [Eh]

	 ================> DF-SCS-MP2 Energies <==================
	-----------------------------------------------------------
	 SCS Same-Spin Scale       =       0.3333333333333333 [-]
	 SCS Opposite-Spin Scale   =       1.2000000000000000 [-]
	 SCS Same-Spin Energy      =      -0.1396673643447063 [Eh]
	 SCS Opposite-Spin Energy  =      -1.6539548234685983 [Eh]
	 SCS Correlation Energy    =      -1.7936221878133047 [Eh]
	 SCS Total Energy          =    -383.5570831943941243 [Eh]
	-----------------------------------------------------------

*** Psi4 exiting successfully. Buy a developer a beer!
