                               Psi4 1.4a2.dev224

  ==> Input File <==

--------------------------------------------------------------------------
#Generated by lconvert.py for cbs job

memory 40 GB

molecule  {
0 1
  C       -3.5552230    -0.1450460     0.6250600
  C       -3.1855540     1.1963420     0.5540920
  C       -1.9653260     1.5663730    -0.0053800
  C       -1.1133080     0.5777380    -0.4959790
  C       -1.4738950    -0.7637690    -0.4294080
  C       -2.6977570    -1.1312560     0.1320280
  O       -3.0003010    -2.4566990     0.1718740
  H       -4.5038360    -0.4319420     1.0600560
  H       -3.8574770     1.9516770     0.9390400
  H       -1.6821440     2.6079020    -0.0586190
  H       -0.1621950     0.8498460    -0.9333730
  H       -0.8225770    -1.5399910    -0.8060840
  H       -3.8720560    -2.5695820     0.5837070
--
0 1
  O       -5.0561610    -2.8572900     1.1323720
  H       -5.7181210    -3.2726080     0.5747990
  H       -5.0606470    -3.3817860     1.9363930
units angstrom
no_reorient
symmetry c1
}

set {
scf_type DF
mp2_type DF
e_convergence 7
reference rhf
}

energy('mp2/aug-cc-pv[tq]z', bsse_type='cp')
--------------------------------------------------------------------------

    Molecular point group: c1
  Charge       = 0
  Multiplicity = 1
  Basis Set: AUG-CC-PVTZ
    Blend: AUG-CC-PVTZ
  Basis Set: (AUG-CC-PVTZ AUX)
    Blend: AUG-CC-PVTZ-JKFIT
  @DF-RHF Final Energy:   -76.06039646550450
    Total Energy =                        -76.0603964655044820
  Basis Set: (AUG-CC-PVTZ AUX)
    Blend: AUG-CC-PVTZ-RI
	 Reference Energy          =     -76.0603964655044962 [Eh]
	 Singles Energy            =      -0.0000000000000000 [Eh]
	 Same-Spin Energy          =      -0.0683867705195594 [Eh]
	 Opposite-Spin Energy      =      -0.2153057708981691 [Eh]
	 Correlation Energy        =      -0.2836925414177285 [Eh]
	 Total Energy              =     -76.3440890069222178 [Eh]
	 SCS Total Energy          =     -76.3415589807554795 [Eh]
    Molecular point group: c1
  Basis Set: AUG-CC-PVQZ
    Blend: AUG-CC-PVQZ
  Basis Set: (AUG-CC-PVQZ AUX)
    Blend: AUG-CC-PVQZ-JKFIT
  @DF-RHF Final Energy:   -76.06577596372126
    Total Energy =                        -76.0657759637212649
  Basis Set: (AUG-CC-PVQZ AUX)
  @DF-RHF Final Energy:   -76.06060029975288
    Total Energy =                        -76.0606002997528776
  @DF-RHF Final Energy:   -76.06584807778566
    Total Energy =                        -76.0658480777856596
  @DF-RHF Final Energy:  -305.67189944363344
    Total Energy =                       -305.6718994436334356
  @DF-RHF Final Energy:  -305.68986241620536
    Total Energy =                       -305.6898624162053579
  @DF-RHF Final Energy:  -305.67172055820311
    Total Energy =                       -305.6717205582031056
  @DF-RHF Final Energy:  -305.68982763588696
    Total Energy =                       -305.6898276358869566
  Multiplicity = 1
  @DF-RHF Final Energy:  -381.71671838873908
    Total Energy =                       -381.7167183887390820
	 Singles Energy            =      -0.0000000000000000 [Eh]
	 Same-Spin Energy          =      -0.3992400329826823 [Eh]
	 Opposite-Spin Energy      =      -1.2270056827025084 [Eh]
	 Correlation Energy        =      -1.6262457156851906 [Eh]
	 Total Energy              =    -383.3429641044242544 [Eh]
	 SCS Total Energy          =    -383.3222052189763076 [Eh]
    Molecular point group: c1

    Geometry (in Angstrom), charge = 0, multiplicity = 1:

       Center              X                  Y                   Z               Mass
    ------------   -----------------  -----------------  -----------------  -----------------
         C           -0.675899707399     0.526282413903     0.368501804748    12.000000000000
         C           -0.306230707399     1.867670413903     0.297533804748    12.000000000000
         C            0.913997292601     2.237701413903    -0.261938195252    12.000000000000
         C            1.766015292601     1.249066413903    -0.752537195252    12.000000000000
         C            1.405428292601    -0.092440586097    -0.685966195252    12.000000000000
         C            0.181566292601    -0.459927586097    -0.124530195252    12.000000000000
         O           -0.120977707399    -1.785370586097    -0.084684195252    15.994914619570
         H           -1.624512707399     0.239386413903     0.803497804748     1.007825032230
         H           -0.978153707399     2.623005413903     0.682481804748     1.007825032230
         H            1.197179292601     3.279230413903    -0.315177195252     1.007825032230
         H            2.717128292601     1.521174413903    -1.189931195252     1.007825032230
         H            2.056746292601    -0.868662586097    -1.062642195252     1.007825032230
         H           -0.992732707399    -1.898253586097     0.327148804748     1.007825032230
         O           -2.176837707399    -2.185961586097     0.875813804748    15.994914619570
         H           -2.838797707399    -2.601279586097     0.318240804748     1.007825032230
         H           -2.181323707399    -2.710457586097     1.679834804748     1.007825032230

  Charge       = 0
  Multiplicity = 1
  Basis Set: AUG-CC-PVQZ
    Blend: AUG-CC-PVQZ
  Basis Set: (AUG-CC-PVQZ AUX)
    Blend: AUG-CC-PVQZ-JKFIT

    Orbital Energies [Eh]
    ---------------------

    Doubly Occupied:

       1A    -20.624005     2A    -20.526124     3A    -11.276632
       4A    -11.222972     5A    -11.221002     6A    -11.208400
       7A    -11.206652     8A    -11.204147     9A     -1.435733
      10A     -1.357732    11A     -1.126216    12A     -0.999710
      13A     -0.983237    14A     -0.832842    15A     -0.803996
      16A     -0.782816    17A     -0.745846    18A     -0.683634
      19A     -0.630429    20A     -0.627471    21A     -0.603086
      22A     -0.570419    23A     -0.566810    24A     -0.552011
      25A     -0.518565    26A     -0.495521    27A     -0.464189
      28A     -0.458231    29A     -0.324109    30A     -0.290328

  @DF-RHF Final Energy:  -381.73998967717688

   => Energetics <=

    Nuclear Repulsion Energy =            352.6175483858848452
    One-Electron Energy =               -1220.0293435640855932
    Two-Electron Energy =                 485.6718055010238118
    Total Energy =                       -381.7399896771768795

  Dipole Moment: [D]
     X:    -3.8100      Y:    -2.3854      Z:     1.6483     Total:     4.7878

  Basis Set: (AUG-CC-PVQZ AUX)
    Blend: AUG-CC-PVQZ-RI
	 Reference Energy          =    -381.7399896771768795 [Eh]
	 Singles Energy            =      -0.0000000000000000 [Eh]
	 Same-Spin Energy          =      -0.4225033457988913 [Eh]
	 Opposite-Spin Energy      =      -1.3811167392072852 [Eh]
	 Correlation Energy        =      -1.8036200850061763 [Eh]
	 Total Energy              =    -383.5436097621830527 [Eh]

	 ================> DF-SCS-MP2 Energies <==================
	-----------------------------------------------------------
	 SCS Same-Spin Scale       =       0.3333333333333333 [-]
	 SCS Opposite-Spin Scale   =       1.2000000000000000 [-]
	 SCS Same-Spin Energy      =      -0.1408344485996304 [Eh]
	 SCS Opposite-Spin Energy  =      -1.6573400870487422 [Eh]
	 SCS Correlation Energy    =      -1.7981745356483727 [Eh]
	 SCS Total Energy          =    -383.5381642128252793 [Eh]
	-----------------------------------------------------------

*** Psi4 exiting successfully. Buy a developer a beer!
