                               Psi4 1.4a2.dev224

  ==> Input File <==

--------------------------------------------------------------------------
#Generated by lconvert.py for cbs job

memory 40 GB

molecule  {
0 1
  C       -3.5552230    -0.1450460     0.6250600
  C       -3.1855540     1.1963420     0.5540920
  C       -1.9653260     1.5663730    -0.0053800
  C       -1.1133080     0.5777380    -0.4959790
  C       -1.4738950    -0.7637690    -0.4294080
  C       -2.6977570    -1.1312560     0.1320280
  O       -3.0003010    -2.4566990     0.1718740
  H       -4.5038360    -0.4319420     1.0600560
  H       -3.8574770     1.9516770     0.9390400
  H       -1.6821440     2.6079020    -0.0586190
  H       -0.1621950     0.8498460    -0.9333730
  H       -0.8225770    -1.5399910    -0.8060840
  H       -3.8720560    -2.5695820     0.5837070
--
0 1
  O       -5.2253190    -2.8983910     1.2107530
  H       -5.8872790    -3.3137090     0.6531800
  H       -5.2298050    -3.4228870     2.0147740
units angstrom
no_reorient
symmetry c1
}

set {
scf_type DF
mp2_type DF
e_convergence 7
reference rhf
}

energy('mp2/aug-cc-pv[tq]z', bsse_type='cp')
--------------------------------------------------------------------------

    Molecular point group: c1
  Charge       = 0
  Multiplicity = 1
  Basis Set: AUG-CC-PVTZ
    Blend: AUG-CC-PVTZ
  Basis Set: (AUG-CC-PVTZ AUX)
    Blend: AUG-CC-PVTZ-JKFIT
  @DF-RHF Final Energy:   -76.06039646549354
    Total Energy =                        -76.0603964654935396
  Basis Set: (AUG-CC-PVTZ AUX)
    Blend: AUG-CC-PVTZ-RI
	 Reference Energy          =     -76.0603964654935396 [Eh]
	 Singles Energy            =      -0.0000000000000000 [Eh]
	 Same-Spin Energy          =      -0.0683867705195606 [Eh]
	 Opposite-Spin Energy      =      -0.2153057708981466 [Eh]
	 Correlation Energy        =      -0.2836925414177072 [Eh]
	 Total Energy              =     -76.3440890069112470 [Eh]
	 SCS Total Energy          =     -76.3415589807445087 [Eh]
    Molecular point group: c1
  Basis Set: AUG-CC-PVQZ
    Blend: AUG-CC-PVQZ
  Basis Set: (AUG-CC-PVQZ AUX)
    Blend: AUG-CC-PVQZ-JKFIT
  @DF-RHF Final Energy:   -76.06577596370428
    Total Energy =                        -76.0657759637042830
  Basis Set: (AUG-CC-PVQZ AUX)
  @DF-RHF Final Energy:   -76.06057243529646
    Total Energy =                        -76.0605724352964785
  @DF-RHF Final Energy:   -76.06583771700390
    Total Energy =                        -76.0658377170039017
  @DF-RHF Final Energy:  -305.67186521403301
    Total Energy =                       -305.6718652140330050
  @DF-RHF Final Energy:  -305.68985688334590
    Total Energy =                       -305.6898568833458967
  @DF-RHF Final Energy:  -305.67172055300927
    Total Energy =                       -305.6717205530092656
  @DF-RHF Final Energy:  -305.68982764166287
    Total Energy =                       -305.6898276416628732
  Multiplicity = 1
  @DF-RHF Final Energy:  -381.73195305956398
    Total Energy =                       -381.7319530595639776
	 Singles Energy            =      -0.0000000000000000 [Eh]
	 Same-Spin Energy          =      -0.3977416391738918 [Eh]
	 Opposite-Spin Energy      =      -1.2257957361792680 [Eh]
	 Correlation Energy        =      -1.6235373753531597 [Eh]
	 Total Energy              =    -383.3554904349171579 [Eh]
	 SCS Total Energy          =    -383.3354884893703911 [Eh]
    Molecular point group: c1

    Geometry (in Angstrom), charge = 0, multiplicity = 1:

       Center              X                  Y                   Z               Mass
    ------------   -----------------  -----------------  -----------------  -----------------
         C           -0.648710371885     0.532888716170     0.355903362422    12.000000000000
         C           -0.279041371885     1.874276716170     0.284935362422    12.000000000000
         C            0.941186628115     2.244307716170    -0.274536637578    12.000000000000
         C            1.793204628115     1.255672716170    -0.765135637578    12.000000000000
         C            1.432617628115    -0.085834283830    -0.698564637578    12.000000000000
         C            0.208755628115    -0.453321283830    -0.137128637578    12.000000000000
         O           -0.093788371885    -1.778764283830    -0.097282637578    15.994914619570
         H           -1.597323371885     0.245992716170     0.790899362422     1.007825032230
         H           -0.950964371885     2.629611716170     0.669883362422     1.007825032230
         H            1.224368628115     3.285836716170    -0.327775637578     1.007825032230
         H            2.744317628115     1.527780716170    -1.202529637578     1.007825032230
         H            2.083935628115    -0.862056283830    -1.075240637578     1.007825032230
         H           -0.965543371885    -1.891647283830     0.314550362422     1.007825032230
         O           -2.318806371885    -2.220456283830     0.941596362422    15.994914619570
         H           -2.980766371885    -2.635774283830     0.384023362422     1.007825032230
         H           -2.323292371885    -2.744952283830     1.745617362422     1.007825032230

  Charge       = 0
  Multiplicity = 1
  Basis Set: AUG-CC-PVQZ
    Blend: AUG-CC-PVQZ
  Basis Set: (AUG-CC-PVQZ AUX)
    Blend: AUG-CC-PVQZ-JKFIT

    Orbital Energies [Eh]
    ---------------------

    Doubly Occupied:

       1A    -20.614511     2A    -20.542647     3A    -11.281099
       4A    -11.225321     5A    -11.223705     6A    -11.211663
       7A    -11.209597     8A    -11.207997     9A     -1.414855
      10A     -1.368224    11A     -1.129252    12A     -1.002554
      13A     -0.986108    14A     -0.830890    15A     -0.805126
      16A     -0.769425    17A     -0.729551    18A     -0.681899
      19A     -0.632075    20A     -0.631536    21A     -0.597946
      22A     -0.573079    23A     -0.565974    24A     -0.560201
      25A     -0.529749    26A     -0.499221    27A     -0.470955
      28A     -0.462969    29A     -0.326632    30A     -0.294674

  @DF-RHF Final Energy:  -381.75523994078890

   => Energetics <=

    Nuclear Repulsion Energy =            349.0529042455621038
    One-Electron Energy =               -1212.8574132187468422
    Two-Electron Energy =                 482.0492690323958414
    Total Energy =                       -381.7552399407888970

  Dipole Moment: [D]
     X:    -3.5133      Y:    -2.1124      Z:     1.5270     Total:     4.3746

  Basis Set: (AUG-CC-PVQZ AUX)
    Blend: AUG-CC-PVQZ-RI
	 Reference Energy          =    -381.7552399407888970 [Eh]
	 Singles Energy            =      -0.0000000000000000 [Eh]
	 Same-Spin Energy          =      -0.4209727209673216 [Eh]
	 Opposite-Spin Energy      =      -1.3799208084654337 [Eh]
	 Correlation Energy        =      -1.8008935294327553 [Eh]
	 Total Energy              =    -383.5561334702216527 [Eh]

	 ================> DF-SCS-MP2 Energies <==================
	-----------------------------------------------------------
	 SCS Same-Spin Scale       =       0.3333333333333333 [-]
	 SCS Opposite-Spin Scale   =       1.2000000000000000 [-]
	 SCS Same-Spin Energy      =      -0.1403242403224405 [Eh]
	 SCS Opposite-Spin Energy  =      -1.6559049701585205 [Eh]
	 SCS Correlation Energy    =      -1.7962292104809610 [Eh]
	 SCS Total Energy          =    -383.5514691512698846 [Eh]
	-----------------------------------------------------------

*** Psi4 exiting successfully. Buy a developer a beer!
