                               Psi4 1.4a2.dev224

  ==> Input File <==

--------------------------------------------------------------------------
#Generated by lconvert.py for cbs job

memory 40 GB

molecule  {
0 1
  C       -3.5552230    -0.1450460     0.6250600
  C       -3.1855540     1.1963420     0.5540920
  C       -1.9653260     1.5663730    -0.0053800
  C       -1.1133080     0.5777380    -0.4959790
  C       -1.4738950    -0.7637690    -0.4294080
  C       -2.6977570    -1.1312560     0.1320280
  O       -3.0003010    -2.4566990     0.1718740
  H       -4.5038360    -0.4319420     1.0600560
  H       -3.8574770     1.9516770     0.9390400
  H       -1.6821440     2.6079020    -0.0586190
  H       -0.1621950     0.8498460    -0.9333730
  H       -0.8225770    -1.5399910    -0.8060840
  H       -3.8720560    -2.5695820     0.5837070
--
0 1
  O       -5.7327930    -3.0216940     1.4458950
  H       -6.3947530    -3.4370120     0.8883220
  H       -5.7372790    -3.5461900     2.2499160
units angstrom
no_reorient
symmetry c1
}

set {
scf_type DF
mp2_type DF
e_convergence 7
reference rhf
}

energy('mp2/aug-cc-pv[tq]z', bsse_type='cp')
--------------------------------------------------------------------------

    Molecular point group: c1
  Charge       = 0
  Multiplicity = 1
  Basis Set: AUG-CC-PVTZ
    Blend: AUG-CC-PVTZ
  Basis Set: (AUG-CC-PVTZ AUX)
    Blend: AUG-CC-PVTZ-JKFIT
  @DF-RHF Final Energy:   -76.06039646549942
    Total Energy =                        -76.0603964654994229
  Basis Set: (AUG-CC-PVTZ AUX)
    Blend: AUG-CC-PVTZ-RI
	 Reference Energy          =     -76.0603964654994229 [Eh]
	 Singles Energy            =      -0.0000000000000000 [Eh]
	 Same-Spin Energy          =      -0.0683867705195673 [Eh]
	 Opposite-Spin Energy      =      -0.2153057708981780 [Eh]
	 Correlation Energy        =      -0.2836925414177454 [Eh]
	 Total Energy              =     -76.3440890069171729 [Eh]
	 SCS Total Energy          =     -76.3415589807504205 [Eh]
    Molecular point group: c1
  Basis Set: AUG-CC-PVQZ
    Blend: AUG-CC-PVQZ
  Basis Set: (AUG-CC-PVQZ AUX)
    Blend: AUG-CC-PVQZ-JKFIT
  @DF-RHF Final Energy:   -76.06577596371784
    Total Energy =                        -76.0657759637178401
  Basis Set: (AUG-CC-PVQZ AUX)
  @DF-RHF Final Energy:   -76.06048893824956
    Total Energy =                        -76.0604889382495486
  @DF-RHF Final Energy:   -76.06581600542519
    Total Energy =                        -76.0658160054251766
  @DF-RHF Final Energy:  -305.67179354441890
    Total Energy =                       -305.6717935444189038
  @DF-RHF Final Energy:  -305.68984506183233
    Total Energy =                       -305.6898450618323295
  @DF-RHF Final Energy:  -305.67172055474970
    Total Energy =                       -305.6717205547496974
  @DF-RHF Final Energy:  -305.68982763774920
    Total Energy =                       -305.6898276377492039
  Multiplicity = 1
  @DF-RHF Final Energy:  -381.74015953310879
    Total Energy =                       -381.7401595331087947
	 Singles Energy            =      -0.0000000000000000 [Eh]
	 Same-Spin Energy          =      -0.3952496269251048 [Eh]
	 Opposite-Spin Energy      =      -1.2236003486139577 [Eh]
	 Correlation Energy        =      -1.6188499755390624 [Eh]
	 Total Energy              =    -383.3590095086478300 [Eh]
	 SCS Total Energy          =    -383.3402298270872279 [Eh]
    Molecular point group: c1

    Geometry (in Angstrom), charge = 0, multiplicity = 1:

       Center              X                  Y                   Z               Mass
    ------------   -----------------  -----------------  -----------------  -----------------
         C           -0.567142365341     0.552707622973     0.318108196178    12.000000000000
         C           -0.197473365341     1.894095622973     0.247140196178    12.000000000000
         C            1.022754634659     2.264126622973    -0.312331803822    12.000000000000
         C            1.874772634659     1.275491622973    -0.802930803822    12.000000000000
         C            1.514185634659    -0.066015377027    -0.736359803822    12.000000000000
         C            0.290323634659    -0.433502377027    -0.174923803822    12.000000000000
         O           -0.012220365341    -1.758945377027    -0.135077803822    15.994914619570
         H           -1.515755365341     0.265811622973     0.753104196178     1.007825032230
         H           -0.869396365341     2.649430622973     0.632088196178     1.007825032230
         H            1.305936634659     3.305655622973    -0.365570803822     1.007825032230
         H            2.825885634659     1.547599622973    -1.240324803822     1.007825032230
         H            2.165503634659    -0.842237377027    -1.113035803822     1.007825032230
         H           -0.883975365341    -1.871828377027     0.276755196178     1.007825032230
         O           -2.744712365341    -2.323940377027     1.138943196178    15.994914619570
         H           -3.406672365341    -2.739258377027     0.581370196178     1.007825032230
         H           -2.749198365341    -2.848436377027     1.942964196178     1.007825032230

  Charge       = 0
  Multiplicity = 1
  Basis Set: AUG-CC-PVQZ
    Blend: AUG-CC-PVQZ
  Basis Set: (AUG-CC-PVQZ AUX)
    Blend: AUG-CC-PVQZ-JKFIT

    Orbital Energies [Eh]
    ---------------------

    Doubly Occupied:

       1A    -20.595849     2A    -20.567913     3A    -11.289305
       4A    -11.230225     5A    -11.228946     6A    -11.218494
       7A    -11.215235     8A    -11.215079     9A     -1.389046
      10A     -1.382345    11A     -1.135306    12A     -1.008269
      13A     -0.992520    14A     -0.834719    15A     -0.810640
      16A     -0.746719    17A     -0.720811    18A     -0.675581
      19A     -0.640214    20A     -0.621338    21A     -0.599304
      22A     -0.578821    23A     -0.574907    24A     -0.556099
      25A     -0.540281    26A     -0.506097    27A     -0.480508
      28A     -0.471231    29A     -0.331755    30A     -0.302598

  @DF-RHF Final Energy:  -381.76357268324068

   => Energetics <=

    Nuclear Repulsion Energy =            340.3474412243161282
    One-Electron Energy =               -1195.3017085121066430
    Two-Electron Energy =                 473.1906946045498898
    Total Energy =                       -381.7635726832406817

  Dipole Moment: [D]
     X:    -2.9657      Y:    -1.6229      Z:     1.3018     Total:     3.6227

  Basis Set: (AUG-CC-PVQZ AUX)
    Blend: AUG-CC-PVQZ-RI
	 Reference Energy          =    -381.7635726832406817 [Eh]
	 Singles Energy            =      -0.0000000000000000 [Eh]
	 Same-Spin Energy          =      -0.4184225692383903 [Eh]
	 Opposite-Spin Energy      =      -1.3778087583385177 [Eh]
	 Correlation Energy        =      -1.7962313275769080 [Eh]
	 Total Energy              =    -383.5598040108175724 [Eh]

	 ================> DF-SCS-MP2 Energies <==================
	-----------------------------------------------------------
	 SCS Same-Spin Scale       =       0.3333333333333333 [-]
	 SCS Opposite-Spin Scale   =       1.2000000000000000 [-]
	 SCS Same-Spin Energy      =      -0.1394741897461301 [Eh]
	 SCS Opposite-Spin Energy  =      -1.6533705100062213 [Eh]
	 SCS Correlation Energy    =      -1.7928446997523513 [Eh]
	 SCS Total Energy          =    -383.5564173829930610 [Eh]
	-----------------------------------------------------------

*** Psi4 exiting successfully. Buy a developer a beer!
