                               Psi4 1.4a2.dev224

  ==> Input File <==

--------------------------------------------------------------------------
#Generated by lconvert.py for cbs job

memory 40 GB

molecule  {
0 1
  C       -3.5552230    -0.1450460     0.6250600
  C       -3.1855540     1.1963420     0.5540920
  C       -1.9653260     1.5663730    -0.0053800
  C       -1.1133080     0.5777380    -0.4959790
  C       -1.4738950    -0.7637690    -0.4294080
  C       -2.6977570    -1.1312560     0.1320280
  O       -3.0003010    -2.4566990     0.1718740
  H       -4.5038360    -0.4319420     1.0600560
  H       -3.8574770     1.9516770     0.9390400
  H       -1.6821440     2.6079020    -0.0586190
  H       -0.1621950     0.8498460    -0.9333730
  H       -0.8225770    -1.5399910    -0.8060840
  H       -3.8720560    -2.5695820     0.5837070
--
0 1
  O       -5.6482140    -3.0011440     1.4067040
  H       -6.3101740    -3.4164620     0.8491310
  H       -5.6527000    -3.5256400     2.2107250
units angstrom
no_reorient
symmetry c1
}

set {
scf_type DF
mp2_type DF
e_convergence 7
reference rhf
}

energy('mp2/aug-cc-pv[tq]z', bsse_type='cp')
--------------------------------------------------------------------------

    Molecular point group: c1
  Charge       = 0
  Multiplicity = 1
  Basis Set: AUG-CC-PVTZ
    Blend: AUG-CC-PVTZ
  Basis Set: (AUG-CC-PVTZ AUX)
    Blend: AUG-CC-PVTZ-JKFIT
  @DF-RHF Final Energy:   -76.06039646549965
    Total Energy =                        -76.0603964654996503
  Basis Set: (AUG-CC-PVTZ AUX)
    Blend: AUG-CC-PVTZ-RI
	 Reference Energy          =     -76.0603964654996503 [Eh]
	 Singles Energy            =      -0.0000000000000000 [Eh]
	 Same-Spin Energy          =      -0.0683867705195753 [Eh]
	 Opposite-Spin Energy      =      -0.2153057708982078 [Eh]
	 Correlation Energy        =      -0.2836925414177831 [Eh]
	 Total Energy              =     -76.3440890069174287 [Eh]
	 SCS Total Energy          =     -76.3415589807506905 [Eh]
    Molecular point group: c1
  Basis Set: AUG-CC-PVQZ
    Blend: AUG-CC-PVQZ
  Basis Set: (AUG-CC-PVQZ AUX)
    Blend: AUG-CC-PVQZ-JKFIT
  @DF-RHF Final Energy:   -76.06577596370450
    Total Energy =                        -76.0657759637044961
  Basis Set: (AUG-CC-PVQZ AUX)
  @DF-RHF Final Energy:   -76.06049631469362
    Total Energy =                        -76.0604963146936228
  @DF-RHF Final Energy:   -76.06581831639797
    Total Energy =                        -76.0658183163979515
  @DF-RHF Final Energy:  -305.67180048232206
    Total Energy =                       -305.6718004823220554
  @DF-RHF Final Energy:  -305.68984666025926
    Total Energy =                       -305.6898466602592634
  @DF-RHF Final Energy:  -305.67172055353359
    Total Energy =                       -305.6717205535335893
  @DF-RHF Final Energy:  -305.68982763962435
    Total Energy =                       -305.6898276396243546
  Multiplicity = 1
  @DF-RHF Final Energy:  -381.74025259533312
    Total Energy =                       -381.7402525953331178
	 Singles Energy            =      -0.0000000000000000 [Eh]
	 Same-Spin Energy          =      -0.3955093516537158 [Eh]
	 Opposite-Spin Energy      =      -1.2238871277634660 [Eh]
	 Correlation Energy        =      -1.6193964794171818 [Eh]
	 Total Energy              =    -383.3596490747502799 [Eh]
	 SCS Total Energy          =    -383.3407535992005251 [Eh]
    Molecular point group: c1

    Geometry (in Angstrom), charge = 0, multiplicity = 1:

       Center              X                  Y                   Z               Mass
    ------------   -----------------  -----------------  -----------------  -----------------
         C           -0.580737033098     0.549404552206     0.324407497708    12.000000000000
         C           -0.211068033098     1.890792552206     0.253439497708    12.000000000000
         C            1.009159966902     2.260823552206    -0.306032502292    12.000000000000
         C            1.861177966902     1.272188552206    -0.796631502292    12.000000000000
         C            1.500590966902    -0.069318447794    -0.730060502292    12.000000000000
         C            0.276728966902    -0.436805447794    -0.168624502292    12.000000000000
         O           -0.025815033098    -1.762248447794    -0.128778502292    15.994914619570
         H           -1.529350033098     0.262508552206     0.759403497708     1.007825032230
         H           -0.882991033098     2.646127552206     0.638387497708     1.007825032230
         H            1.292341966902     3.302352552206    -0.359271502292     1.007825032230
         H            2.812290966902     1.544296552206    -1.234025502292     1.007825032230
         H            2.151908966902    -0.845540447794    -1.106736502292     1.007825032230
         H           -0.897570033098    -1.875131447794     0.283054497708     1.007825032230
         O           -2.673728033098    -2.306693447794     1.106051497708    15.994914619570
         H           -3.335688033098    -2.722011447794     0.548478497708     1.007825032230
         H           -2.678214033098    -2.831189447794     1.910072497708     1.007825032230

  Charge       = 0
  Multiplicity = 1
  Basis Set: AUG-CC-PVQZ
    Blend: AUG-CC-PVQZ
  Basis Set: (AUG-CC-PVQZ AUX)
    Blend: AUG-CC-PVQZ-JKFIT

    Orbital Energies [Eh]
    ---------------------

    Doubly Occupied:

       1A    -20.598209     2A    -20.565322     3A    -11.288325
       4A    -11.229586     5A    -11.228294     6A    -11.217604
       7A    -11.214540     8A    -11.214240     9A     -1.389812
      10A     -1.382664    11A     -1.134547    12A     -1.007545
      13A     -0.991691    14A     -0.833987    15A     -0.809824
      16A     -0.749340    17A     -0.720441    18A     -0.675709
      19A     -0.639218    20A     -0.623985    21A     -0.598669
      22A     -0.578034    23A     -0.573225    24A     -0.556324
      25A     -0.540959    26A     -0.505260    27A     -0.479485
      28A     -0.470275    29A     -0.331098    30A     -0.301658

  @DF-RHF Final Energy:  -381.76366343075352

   => Energetics <=

    Nuclear Repulsion Energy =            341.6320270183038019
    One-Electron Energy =               -1197.8916347243764449
    Two-Electron Energy =                 474.4959442753191183
    Total Energy =                       -381.7636634307535246

  Dipole Moment: [D]
     X:    -3.0305      Y:    -1.6795      Z:     1.3286     Total:     3.7108

  Basis Set: (AUG-CC-PVQZ AUX)
    Blend: AUG-CC-PVQZ-RI
	 Reference Energy          =    -381.7636634307535246 [Eh]
	 Singles Energy            =      -0.0000000000000000 [Eh]
	 Same-Spin Energy          =      -0.4186866408962155 [Eh]
	 Opposite-Spin Energy      =      -1.3780316766835508 [Eh]
	 Correlation Energy        =      -1.7967183175797663 [Eh]
	 Total Energy              =    -383.5603817483332705 [Eh]

	 ================> DF-SCS-MP2 Energies <==================
	-----------------------------------------------------------
	 SCS Same-Spin Scale       =       0.3333333333333333 [-]
	 SCS Opposite-Spin Scale   =       1.2000000000000000 [-]
	 SCS Same-Spin Energy      =      -0.1395622136320718 [Eh]
	 SCS Opposite-Spin Energy  =      -1.6536380120202610 [Eh]
	 SCS Correlation Energy    =      -1.7932002256523327 [Eh]
	 SCS Total Energy          =    -383.5568636564058806 [Eh]
	-----------------------------------------------------------

*** Psi4 exiting successfully. Buy a developer a beer!
