                               Psi4 1.4a2.dev224

  ==> Input File <==

--------------------------------------------------------------------------
#Generated by lconvert.py for cbs job

memory 20 GB

molecule  {
0 1
  N      -2.633040   -1.751090   -0.900110
  C      -2.257810    1.403210    0.733620
  C      -3.533170    1.939620    0.673290
  C      -4.594200    1.239410    0.063730
  C      -4.399330   -0.012760   -0.497990
  C      -3.111740   -0.553790   -0.436830
  C      -2.026320    0.135280    0.173450
  C      -0.882740   -0.707950    0.050800
  C      -1.295590   -1.844200   -0.607820
  H      -1.452020    1.951350    1.204540
  H      -3.723670    2.914690    1.100930
  H      -5.577990    1.687930    0.034150
  H      -5.213370   -0.550690   -0.966000
  H       0.116630   -0.510730    0.399380
  H      -3.177610   -2.454190   -1.380700
  H      -0.735090   -2.718720   -0.892970
--
0 1
  O      -4.924290   -4.636100   -2.886570
  H      -5.476090   -5.314710   -2.492130
  H      -5.140560   -4.666200   -3.820860
units angstrom
no_reorient
symmetry c1
}

set {
scf_type DF
mp2_type DF
e_convergence 7
reference rhf
}

energy('mp2/aug-cc-pv[tq]z', bsse_type='cp')
--------------------------------------------------------------------------

    Molecular point group: c1
  Charge       = 0
  Multiplicity = 1
  Basis Set: AUG-CC-PVTZ
    Blend: AUG-CC-PVTZ
  Basis Set: (AUG-CC-PVTZ AUX)
    Blend: AUG-CC-PVTZ-JKFIT
  @DF-RHF Final Energy:   -76.06044139537383
    Total Energy =                        -76.0604413953738288
  Basis Set: (AUG-CC-PVTZ AUX)
    Blend: AUG-CC-PVTZ-RI
	 Reference Energy          =     -76.0604413953738288 [Eh]
	 Singles Energy            =      -0.0000000000000000 [Eh]
	 Same-Spin Energy          =      -0.0683759017252688 [Eh]
	 Opposite-Spin Energy      =      -0.2152730925235573 [Eh]
	 Correlation Energy        =      -0.2836489942488261 [Eh]
	 Total Energy              =     -76.3440903896226502 [Eh]
	 SCS Total Energy          =     -76.3415610736438595 [Eh]
    Molecular point group: c1
  Basis Set: AUG-CC-PVQZ
    Blend: AUG-CC-PVQZ
  Basis Set: (AUG-CC-PVQZ AUX)
    Blend: AUG-CC-PVQZ-JKFIT
  @DF-RHF Final Energy:   -76.06582339767024
    Total Energy =                        -76.0658233976702292
  Basis Set: (AUG-CC-PVQZ AUX)
  @DF-RHF Final Energy:   -76.06046197858014
    Total Energy =                        -76.0604619785801361
  @DF-RHF Final Energy:   -76.06583761534752
    Total Energy =                        -76.0658376153475331
  @DF-RHF Final Energy:  -361.59039625409724
    Total Energy =                       -361.5903962540972998
  @DF-RHF Final Energy:  -361.61093983787794
    Total Energy =                       -361.6109398378779360
  @DF-RHF Final Energy:  -361.59038185065936
    Total Energy =                       -361.5903818506593552
  @DF-RHF Final Energy:  -361.61093639867630
    Total Energy =                       -361.6109363986763583
  Multiplicity = 1
  @DF-RHF Final Energy:  -437.65433338059211
    Total Energy =                       -437.6543333805921066
	 Singles Energy            =      -0.0000000000000000 [Eh]
	 Same-Spin Energy          =      -0.4767105613455018 [Eh]
	 Opposite-Spin Energy      =      -1.4630480890506048 [Eh]
	 Correlation Energy        =      -1.9397586503961066 [Eh]
	 Total Energy              =    -439.5940920309882358 [Eh]
	 SCS Total Energy          =    -439.5688946079013135 [Eh]
    Molecular point group: c1

    Geometry (in Angstrom), charge = 0, multiplicity = 1:

       Center              X                  Y                   Z               Mass
    ------------   -----------------  -----------------  -----------------  -----------------
         N            0.413286915705    -1.090493686697    -0.427647764786    14.003074004430
         C            0.788516915705     2.063806313303     1.206082235214    12.000000000000
         C           -0.486843084295     2.600216313303     1.145752235214    12.000000000000
         C           -1.547873084295     1.900006313303     0.536192235214    12.000000000000
         C           -1.353003084295     0.647836313303    -0.025527764786    12.000000000000
         C           -0.065413084295     0.106806313303     0.035632235214    12.000000000000
         C            1.020006915705     0.795876313303     0.645912235214    12.000000000000
         C            2.163586915705    -0.047353686697     0.523262235214    12.000000000000
         C            1.750736915705    -1.183603686697    -0.135357764786    12.000000000000
         H            1.594306915705     2.611946313303     1.677002235214     1.007825032230
         H           -0.677343084295     3.575286313303     1.573392235214     1.007825032230
         H           -2.531663084295     2.348526313303     0.506612235214     1.007825032230
         H           -2.167043084295     0.109906313303    -0.493537764786     1.007825032230
         H            3.162956915705     0.149866313303     0.871842235214     1.007825032230
         H           -0.131283084295    -1.793593686697    -0.908237764786     1.007825032230
         H            2.311236915705    -2.058123686697    -0.420507764786     1.007825032230
         O           -1.877963084295    -3.975503686697    -2.414107764786    15.994914619570
         H           -2.429763084295    -4.654113686697    -2.019667764786     1.007825032230
         H           -2.094233084295    -4.005603686697    -3.348397764786     1.007825032230

  Charge       = 0
  Multiplicity = 1
  Basis Set: AUG-CC-PVQZ
    Blend: AUG-CC-PVQZ
  Basis Set: (AUG-CC-PVQZ AUX)
    Blend: AUG-CC-PVQZ-JKFIT

    Orbital Energies [Eh]
    ---------------------

    Doubly Occupied:

       1A    -20.580696     2A    -15.594568     3A    -11.263495
       4A    -11.257017     5A    -11.223810     6A    -11.222631
       7A    -11.221053     8A    -11.218376     9A    -11.213788
      10A    -11.209010    11A     -1.367446    12A     -1.291742
      13A     -1.123214    14A     -1.050054    15A     -0.990957
      16A     -0.967794    17A     -0.836996    18A     -0.799919
      19A     -0.783537    20A     -0.731826    21A     -0.722334
      22A     -0.656581    23A     -0.642718    24A     -0.602726
      25A     -0.595715    26A     -0.590491    27A     -0.578635
      28A     -0.568097    29A     -0.544251    30A     -0.526346
      31A     -0.502560    32A     -0.476406    33A     -0.459476
      34A     -0.380097    35A     -0.295055    36A     -0.275752

  @DF-RHF Final Energy:  -437.68024198414912

   => Energetics <=

    Nuclear Repulsion Energy =            466.2412371552276795
    One-Electron Energy =               -1519.1126128342791617
    Two-Electron Energy =                 615.1911336949023053
    Total Energy =                       -437.6802419841491201

  Dipole Moment: [D]
     X:    -1.6751      Y:    -3.4266      Z:    -2.0951     Total:     4.3516

  Basis Set: (AUG-CC-PVQZ AUX)
    Blend: AUG-CC-PVQZ-RI
	 Reference Energy          =    -437.6802419841491201 [Eh]
	 Singles Energy            =      -0.0000000000000000 [Eh]
	 Same-Spin Energy          =      -0.5037187933494498 [Eh]
	 Opposite-Spin Energy      =      -1.6419365606519756 [Eh]
	 Correlation Energy        =      -2.1456553540014252 [Eh]
	 Total Energy              =    -439.8258973381505257 [Eh]

	 ================> DF-SCS-MP2 Energies <==================
	-----------------------------------------------------------
	 SCS Same-Spin Scale       =       0.3333333333333333 [-]
	 SCS Opposite-Spin Scale   =       1.2000000000000000 [-]
	 SCS Same-Spin Energy      =      -0.1679062644498166 [Eh]
	 SCS Opposite-Spin Energy  =      -1.9703238727823706 [Eh]
	 SCS Correlation Energy    =      -2.1382301372321875 [Eh]
	 SCS Total Energy          =    -439.8184721213813191 [Eh]
	-----------------------------------------------------------

*** Psi4 exiting successfully. Buy a developer a beer!
