                               Psi4 1.4a2.dev224

  ==> Input File <==

--------------------------------------------------------------------------
#Generated by lconvert.py for cbs job

memory 40 GB

molecule  {
0 1
  N       -2.6330390    -1.7510900    -0.9001150
  C       -2.2578060     1.4032050     0.7336210
  C       -3.5331660     1.9396200     0.6732940
  C       -4.5941960     1.2394070     0.0637350
  C       -4.3993280    -0.0127580    -0.4979920
  C       -3.1117410    -0.5537930    -0.4368320
  C       -2.0263250     0.1352780     0.1734480
  C       -0.8827400    -0.7079510     0.0508040
  C       -1.2955870    -1.8442010    -0.6078240
  H       -1.4520190     1.9513540     1.2045360
  H       -3.7236730     2.9146940     1.1009290
  H       -5.5779950     1.6879270     0.0341470
  H       -5.2133710    -0.5506910    -0.9660040
  H        0.1166300    -0.5107330     0.3993830
  H       -3.1776140    -2.4541930    -1.3807030
  H       -0.7350890    -2.7187200    -0.8929720
--
0 1
  O       -4.3238730    -3.8860700    -2.3689290
  H       -4.8756740    -4.5646740    -1.9744860
  H       -4.5401470    -3.9161640    -3.3032170
units angstrom
no_reorient
symmetry c1
}

set {
scf_type DF
mp2_type DF
e_convergence 7
reference rhf
}

energy('mp2/aug-cc-pv[tq]z', bsse_type='cp')
--------------------------------------------------------------------------

    Molecular point group: c1
  Charge       = 0
  Multiplicity = 1
  Basis Set: AUG-CC-PVTZ
    Blend: AUG-CC-PVTZ
  Basis Set: (AUG-CC-PVTZ AUX)
    Blend: AUG-CC-PVTZ-JKFIT
  @DF-RHF Final Energy:   -76.06044155012599
    Total Energy =                        -76.0604415501259865
  Basis Set: (AUG-CC-PVTZ AUX)
    Blend: AUG-CC-PVTZ-RI
	 Reference Energy          =     -76.0604415501259865 [Eh]
	 Singles Energy            =      -0.0000000000000000 [Eh]
	 Same-Spin Energy          =      -0.0683758638927443 [Eh]
	 Opposite-Spin Energy      =      -0.2152729785881228 [Eh]
	 Correlation Energy        =      -0.2836488424808671 [Eh]
	 Total Energy              =     -76.3440903926068586 [Eh]
	 SCS Total Energy          =     -76.3415610790626431 [Eh]
    Molecular point group: c1
  Basis Set: AUG-CC-PVQZ
    Blend: AUG-CC-PVQZ
  Basis Set: (AUG-CC-PVQZ AUX)
    Blend: AUG-CC-PVQZ-JKFIT
  @DF-RHF Final Energy:   -76.06582356138364
    Total Energy =                        -76.0658235613836382
  Basis Set: (AUG-CC-PVQZ AUX)
  @DF-RHF Final Energy:   -76.06052624018409
    Total Energy =                        -76.0605262401840889
  @DF-RHF Final Energy:   -76.06586204808160
    Total Energy =                        -76.0658620480815983
  @DF-RHF Final Energy:  -361.59045945683158
    Total Energy =                       -361.5904594568315815
  @DF-RHF Final Energy:  -361.61094688683608
    Total Energy =                       -361.6109468868361319
  @DF-RHF Final Energy:  -361.59038156241814
    Total Energy =                       -361.5903815624182016
  @DF-RHF Final Energy:  -361.61093609151078
    Total Energy =                       -361.6109360915107800
  Multiplicity = 1
  @DF-RHF Final Energy:  -437.65758537963507
    Total Energy =                       -437.6575853796350657
	 Singles Energy            =      -0.0000000000000000 [Eh]
	 Same-Spin Energy          =      -0.4780903951241067 [Eh]
	 Opposite-Spin Energy      =      -1.4652017074332304 [Eh]
	 Correlation Energy        =      -1.9432921025573371 [Eh]
	 Total Energy              =    -439.6008774821924021 [Eh]
	 SCS Total Energy          =    -439.5751908935963002 [Eh]
    Molecular point group: c1

    Geometry (in Angstrom), charge = 0, multiplicity = 1:

       Center              X                  Y                   Z               Mass
    ------------   -----------------  -----------------  -----------------  -----------------
         N            0.333224940355    -1.190504618319    -0.496676864186    14.003074004430
         C            0.708457940355     1.963790381681     1.137059135814    12.000000000000
         C           -0.566902059645     2.500205381681     1.076732135814    12.000000000000
         C           -1.627932059645     1.799992381681     0.467173135814    12.000000000000
         C           -1.433064059645     0.547827381681    -0.094553864186    12.000000000000
         C           -0.145477059645     0.006792381681    -0.033393864186    12.000000000000
         C            0.939938940355     0.695863381681     0.576886135814    12.000000000000
         C            2.083523940355    -0.147365618319     0.454242135814    12.000000000000
         C            1.670676940355    -1.283615618319    -0.204385864186    12.000000000000
         H            1.514244940355     2.511939381681     1.607974135814     1.007825032230
         H           -0.757409059645     3.475279381681     1.504367135814     1.007825032230
         H           -2.611731059645     2.248512381681     0.437585135814     1.007825032230
         H           -2.247107059645     0.009894381681    -0.562565864186     1.007825032230
         H            3.082893940355     0.049852381681     0.802821135814     1.007825032230
         H           -0.211350059645    -1.893607618319    -0.977264864186     1.007825032230
         H            2.231174940355    -2.158134618319    -0.489533864186     1.007825032230
         O           -1.357609059645    -3.325484618319    -1.965490864186    15.994914619570
         H           -1.909410059645    -4.004088618319    -1.571047864186     1.007825032230
         H           -1.573883059645    -3.355578618319    -2.899778864186     1.007825032230

  Charge       = 0
  Multiplicity = 1
  Basis Set: AUG-CC-PVQZ
    Blend: AUG-CC-PVQZ
  Basis Set: (AUG-CC-PVQZ AUX)
    Blend: AUG-CC-PVQZ-JKFIT

    Orbital Energies [Eh]
    ---------------------

    Doubly Occupied:

       1A    -20.595889     2A    -15.583570     3A    -11.257942
       4A    -11.251528     5A    -11.219976     6A    -11.218952
       7A    -11.217506     8A    -11.213663     9A    -11.210196
      10A    -11.203715    11A     -1.384295    12A     -1.284148
      13A     -1.118895    14A     -1.044820    15A     -0.986269
      16A     -0.963122    17A     -0.832331    18A     -0.795006
      19A     -0.778302    20A     -0.747681    21A     -0.718544
      22A     -0.652373    23A     -0.638999    24A     -0.625828
      25A     -0.588222    26A     -0.583145    27A     -0.571788
      28A     -0.562855    29A     -0.543099    30A     -0.539557
      31A     -0.498661    32A     -0.471970    33A     -0.454840
      34A     -0.375398    35A     -0.290132    36A     -0.271133

  @DF-RHF Final Energy:  -437.68343734500280

   => Energetics <=

    Nuclear Repulsion Energy =            479.2098635003141567
    One-Electron Energy =               -1545.1978972691233594
    Two-Electron Energy =                 628.3045964238064016
    Total Energy =                       -437.6834373450027442

  Dipole Moment: [D]
     X:    -1.8624      Y:    -3.8607      Z:    -2.3542     Total:     4.8903

  Basis Set: (AUG-CC-PVQZ AUX)
    Blend: AUG-CC-PVQZ-RI
	 Reference Energy          =    -437.6834373450028011 [Eh]
	 Singles Energy            =      -0.0000000000000000 [Eh]
	 Same-Spin Energy          =      -0.5050272148792176 [Eh]
	 Opposite-Spin Energy      =      -1.6431432652443760 [Eh]
	 Correlation Energy        =      -2.1481704801235937 [Eh]
	 Total Energy              =    -439.8316078251264116 [Eh]

	 ================> DF-SCS-MP2 Energies <==================
	-----------------------------------------------------------
	 SCS Same-Spin Scale       =       0.3333333333333333 [-]
	 SCS Opposite-Spin Scale   =       1.2000000000000000 [-]
	 SCS Same-Spin Energy      =      -0.1683424049597392 [Eh]
	 SCS Opposite-Spin Energy  =      -1.9717719182932512 [Eh]
	 SCS Correlation Energy    =      -2.1401143232529902 [Eh]
	 SCS Total Energy          =    -439.8235516682557886 [Eh]
	-----------------------------------------------------------

*** Psi4 exiting successfully. Buy a developer a beer!
