                               Psi4 1.4a2.dev224

  ==> Input File <==

--------------------------------------------------------------------------
#Generated by lconvert.py for cbs job

memory 20 GB

molecule  {
0 1
  N      -2.633040   -1.751090   -0.900110
  C      -2.257810    1.403210    0.733620
  C      -3.533170    1.939620    0.673290
  C      -4.594200    1.239410    0.063730
  C      -4.399330   -0.012760   -0.497990
  C      -3.111740   -0.553790   -0.436830
  C      -2.026320    0.135280    0.173450
  C      -0.882740   -0.707950    0.050800
  C      -1.295590   -1.844200   -0.607820
  H      -1.452020    1.951350    1.204540
  H      -3.723670    2.914690    1.100930
  H      -5.577990    1.687930    0.034150
  H      -5.213370   -0.550690   -0.966000
  H       0.116630   -0.510730    0.399380
  H      -3.177610   -2.454190   -1.380700
  H      -0.735090   -2.718720   -0.892970
--
0 1
  O      -4.596790   -4.226990   -2.604220
  H      -5.148590   -4.905600   -2.209780
  H      -4.813060   -4.257090   -3.538510
units angstrom
no_reorient
symmetry c1
}

set {
scf_type DF
mp2_type DF
e_convergence 7
reference rhf
}

energy('mp2/aug-cc-pv[tq]z', bsse_type='cp')
--------------------------------------------------------------------------

    Molecular point group: c1
  Charge       = 0
  Multiplicity = 1
  Basis Set: AUG-CC-PVTZ
    Blend: AUG-CC-PVTZ
  Basis Set: (AUG-CC-PVTZ AUX)
    Blend: AUG-CC-PVTZ-JKFIT
  @DF-RHF Final Energy:   -76.06044139537505
    Total Energy =                        -76.0604413953750509
  Basis Set: (AUG-CC-PVTZ AUX)
    Blend: AUG-CC-PVTZ-RI
	 Reference Energy          =     -76.0604413953750509 [Eh]
	 Singles Energy            =      -0.0000000000000000 [Eh]
	 Same-Spin Energy          =      -0.0683759017252980 [Eh]
	 Opposite-Spin Energy      =      -0.2152730925236422 [Eh]
	 Correlation Energy        =      -0.2836489942489402 [Eh]
	 Total Energy              =     -76.3440903896239860 [Eh]
	 SCS Total Energy          =     -76.3415610736451811 [Eh]
    Molecular point group: c1
  Basis Set: AUG-CC-PVQZ
    Blend: AUG-CC-PVQZ
  Basis Set: (AUG-CC-PVQZ AUX)
    Blend: AUG-CC-PVQZ-JKFIT
  @DF-RHF Final Energy:   -76.06582339765863
    Total Energy =                        -76.0658233976586473
  Basis Set: (AUG-CC-PVQZ AUX)
  @DF-RHF Final Energy:   -76.06049675693679
    Total Energy =                        -76.0604967569367716
  @DF-RHF Final Energy:   -76.06584866843768
    Total Energy =                        -76.0658486684376811
  @DF-RHF Final Energy:  -361.59042396461967
    Total Energy =                       -361.5904239646196174
  @DF-RHF Final Energy:  -361.61094341688909
    Total Energy =                       -361.6109434168890857
  @DF-RHF Final Energy:  -361.59038185328302
    Total Energy =                       -361.5903818532830201
  @DF-RHF Final Energy:  -361.61093639233036
    Total Energy =                       -361.6109363923303590
  Multiplicity = 1
  @DF-RHF Final Energy:  -437.65634744902871
    Total Energy =                       -437.6563474490286580
	 Singles Energy            =      -0.0000000000000000 [Eh]
	 Same-Spin Energy          =      -0.4771529141801300 [Eh]
	 Opposite-Spin Energy      =      -1.4637869311637248 [Eh]
	 Correlation Energy        =      -1.9409398453438547 [Eh]
	 Total Energy              =    -439.5972872943725633 [Eh]
	 SCS Total Energy          =    -439.5719427378185742 [Eh]
    Molecular point group: c1

    Geometry (in Angstrom), charge = 0, multiplicity = 1:

       Center              X                  Y                   Z               Mass
    ------------   -----------------  -----------------  -----------------  -----------------
         N            0.369616750615    -1.145046056895    -0.465297447574    14.003074004430
         C            0.744846750615     2.009253943105     1.168432552426    12.000000000000
         C           -0.530513249385     2.545663943105     1.108102552426    12.000000000000
         C           -1.591543249385     1.845453943105     0.498542552426    12.000000000000
         C           -1.396673249385     0.593283943105    -0.063177447574    12.000000000000
         C           -0.109083249385     0.052253943105    -0.002017447574    12.000000000000
         C            0.976336750615     0.741323943105     0.608262552426    12.000000000000
         C            2.119916750615    -0.101906056895     0.485612552426    12.000000000000
         C            1.707066750615    -1.238156056895    -0.173007447574    12.000000000000
         H            1.550636750615     2.557393943105     1.639352552426     1.007825032230
         H           -0.721013249385     3.520733943105     1.535742552426     1.007825032230
         H           -2.575333249385     2.293973943105     0.468962552426     1.007825032230
         H           -2.210713249385     0.055353943105    -0.531187447574     1.007825032230
         H            3.119286750615     0.095313943105     0.834192552426     1.007825032230
         H           -0.174953249385    -1.848146056895    -0.945887447574     1.007825032230
         H            2.267566750615    -2.112676056895    -0.458157447574     1.007825032230
         O           -1.594133249385    -3.620946056895    -2.169407447574    15.994914619570
         H           -2.145933249385    -4.299556056895    -1.774967447574     1.007825032230
         H           -1.810403249385    -3.651046056895    -3.103697447574     1.007825032230

  Charge       = 0
  Multiplicity = 1
  Basis Set: AUG-CC-PVQZ
    Blend: AUG-CC-PVQZ
  Basis Set: (AUG-CC-PVQZ AUX)
    Blend: AUG-CC-PVQZ-JKFIT

    Orbital Energies [Eh]
    ---------------------

    Doubly Occupied:

       1A    -20.587127     2A    -15.590555     3A    -11.261248
       4A    -11.254782     5A    -11.222141     6A    -11.221076
       7A    -11.219523     8A    -11.216440     9A    -11.212276
      10A    -11.206834    11A     -1.374159    12A     -1.288698
      13A     -1.121397    14A     -1.047860    15A     -0.988979
      16A     -0.965848    17A     -0.834989    18A     -0.797606
      19A     -0.781299    20A     -0.738300    21A     -0.720224
      22A     -0.654544    23A     -0.641065    24A     -0.611965
      25A     -0.592402    26A     -0.588393    27A     -0.575884
      28A     -0.566045    29A     -0.542327    30A     -0.533206
      31A     -0.500923    32A     -0.474590    33A     -0.457564
      34A     -0.378143    35A     -0.293026    36A     -0.273840

  @DF-RHF Final Energy:  -437.68221826373338

   => Energetics <=

    Nuclear Repulsion Energy =            472.6165781613161698
    One-Electron Energy =               -1531.9270372136229525
    Two-Electron Energy =                 621.6282407885732937
    Total Energy =                       -437.6822182637333754

  Dipole Moment: [D]
     X:    -1.7460      Y:    -3.5968      Z:    -2.1960     Total:     4.5616

  Basis Set: (AUG-CC-PVQZ AUX)
    Blend: AUG-CC-PVQZ-RI
	 Reference Energy          =    -437.6822182637333754 [Eh]
	 Singles Energy            =      -0.0000000000000000 [Eh]
	 Same-Spin Energy          =      -0.5041246862691100 [Eh]
	 Opposite-Spin Energy      =      -1.6423247099302767 [Eh]
	 Correlation Energy        =      -2.1464493961993867 [Eh]
	 Total Energy              =    -439.8286676599327620 [Eh]

	 ================> DF-SCS-MP2 Energies <==================
	-----------------------------------------------------------
	 SCS Same-Spin Scale       =       0.3333333333333333 [-]
	 SCS Opposite-Spin Scale   =       1.2000000000000000 [-]
	 SCS Same-Spin Energy      =      -0.1680415620897033 [Eh]
	 SCS Opposite-Spin Energy  =      -1.9707896519163319 [Eh]
	 SCS Correlation Energy    =      -2.1388312140060353 [Eh]
	 SCS Total Energy          =    -439.8210494777393933 [Eh]
	-----------------------------------------------------------

*** Psi4 exiting successfully. Buy a developer a beer!
