                               Psi4 1.4a2.dev224

  ==> Input File <==

--------------------------------------------------------------------------
#Generated by lconvert.py for cbs job

memory 40 GB

molecule  {
0 1
  N       -2.6330390    -1.7510900    -0.9001150
  C       -2.2578060     1.4032050     0.7336210
  C       -3.5331660     1.9396200     0.6732940
  C       -4.5941960     1.2394070     0.0637350
  C       -4.3993280    -0.0127580    -0.4979920
  C       -3.1117410    -0.5537930    -0.4368320
  C       -2.0263250     0.1352780     0.1734480
  C       -0.8827400    -0.7079510     0.0508040
  C       -1.2955870    -1.8442010    -0.6078240
  H       -1.4520190     1.9513540     1.2045360
  H       -3.7236730     2.9146940     1.1009290
  H       -5.5779950     1.6879270     0.0341470
  H       -5.2133710    -0.5506910    -0.9660040
  H        0.1166300    -0.5107330     0.3993830
  H       -3.1776140    -2.4541930    -1.3807030
  H       -0.7350890    -2.7187200    -0.8929720
--
0 1
  O       -4.2147050    -3.7497000    -2.2748130
  H       -4.7665060    -4.4283040    -1.8803700
  H       -4.4309790    -3.7797940    -3.2091010
units angstrom
no_reorient
symmetry c1
}

set {
scf_type DF
mp2_type DF
e_convergence 7
reference rhf
}

energy('mp2/aug-cc-pv[tq]z', bsse_type='cp')
--------------------------------------------------------------------------

    Molecular point group: c1
  Charge       = 0
  Multiplicity = 1
  Basis Set: AUG-CC-PVTZ
    Blend: AUG-CC-PVTZ
  Basis Set: (AUG-CC-PVTZ AUX)
    Blend: AUG-CC-PVTZ-JKFIT
  @DF-RHF Final Energy:   -76.06044155012569
    Total Energy =                        -76.0604415501256881
  Basis Set: (AUG-CC-PVTZ AUX)
    Blend: AUG-CC-PVTZ-RI
	 Reference Energy          =     -76.0604415501256881 [Eh]
	 Singles Energy            =      -0.0000000000000000 [Eh]
	 Same-Spin Energy          =      -0.0683758638927717 [Eh]
	 Opposite-Spin Energy      =      -0.2152729785882181 [Eh]
	 Correlation Energy        =      -0.2836488424809898 [Eh]
	 Total Energy              =     -76.3440903926066738 [Eh]
	 SCS Total Energy          =     -76.3415610790624726 [Eh]
    Molecular point group: c1
  Basis Set: AUG-CC-PVQZ
    Blend: AUG-CC-PVQZ
  Basis Set: (AUG-CC-PVQZ AUX)
    Blend: AUG-CC-PVQZ-JKFIT
  @DF-RHF Final Energy:   -76.06582356139077
    Total Energy =                        -76.0658235613907721
  Basis Set: (AUG-CC-PVQZ AUX)
  @DF-RHF Final Energy:   -76.06054390644685
    Total Energy =                        -76.0605439064468527
  @DF-RHF Final Energy:   -76.06586797998818
    Total Energy =                        -76.0658679799881838
  @DF-RHF Final Energy:  -361.59047414954557
    Total Energy =                       -361.5904741495455710
  @DF-RHF Final Energy:  -361.61094900839305
    Total Energy =                       -361.6109490083930496
  @DF-RHF Final Energy:  -361.59038156342740
    Total Energy =                       -361.5903815634273997
  @DF-RHF Final Energy:  -361.61093608659615
    Total Energy =                       -361.6109360865960980
  Multiplicity = 1
  @DF-RHF Final Energy:  -437.65658802962884
    Total Energy =                       -437.6565880296288924
	 Singles Energy            =      -0.0000000000000000 [Eh]
	 Same-Spin Energy          =      -0.4787806244913671 [Eh]
	 Opposite-Spin Energy      =      -1.4660346465934899 [Eh]
	 Correlation Energy        =      -1.9448152710848570 [Eh]
	 Total Energy              =    -439.6014033007136845 [Eh]
	 SCS Total Energy          =    -439.5754231470381228 [Eh]
    Molecular point group: c1

    Geometry (in Angstrom), charge = 0, multiplicity = 1:

       Center              X                  Y                   Z               Mass
    ------------   -----------------  -----------------  -----------------  -----------------
         N            0.318668040866    -1.208688741718    -0.509226669553    14.003074004430
         C            0.693901040866     1.945606258282     1.124509330447    12.000000000000
         C           -0.581458959134     2.482021258282     1.064182330447    12.000000000000
         C           -1.642488959134     1.781808258282     0.454623330447    12.000000000000
         C           -1.447620959134     0.529643258282    -0.107103669553    12.000000000000
         C           -0.160033959134    -0.011391741718    -0.045943669553    12.000000000000
         C            0.925382040866     0.677679258282     0.564336330447    12.000000000000
         C            2.068967040866    -0.165549741718     0.441692330447    12.000000000000
         C            1.656120040866    -1.301799741718    -0.216935669553    12.000000000000
         H            1.499688040866     2.493755258282     1.595424330447     1.007825032230
         H           -0.771965959134     3.457095258282     1.491817330447     1.007825032230
         H           -2.626287959134     2.230328258282     0.425035330447     1.007825032230
         H           -2.261663959134    -0.008289741718    -0.575115669553     1.007825032230
         H            3.068337040866     0.031668258282     0.790271330447     1.007825032230
         H           -0.225906959134    -1.911791741718    -0.989814669553     1.007825032230
         H            2.216618040866    -2.176318741718    -0.502083669553     1.007825032230
         O           -1.262997959134    -3.207298741718    -1.883924669553    15.994914619570
         H           -1.814798959134    -3.885902741718    -1.489481669553     1.007825032230
         H           -1.479271959134    -3.237392741718    -2.818212669553     1.007825032230

  Charge       = 0
  Multiplicity = 1
  Basis Set: AUG-CC-PVQZ
    Blend: AUG-CC-PVQZ
  Basis Set: (AUG-CC-PVQZ AUX)
    Blend: AUG-CC-PVQZ-JKFIT

    Orbital Energies [Eh]
    ---------------------

    Doubly Occupied:

       1A    -20.600859     2A    -15.578592     3A    -11.255881
       4A    -11.249516     5A    -11.218752     6A    -11.217700
       7A    -11.216349     8A    -11.211972     9A    -11.208965
      10A    -11.201819    11A     -1.390848    12A     -1.281318
      13A     -1.117428    14A     -1.043065    15A     -0.984718
      16A     -0.961498    17A     -0.830891    18A     -0.794172
      19A     -0.776728    20A     -0.753433    21A     -0.718969
      22A     -0.652344    23A     -0.638197    24A     -0.631868
      25A     -0.586630    26A     -0.578477    27A     -0.569233
      28A     -0.560794    29A     -0.548826    30A     -0.537843
      31A     -0.497316    32A     -0.470326    33A     -0.453185
      34A     -0.373752    35A     -0.288376    36A     -0.269493

  @DF-RHF Final Energy:  -437.68242514551696

   => Energetics <=

    Nuclear Repulsion Energy =            482.2824052966222439
    One-Electron Energy =               -1551.3893894248135439
    Two-Electron Energy =                 631.4245589826742844
    Total Energy =                       -437.6824251455169588

  Dipole Moment: [D]
     X:    -1.9385      Y:    -4.0274      Z:    -2.4548     Total:     5.0994

  Basis Set: (AUG-CC-PVQZ AUX)
    Blend: AUG-CC-PVQZ-RI
	 Reference Energy          =    -437.6824251455169588 [Eh]
	 Singles Energy            =      -0.0000000000000000 [Eh]
	 Same-Spin Energy          =      -0.5057162959616235 [Eh]
	 Opposite-Spin Energy      =      -1.6437479916718365 [Eh]
	 Correlation Energy        =      -2.1494642876334602 [Eh]
	 Total Energy              =    -439.8318894331504225 [Eh]

	 ================> DF-SCS-MP2 Energies <==================
	-----------------------------------------------------------
	 SCS Same-Spin Scale       =       0.3333333333333333 [-]
	 SCS Opposite-Spin Scale   =       1.2000000000000000 [-]
	 SCS Same-Spin Energy      =      -0.1685720986538745 [Eh]
	 SCS Opposite-Spin Energy  =      -1.9724975900062036 [Eh]
	 SCS Correlation Energy    =      -2.1410696886600782 [Eh]
	 SCS Total Energy          =    -439.8234948341770405 [Eh]
	-----------------------------------------------------------

*** Psi4 exiting successfully. Buy a developer a beer!
