                               Psi4 1.4a2.dev224

  ==> Input File <==

--------------------------------------------------------------------------
#Generated by lconvert.py for cbs job

memory 40 GB

molecule  {
0 1
  N       -2.6330390    -1.7510900    -0.9001150
  C       -2.2578060     1.4032050     0.7336210
  C       -3.5331660     1.9396200     0.6732940
  C       -4.5941960     1.2394070     0.0637350
  C       -4.3993280    -0.0127580    -0.4979920
  C       -3.1117410    -0.5537930    -0.4368320
  C       -2.0263250     0.1352780     0.1734480
  C       -0.8827400    -0.7079510     0.0508040
  C       -1.2955870    -1.8442010    -0.6078240
  H       -1.4520190     1.9513540     1.2045360
  H       -3.7236730     2.9146940     1.1009290
  H       -5.5779950     1.6879270     0.0341470
  H       -5.2133710    -0.5506910    -0.9660040
  H        0.1166300    -0.5107330     0.3993830
  H       -3.1776140    -2.4541930    -1.3807030
  H       -0.7350890    -2.7187200    -0.8929720
--
0 1
  O       -4.3784570    -3.9542540    -2.4159880
  H       -4.9302570    -4.6328580    -2.0215450
  H       -4.5947300    -3.9843480    -3.3502760
units angstrom
no_reorient
symmetry c1
}

set {
scf_type DF
mp2_type DF
e_convergence 7
reference rhf
}

energy('mp2/aug-cc-pv[tq]z', bsse_type='cp')
--------------------------------------------------------------------------

    Molecular point group: c1
  Charge       = 0
  Multiplicity = 1
  Basis Set: AUG-CC-PVTZ
    Blend: AUG-CC-PVTZ
  Basis Set: (AUG-CC-PVTZ AUX)
    Blend: AUG-CC-PVTZ-JKFIT
  @DF-RHF Final Energy:   -76.06044158358070
    Total Energy =                        -76.0604415835807117
  Basis Set: (AUG-CC-PVTZ AUX)
    Blend: AUG-CC-PVTZ-RI
	 Reference Energy          =     -76.0604415835806975 [Eh]
	 Singles Energy            =      -0.0000000000000000 [Eh]
	 Same-Spin Energy          =      -0.0683758557267500 [Eh]
	 Opposite-Spin Energy      =      -0.2152729539784592 [Eh]
	 Correlation Energy        =      -0.2836488097052091 [Eh]
	 Total Energy              =     -76.3440903932859101 [Eh]
	 SCS Total Energy          =     -76.3415610802637588 [Eh]
    Molecular point group: c1
  Basis Set: AUG-CC-PVQZ
    Blend: AUG-CC-PVQZ
  Basis Set: (AUG-CC-PVQZ AUX)
    Blend: AUG-CC-PVQZ-JKFIT
  @DF-RHF Final Energy:   -76.06582359678640
    Total Energy =                        -76.0658235967864016
  Basis Set: (AUG-CC-PVQZ AUX)
  @DF-RHF Final Energy:   -76.06052047440954
    Total Energy =                        -76.0605204744095431
  @DF-RHF Final Energy:   -76.06585958359182
    Total Energy =                        -76.0658595835918021
  @DF-RHF Final Energy:  -361.59045273136712
    Total Energy =                       -361.5904527313671224
  @DF-RHF Final Energy:  -361.61094597469054
    Total Energy =                       -361.6109459746905941
  @DF-RHF Final Energy:  -361.59038155970921
    Total Energy =                       -361.5903815597091580
  @DF-RHF Final Energy:  -361.61093609559134
    Total Energy =                       -361.6109360955913417
  Multiplicity = 1
  @DF-RHF Final Energy:  -437.65757447735854
    Total Energy =                       -437.6575744773584802
	 Singles Energy            =      -0.0000000000000000 [Eh]
	 Same-Spin Energy          =      -0.4778306047491224 [Eh]
	 Opposite-Spin Energy      =      -1.4648415873877378 [Eh]
	 Correlation Energy        =      -1.9426721921368602 [Eh]
	 Total Energy              =    -439.6002466694953910 [Eh]
	 SCS Total Energy          =    -439.5746612504735253 [Eh]
    Molecular point group: c1

    Geometry (in Angstrom), charge = 0, multiplicity = 1:

       Center              X                  Y                   Z               Mass
    ------------   -----------------  -----------------  -----------------  -----------------
         N            0.340503375176    -1.181412689963    -0.490401828159    14.003074004430
         C            0.715736375176     1.972882310037     1.143334171841    12.000000000000
         C           -0.559623624824     2.509297310037     1.083007171841    12.000000000000
         C           -1.620653624824     1.809084310037     0.473448171841    12.000000000000
         C           -1.425785624824     0.556919310037    -0.088278828159    12.000000000000
         C           -0.138198624824     0.015884310037    -0.027118828159    12.000000000000
         C            0.947217375176     0.704955310037     0.583161171841    12.000000000000
         C            2.090802375176    -0.138273689963     0.460517171841    12.000000000000
         C            1.677955375176    -1.274523689963    -0.198110828159    12.000000000000
         H            1.521523375176     2.521031310037     1.614249171841     1.007825032230
         H           -0.750130624824     3.484371310037     1.510642171841     1.007825032230
         H           -2.604452624824     2.257604310037     0.443860171841     1.007825032230
         H           -2.239828624824     0.018986310037    -0.556290828159     1.007825032230
         H            3.090172375176     0.058944310037     0.809096171841     1.007825032230
         H           -0.204071624824    -1.884515689963    -0.970989828159     1.007825032230
         H            2.238453375176    -2.149042689963    -0.483258828159     1.007825032230
         O           -1.404914624824    -3.384576689963    -2.006274828159    15.994914619570
         H           -1.956714624824    -4.063180689963    -1.611831828159     1.007825032230
         H           -1.621187624824    -3.414670689963    -2.940562828159     1.007825032230

  Charge       = 0
  Multiplicity = 1
  Basis Set: AUG-CC-PVQZ
    Blend: AUG-CC-PVQZ
  Basis Set: (AUG-CC-PVQZ AUX)
    Blend: AUG-CC-PVQZ-JKFIT

    Orbital Energies [Eh]
    ---------------------

    Doubly Occupied:

       1A    -20.593779     2A    -15.585455     3A    -11.258776
       4A    -11.252346     5A    -11.220495     6A    -11.219473
       7A    -11.217994     8A    -11.214356     9A    -11.210707
      10A    -11.204493    11A     -1.381707    12A     -1.285297
      13A     -1.119508    14A     -1.045562    15A     -0.986927
      16A     -0.963795    17A     -0.832963    18A     -0.795535
      19A     -0.779010    20A     -0.745340    21A     -0.718731
      22A     -0.652754    23A     -0.639463    24A     -0.622589
      25A     -0.589038    26A     -0.584821    27A     -0.572823
      28A     -0.563686    29A     -0.540680    30A     -0.540229
      31A     -0.499218    32A     -0.472631    33A     -0.455519
      34A     -0.376077    35A     -0.290852    36A     -0.271806

  @DF-RHF Final Energy:  -437.68342748931042

   => Energetics <=

    Nuclear Repulsion Energy =            477.7760577889151250
    One-Electron Energy =               -1542.3101015909035141
    Two-Electron Energy =                 626.8506163126779711
    Total Energy =                       -437.6834274893104748

  Dipole Moment: [D]
     X:    -1.8322      Y:    -3.7934      Z:    -2.3138     Total:     4.8063

  Basis Set: (AUG-CC-PVQZ AUX)
    Blend: AUG-CC-PVQZ-RI
	 Reference Energy          =    -437.6834274893104180 [Eh]
	 Singles Energy            =      -0.0000000000000000 [Eh]
	 Same-Spin Energy          =      -0.5047726052200373 [Eh]
	 Opposite-Spin Energy      =      -1.6429200001690343 [Eh]
	 Correlation Energy        =      -2.1476926053890715 [Eh]
	 Total Energy              =    -439.8311200946994859 [Eh]

	 ================> DF-SCS-MP2 Energies <==================
	-----------------------------------------------------------
	 SCS Same-Spin Scale       =       0.3333333333333333 [-]
	 SCS Opposite-Spin Scale   =       1.2000000000000000 [-]
	 SCS Same-Spin Energy      =      -0.1682575350733458 [Eh]
	 SCS Opposite-Spin Energy  =      -1.9715040002028410 [Eh]
	 SCS Correlation Energy    =      -2.1397615352761870 [Eh]
	 SCS Total Energy          =    -439.8231890245866111 [Eh]
	-----------------------------------------------------------

*** Psi4 exiting successfully. Buy a developer a beer!
