                               Psi4 1.4a2.dev224

  ==> Input File <==

--------------------------------------------------------------------------
#Generated by lconvert.py for cbs job

memory 40 GB

molecule  {
0 1
  N       -2.6330390    -1.7510900    -0.9001150
  C       -2.2578060     1.4032050     0.7336210
  C       -3.5331660     1.9396200     0.6732940
  C       -4.5941960     1.2394070     0.0637350
  C       -4.3993280    -0.0127580    -0.4979920
  C       -3.1117410    -0.5537930    -0.4368320
  C       -2.0263250     0.1352780     0.1734480
  C       -0.8827400    -0.7079510     0.0508040
  C       -1.2955870    -1.8442010    -0.6078240
  H       -1.4520190     1.9513540     1.2045360
  H       -3.7236730     2.9146940     1.1009290
  H       -5.5779950     1.6879270     0.0341470
  H       -5.2133710    -0.5506910    -0.9660040
  H        0.1166300    -0.5107330     0.3993830
  H       -3.1776140    -2.4541930    -1.3807030
  H       -0.7350890    -2.7187200    -0.8929720
--
0 1
  O       -4.1601210    -3.6815160    -2.2277540
  H       -4.7119230    -4.3601200    -1.8333110
  H       -4.3763960    -3.7116100    -3.1620420
units angstrom
no_reorient
symmetry c1
}

set {
scf_type DF
mp2_type DF
e_convergence 7
reference rhf
}

energy('mp2/aug-cc-pv[tq]z', bsse_type='cp')
--------------------------------------------------------------------------

    Molecular point group: c1
  Charge       = 0
  Multiplicity = 1
  Basis Set: AUG-CC-PVTZ
    Blend: AUG-CC-PVTZ
  Basis Set: (AUG-CC-PVTZ AUX)
    Blend: AUG-CC-PVTZ-JKFIT
  @DF-RHF Final Energy:   -76.06044151667368
    Total Energy =                        -76.0604415166736771
  Basis Set: (AUG-CC-PVTZ AUX)
    Blend: AUG-CC-PVTZ-RI
	 Reference Energy          =     -76.0604415166736771 [Eh]
	 Singles Energy            =      -0.0000000000000000 [Eh]
	 Same-Spin Energy          =      -0.0683758720588256 [Eh]
	 Opposite-Spin Energy      =      -0.2152730031980701 [Eh]
	 Correlation Energy        =      -0.2836488752568957 [Eh]
	 Total Energy              =     -76.3440903919305782 [Eh]
	 SCS Total Energy          =     -76.3415610778642986 [Eh]
    Molecular point group: c1
  Basis Set: AUG-CC-PVQZ
    Blend: AUG-CC-PVQZ
  Basis Set: (AUG-CC-PVQZ AUX)
    Blend: AUG-CC-PVQZ-JKFIT
  @DF-RHF Final Energy:   -76.06582352595598
    Total Energy =                        -76.0658235259559774
  Basis Set: (AUG-CC-PVQZ AUX)
  @DF-RHF Final Energy:   -76.06055533025284
    Total Energy =                        -76.0605553302528392
  @DF-RHF Final Energy:   -76.06587222567923
    Total Energy =                        -76.0658722256792288
  @DF-RHF Final Energy:  -361.59048282321129
    Total Energy =                       -361.5904828232113459
  @DF-RHF Final Energy:  -361.61095027453337
    Total Energy =                       -361.6109502745333657
  @DF-RHF Final Energy:  -361.59038155955733
    Total Energy =                       -361.5903815595573860
  @DF-RHF Final Energy:  -361.61093609047225
    Total Energy =                       -361.6109360904722507
  Multiplicity = 1
  @DF-RHF Final Energy:  -437.65519132978091
    Total Energy =                       -437.6551913297809051
	 Singles Energy            =      -0.0000000000000000 [Eh]
	 Same-Spin Energy          =      -0.4792368642154917 [Eh]
	 Opposite-Spin Energy      =      -1.4665048156472811 [Eh]
	 Correlation Energy        =      -1.9457416798627727 [Eh]
	 Total Energy              =    -439.6009330096436543 [Eh]
	 SCS Total Energy          =    -439.5747427299627930 [Eh]
    Molecular point group: c1

    Geometry (in Angstrom), charge = 0, multiplicity = 1:

       Center              X                  Y                   Z               Mass
    ------------   -----------------  -----------------  -----------------  -----------------
         N            0.311389606045    -1.217780670073    -0.515501705580    14.003074004430
         C            0.686622606045     1.936514329927     1.118234294420    12.000000000000
         C           -0.588737393955     2.472929329927     1.057907294420    12.000000000000
         C           -1.649767393955     1.772716329927     0.448348294420    12.000000000000
         C           -1.454899393955     0.520551329927    -0.113378705580    12.000000000000
         C           -0.167312393955    -0.020483670073    -0.052218705580    12.000000000000
         C            0.918103606045     0.668587329927     0.558061294420    12.000000000000
         C            2.061688606045    -0.174641670073     0.435417294420    12.000000000000
         C            1.648841606045    -1.310891670073    -0.223210705580    12.000000000000
         H            1.492409606045     2.484663329927     1.589149294420     1.007825032230
         H           -0.779244393955     3.448003329927     1.485542294420     1.007825032230
         H           -2.633566393955     2.221236329927     0.418760294420     1.007825032230
         H           -2.268942393955    -0.017381670073    -0.581390705580     1.007825032230
         H            3.061058606045     0.022576329927     0.783996294420     1.007825032230
         H           -0.233185393955    -1.920883670073    -0.996089705580     1.007825032230
         H            2.209339606045    -2.185410670073    -0.508358705580     1.007825032230
         O           -1.215692393955    -3.148206670073    -1.843140705580    15.994914619570
         H           -1.767494393955    -3.826810670073    -1.448697705580     1.007825032230
         H           -1.431967393955    -3.178300670073    -2.777428705580     1.007825032230

  Charge       = 0
  Multiplicity = 1
  Basis Set: AUG-CC-PVQZ
    Blend: AUG-CC-PVQZ
  Basis Set: (AUG-CC-PVQZ AUX)
    Blend: AUG-CC-PVQZ-JKFIT

    Orbital Energies [Eh]
    ---------------------

    Doubly Occupied:

       1A    -20.603820     2A    -15.575284     3A    -11.254599
       4A    -11.248269     5A    -11.218025     6A    -11.216940
       7A    -11.215658     8A    -11.210933     9A    -11.208219
      10A    -11.200654    11A     -1.395079    12A     -1.279566
      13A     -1.116545    14A     -1.042028    15A     -0.983807
      16A     -0.960515    17A     -0.830094    18A     -0.794062
      19A     -0.775880    20A     -0.757013    21A     -0.719926
      22A     -0.653194    23A     -0.638121    24A     -0.633571
      25A     -0.585802    26A     -0.575487    27A     -0.567650
      28A     -0.559847    29A     -0.551759    30A     -0.536767
      31A     -0.496498    32A     -0.469287    33A     -0.452168
      34A     -0.372748    35A     -0.287298    36A     -0.268486

  @DF-RHF Final Energy:  -437.68101029668253

   => Energetics <=

    Nuclear Repulsion Energy =            483.9327754295570685
    One-Electron Energy =               -1554.7163708903678980
    Two-Electron Energy =                 633.1025851641282998
    Total Energy =                       -437.6810102966825298

  Dipole Moment: [D]
     X:    -1.9867      Y:    -4.1313      Z:    -2.5176     Total:     5.2300

  Basis Set: (AUG-CC-PVQZ AUX)
    Blend: AUG-CC-PVQZ-RI
	 Reference Energy          =    -437.6810102966825298 [Eh]
	 Singles Energy            =      -0.0000000000000000 [Eh]
	 Same-Spin Energy          =      -0.5061776777998179 [Eh]
	 Opposite-Spin Energy      =      -1.6441526806689704 [Eh]
	 Correlation Energy        =      -2.1503303584687883 [Eh]
	 Total Energy              =    -439.8313406551513367 [Eh]

	 ================> DF-SCS-MP2 Energies <==================
	-----------------------------------------------------------
	 SCS Same-Spin Scale       =       0.3333333333333333 [-]
	 SCS Opposite-Spin Scale   =       1.2000000000000000 [-]
	 SCS Same-Spin Energy      =      -0.1687258925999393 [Eh]
	 SCS Opposite-Spin Energy  =      -1.9729832168027643 [Eh]
	 SCS Correlation Energy    =      -2.1417091094027034 [Eh]
	 SCS Total Energy          =    -439.8227194060852412 [Eh]
	-----------------------------------------------------------

*** Psi4 exiting successfully. Buy a developer a beer!
