                               Psi4 1.4a2.dev224

  ==> Input File <==

--------------------------------------------------------------------------
#Generated by lconvert.py for cbs job

memory 40 GB

molecule  {
0 1
  N       -2.6330390    -1.7510900    -0.9001150
  C       -2.2578060     1.4032050     0.7336210
  C       -3.5331660     1.9396200     0.6732940
  C       -4.5941960     1.2394070     0.0637350
  C       -4.3993280    -0.0127580    -0.4979920
  C       -3.1117410    -0.5537930    -0.4368320
  C       -2.0263250     0.1352780     0.1734480
  C       -0.8827400    -0.7079510     0.0508040
  C       -1.2955870    -1.8442010    -0.6078240
  H       -1.4520190     1.9513540     1.2045360
  H       -3.7236730     2.9146940     1.1009290
  H       -5.5779950     1.6879270     0.0341470
  H       -5.2133710    -0.5506910    -0.9660040
  H        0.1166300    -0.5107330     0.3993830
  H       -3.1776140    -2.4541930    -1.3807030
  H       -0.7350890    -2.7187200    -0.8929720
--
0 1
  O       -3.9417870    -3.4087770    -2.0395210
  H       -4.4935880    -4.0873810    -1.6450780
  H       -4.1580610    -3.4388710    -2.9738090
units angstrom
no_reorient
symmetry c1
}

set {
scf_type DF
mp2_type DF
e_convergence 7
reference rhf
}

energy('mp2/aug-cc-pv[tq]z', bsse_type='cp')
--------------------------------------------------------------------------

    Molecular point group: c1
  Charge       = 0
  Multiplicity = 1
  Basis Set: AUG-CC-PVTZ
    Blend: AUG-CC-PVTZ
  Basis Set: (AUG-CC-PVTZ AUX)
    Blend: AUG-CC-PVTZ-JKFIT
  @DF-RHF Final Energy:   -76.06044155012989
    Total Energy =                        -76.0604415501298945
  Basis Set: (AUG-CC-PVTZ AUX)
    Blend: AUG-CC-PVTZ-RI
	 Reference Energy          =     -76.0604415501298945 [Eh]
	 Singles Energy            =      -0.0000000000000000 [Eh]
	 Same-Spin Energy          =      -0.0683758638927471 [Eh]
	 Opposite-Spin Energy      =      -0.2152729785882172 [Eh]
	 Correlation Energy        =      -0.2836488424809642 [Eh]
	 Total Energy              =     -76.3440903926108518 [Eh]
	 SCS Total Energy          =     -76.3415610790666648 [Eh]
    Molecular point group: c1
  Basis Set: AUG-CC-PVQZ
    Blend: AUG-CC-PVQZ
  Basis Set: (AUG-CC-PVQZ AUX)
    Blend: AUG-CC-PVQZ-JKFIT
  @DF-RHF Final Energy:   -76.06582356137706
    Total Energy =                        -76.0658235613770586
  Basis Set: (AUG-CC-PVQZ AUX)
  @DF-RHF Final Energy:   -76.06061419378787
    Total Energy =                        -76.0606141937878704
  @DF-RHF Final Energy:   -76.06589058093222
    Total Energy =                        -76.0658905809322192
  @DF-RHF Final Energy:  -361.59052072779002
    Total Energy =                       -361.5905207277900217
  @DF-RHF Final Energy:  -361.61095860395011
    Total Energy =                       -361.6109586039500527
  @DF-RHF Final Energy:  -361.59038155736420
    Total Energy =                       -361.5903815573642532
  @DF-RHF Final Energy:  -361.61093609493059
    Total Energy =                       -361.6109360949305938
  Multiplicity = 1
  @DF-RHF Final Energy:  -437.63362501751925
    Total Energy =                       -437.6336250175191935
	 Singles Energy            =      -0.0000000000000000 [Eh]
	 Same-Spin Energy          =      -0.4821955742051779 [Eh]
	 Opposite-Spin Energy      =      -1.4690962017183162 [Eh]
	 Correlation Energy        =      -1.9512917759234942 [Eh]
	 Total Energy              =    -439.5849167934427442 [Eh]
	 SCS Total Energy          =    -439.5572723176496197 [Eh]
    Molecular point group: c1

    Geometry (in Angstrom), charge = 0, multiplicity = 1:

       Center              X                  Y                   Z               Mass
    ------------   -----------------  -----------------  -----------------  -----------------
         N            0.282276058833    -1.254148783528    -0.540601449657    14.003074004430
         C            0.657509058833     1.900146216472     1.093134550343    12.000000000000
         C           -0.617850941167     2.436561216472     1.032807550343    12.000000000000
         C           -1.678880941167     1.736348216472     0.423248550343    12.000000000000
         C           -1.484012941167     0.484183216472    -0.138478449657    12.000000000000
         C           -0.196425941167    -0.056851783528    -0.077318449657    12.000000000000
         C            0.888990058833     0.632219216472     0.532961550343    12.000000000000
         C            2.032575058833    -0.211009783528     0.410317550343    12.000000000000
         C            1.619728058833    -1.347259783528    -0.248310449657    12.000000000000
         H            1.463296058833     2.448295216472     1.564049550343     1.007825032230
         H           -0.808357941167     3.411635216472     1.460442550343     1.007825032230
         H           -2.662679941167     2.184868216472     0.393660550343     1.007825032230
         H           -2.298055941167    -0.053749783528    -0.606490449657     1.007825032230
         H            3.031945058833    -0.013791783528     0.758896550343     1.007825032230
         H           -0.262298941167    -1.957251783528    -1.021189449657     1.007825032230
         H            2.180226058833    -2.221778783528    -0.533458449657     1.007825032230
         O           -1.026471941167    -2.911835783528    -1.680007449657    15.994914619570
         H           -1.578272941167    -3.590439783528    -1.285564449657     1.007825032230
         H           -1.242745941167    -2.941929783528    -2.614295449657     1.007825032230

  Charge       = 0
  Multiplicity = 1
  Basis Set: AUG-CC-PVQZ
    Blend: AUG-CC-PVQZ
  Basis Set: (AUG-CC-PVQZ AUX)
    Blend: AUG-CC-PVQZ-JKFIT

    Orbital Energies [Eh]
    ---------------------

    Doubly Occupied:

       1A    -20.620756     2A    -15.552804     3A    -11.246904
       4A    -11.240823     5A    -11.214013     6A    -11.212577
       7A    -11.211787     8A    -11.204844     9A    -11.203940
      10A    -11.193850    11A     -1.424293    12A     -1.269212
      13A     -1.111634    14A     -1.036692    15A     -0.979306
      16A     -0.954990    17A     -0.828873    18A     -0.803040
      19A     -0.779322    20A     -0.772221    21A     -0.731895
      22A     -0.659536    23A     -0.634743    24A     -0.630554
      25A     -0.584479    26A     -0.575546    27A     -0.561842
      28A     -0.558288    29A     -0.539402    30A     -0.529138
      31A     -0.491770    32A     -0.462451    33A     -0.446211
      34A     -0.366949    35A     -0.280989    36A     -0.262565

  @DF-RHF Final Energy:  -437.65936884971961

   => Energetics <=

    Nuclear Repulsion Energy =            491.4763632054501841
    One-Electron Energy =               -1569.9149788707452444
    Two-Electron Energy =                 640.7792468155753340
    Total Energy =                       -437.6593688497196126

  Dipole Moment: [D]
     X:    -2.2819      Y:    -4.7524      Z:    -2.8952     Total:     6.0146

  Basis Set: (AUG-CC-PVQZ AUX)
    Blend: AUG-CC-PVQZ-RI
	 Reference Energy          =    -437.6593688497196126 [Eh]
	 Singles Energy            =      -0.0000000000000000 [Eh]
	 Same-Spin Energy          =      -0.5091987331538564 [Eh]
	 Opposite-Spin Energy      =      -1.6468027255335502 [Eh]
	 Correlation Energy        =      -2.1560014586874066 [Eh]
	 Total Energy              =    -439.8153703084070116 [Eh]

	 ================> DF-SCS-MP2 Energies <==================
	-----------------------------------------------------------
	 SCS Same-Spin Scale       =       0.3333333333333333 [-]
	 SCS Opposite-Spin Scale   =       1.2000000000000000 [-]
	 SCS Same-Spin Energy      =      -0.1697329110512855 [Eh]
	 SCS Opposite-Spin Energy  =      -1.9761632706402601 [Eh]
	 SCS Correlation Energy    =      -2.1458961816915454 [Eh]
	 SCS Total Energy          =    -439.8052650314111816 [Eh]
	-----------------------------------------------------------

*** Psi4 exiting successfully. Buy a developer a beer!
