                               Psi4 1.4a2.dev224

  ==> Input File <==

--------------------------------------------------------------------------
#Generated by lconvert.py for cbs job

memory 40 GB

molecule  {
0 1
  N       -2.6330390    -1.7510900    -0.9001150
  C       -2.2578060     1.4032050     0.7336210
  C       -3.5331660     1.9396200     0.6732940
  C       -4.5941960     1.2394070     0.0637350
  C       -4.3993280    -0.0127580    -0.4979920
  C       -3.1117410    -0.5537930    -0.4368320
  C       -2.0263250     0.1352780     0.1734480
  C       -0.8827400    -0.7079510     0.0508040
  C       -1.2955870    -1.8442010    -0.6078240
  H       -1.4520190     1.9513540     1.2045360
  H       -3.7236730     2.9146940     1.1009290
  H       -5.5779950     1.6879270     0.0341470
  H       -5.2133710    -0.5506910    -0.9660040
  H        0.1166300    -0.5107330     0.3993830
  H       -3.1776140    -2.4541930    -1.3807030
  H       -0.7350890    -2.7187200    -0.8929720
--
0 1
  O       -4.0509540    -3.5451470    -2.1336370
  H       -4.6027550    -4.2237510    -1.7391940
  H       -4.2672280    -3.5752410    -3.0679250
units angstrom
no_reorient
symmetry c1
}

set {
scf_type DF
mp2_type DF
e_convergence 7
reference rhf
}

energy('mp2/aug-cc-pv[tq]z', bsse_type='cp')
--------------------------------------------------------------------------

    Molecular point group: c1
  Charge       = 0
  Multiplicity = 1
  Basis Set: AUG-CC-PVTZ
    Blend: AUG-CC-PVTZ
  Basis Set: (AUG-CC-PVTZ AUX)
    Blend: AUG-CC-PVTZ-JKFIT
  @DF-RHF Final Energy:   -76.06044155013167
    Total Energy =                        -76.0604415501316709
  Basis Set: (AUG-CC-PVTZ AUX)
    Blend: AUG-CC-PVTZ-RI
	 Reference Energy          =     -76.0604415501316709 [Eh]
	 Singles Energy            =      -0.0000000000000000 [Eh]
	 Same-Spin Energy          =      -0.0683758638927801 [Eh]
	 Opposite-Spin Energy      =      -0.2152729785883123 [Eh]
	 Correlation Energy        =      -0.2836488424810923 [Eh]
	 Total Energy              =     -76.3440903926127703 [Eh]
	 SCS Total Energy          =     -76.3415610790685690 [Eh]
    Molecular point group: c1
  Basis Set: AUG-CC-PVQZ
    Blend: AUG-CC-PVQZ
  Basis Set: (AUG-CC-PVQZ AUX)
    Blend: AUG-CC-PVQZ-JKFIT
  @DF-RHF Final Energy:   -76.06582356137227
    Total Energy =                        -76.0658235613722695
  Basis Set: (AUG-CC-PVQZ AUX)
  @DF-RHF Final Energy:   -76.06057998185028
    Total Energy =                        -76.0605799818502675
  @DF-RHF Final Energy:   -76.06588157395639
    Total Energy =                        -76.0658815739563750
  @DF-RHF Final Energy:  -361.59050128924503
    Total Energy =                       -361.5905012892450259
  @DF-RHF Final Energy:  -361.61095366145429
    Total Energy =                       -361.6109536614543458
  @DF-RHF Final Energy:  -361.59038156291439
    Total Energy =                       -361.5903815629143310
  @DF-RHF Final Energy:  -361.61093608976984
    Total Energy =                       -361.6109360897697798
  Multiplicity = 1
  @DF-RHF Final Energy:  -437.64888672569185
    Total Energy =                       -437.6488867256917956
	 Singles Energy            =      -0.0000000000000000 [Eh]
	 Same-Spin Energy          =      -0.4804524405651238 [Eh]
	 Opposite-Spin Energy      =      -1.4676061838100916 [Eh]
	 Correlation Energy        =      -1.9480586243752154 [Eh]
	 Total Energy              =    -439.5969453500670738 [Eh]
	 SCS Total Energy          =    -439.5701649597856431 [Eh]
    Molecular point group: c1

    Geometry (in Angstrom), charge = 0, multiplicity = 1:

       Center              X                  Y                   Z               Mass
    ------------   -----------------  -----------------  -----------------  -----------------
         N            0.296832824978    -1.235964660129    -0.528051644291    14.003074004430
         C            0.672065824978     1.918330339871     1.105684355709    12.000000000000
         C           -0.603294175022     2.454745339871     1.045357355709    12.000000000000
         C           -1.664324175022     1.754532339871     0.435798355709    12.000000000000
         C           -1.469456175022     0.502367339871    -0.125928644291    12.000000000000
         C           -0.181869175022    -0.038667660129    -0.064768644291    12.000000000000
         C            0.903546824978     0.650403339871     0.545511355709    12.000000000000
         C            2.047131824978    -0.192825660129     0.422867355709    12.000000000000
         C            1.634284824978    -1.329075660129    -0.235760644291    12.000000000000
         H            1.477852824978     2.466479339871     1.576599355709     1.007825032230
         H           -0.793801175022     3.429819339871     1.472992355709     1.007825032230
         H           -2.648123175022     2.203052339871     0.406210355709     1.007825032230
         H           -2.283499175022    -0.035565660129    -0.593940644291     1.007825032230
         H            3.046501824978     0.004392339871     0.771446355709     1.007825032230
         H           -0.247742175022    -1.939067660129    -1.008639644291     1.007825032230
         H            2.194782824978    -2.203594660129    -0.520908644291     1.007825032230
         O           -1.121082175022    -3.030021660129    -1.761573644291    15.994914619570
         H           -1.672883175022    -3.708625660129    -1.367130644291     1.007825032230
         H           -1.337356175022    -3.060115660129    -2.695861644291     1.007825032230

  Charge       = 0
  Multiplicity = 1
  Basis Set: AUG-CC-PVQZ
    Blend: AUG-CC-PVQZ
  Basis Set: (AUG-CC-PVQZ AUX)
    Blend: AUG-CC-PVQZ-JKFIT

    Orbital Energies [Eh]
    ---------------------

    Doubly Occupied:

       1A    -20.611054     2A    -15.566295     3A    -11.251354
       4A    -11.245122     5A    -11.216273     6A    -11.215066
       7A    -11.213976     8A    -11.208337     9A    -11.206379
      10A    -11.197750    11A     -1.406504    12A     -1.275164
      13A     -1.114398    14A     -1.039586    15A     -0.981693
      16A     -0.958106    17A     -0.828546    18A     -0.795652
      19A     -0.774138    20A     -0.766205    21A     -0.724424
      22A     -0.656935    23A     -0.637667    24A     -0.633206
      25A     -0.584081    26A     -0.568884    27A     -0.564293
      28A     -0.563667    29A     -0.550598    30A     -0.533942
      31A     -0.494474    32A     -0.466562    33A     -0.449629
      34A     -0.370260    35A     -0.284607    36A     -0.265969

  @DF-RHF Final Energy:  -437.67465769570617

   => Energetics <=

    Nuclear Repulsion Energy =            487.4974936489546735
    One-Electron Energy =               -1561.9027045782495406
    Two-Electron Energy =                 636.7305532335885800
    Total Energy =                       -437.6746576957061734

  Dipole Moment: [D]
     X:    -2.1103      Y:    -4.3940      Z:    -2.6770     Total:     5.5612

  Basis Set: (AUG-CC-PVQZ AUX)
    Blend: AUG-CC-PVQZ-RI
	 Reference Energy          =    -437.6746576957061734 [Eh]
	 Singles Energy            =      -0.0000000000000000 [Eh]
	 Same-Spin Energy          =      -0.5074160008783279 [Eh]
	 Opposite-Spin Energy      =      -1.6452412520491726 [Eh]
	 Correlation Energy        =      -2.1526572529275008 [Eh]
	 Total Energy              =    -439.8273149486336706 [Eh]

	 ================> DF-SCS-MP2 Energies <==================
	-----------------------------------------------------------
	 SCS Same-Spin Scale       =       0.3333333333333333 [-]
	 SCS Opposite-Spin Scale   =       1.2000000000000000 [-]
	 SCS Same-Spin Energy      =      -0.1691386669594426 [Eh]
	 SCS Opposite-Spin Energy  =      -1.9742895024590070 [Eh]
	 SCS Correlation Energy    =      -2.1434281694184496 [Eh]
	 SCS Total Energy          =    -439.8180858651246012 [Eh]
	-----------------------------------------------------------

*** Psi4 exiting successfully. Buy a developer a beer!
