                               Psi4 1.4a2.dev224

  ==> Input File <==

--------------------------------------------------------------------------
#Generated by lconvert.py for cbs job

memory 40 GB

molecule  {
0 1
  N       -2.6330390    -1.7510900    -0.9001150
  C       -2.2578060     1.4032050     0.7336210
  C       -3.5331660     1.9396200     0.6732940
  C       -4.5941960     1.2394070     0.0637350
  C       -4.3993280    -0.0127580    -0.4979920
  C       -3.1117410    -0.5537930    -0.4368320
  C       -2.0263250     0.1352780     0.1734480
  C       -0.8827400    -0.7079510     0.0508040
  C       -1.2955870    -1.8442010    -0.6078240
  H       -1.4520190     1.9513540     1.2045360
  H       -3.7236730     2.9146940     1.1009290
  H       -5.5779950     1.6879270     0.0341470
  H       -5.2133710    -0.5506910    -0.9660040
  H        0.1166300    -0.5107330     0.3993830
  H       -3.1776140    -2.4541930    -1.3807030
  H       -0.7350890    -2.7187200    -0.8929720
--
0 1
  O       -4.2692890    -3.8178850    -2.3218710
  H       -4.8210900    -4.4964890    -1.9274280
  H       -4.4855630    -3.8479790    -3.2561590
units angstrom
no_reorient
symmetry c1
}

set {
scf_type DF
mp2_type DF
e_convergence 7
reference rhf
}

energy('mp2/aug-cc-pv[tq]z', bsse_type='cp')
--------------------------------------------------------------------------

    Molecular point group: c1
  Charge       = 0
  Multiplicity = 1
  Basis Set: AUG-CC-PVTZ
    Blend: AUG-CC-PVTZ
  Basis Set: (AUG-CC-PVTZ AUX)
    Blend: AUG-CC-PVTZ-JKFIT
  @DF-RHF Final Energy:   -76.06044155012910
    Total Energy =                        -76.0604415501290845
  Basis Set: (AUG-CC-PVTZ AUX)
    Blend: AUG-CC-PVTZ-RI
	 Reference Energy          =     -76.0604415501290987 [Eh]
	 Singles Energy            =      -0.0000000000000000 [Eh]
	 Same-Spin Energy          =      -0.0683758638927615 [Eh]
	 Opposite-Spin Energy      =      -0.2152729785882249 [Eh]
	 Correlation Energy        =      -0.2836488424809864 [Eh]
	 Total Energy              =     -76.3440903926100845 [Eh]
	 SCS Total Energy          =     -76.3415610790658832 [Eh]
    Molecular point group: c1
  Basis Set: AUG-CC-PVQZ
    Blend: AUG-CC-PVQZ
  Basis Set: (AUG-CC-PVQZ AUX)
    Blend: AUG-CC-PVQZ-JKFIT
  @DF-RHF Final Energy:   -76.06582356137295
    Total Energy =                        -76.0658235613729516
  Basis Set: (AUG-CC-PVQZ AUX)
  @DF-RHF Final Energy:   -76.06053385530535
    Total Energy =                        -76.0605338553053514
  @DF-RHF Final Energy:   -76.06586472647224
    Total Energy =                        -76.0658647264722276
  @DF-RHF Final Energy:  -361.59046641523867
    Total Energy =                       -361.5904664152386658
  @DF-RHF Final Energy:  -361.61094789225882
    Total Energy =                       -361.6109478922587641
  @DF-RHF Final Energy:  -361.59038156215161
    Total Energy =                       -361.5903815621516060
  @DF-RHF Final Energy:  -361.61093610017087
    Total Energy =                       -361.6109361001708749
  Multiplicity = 1
  @DF-RHF Final Energy:  -437.65730895338237
    Total Energy =                       -437.6573089533824259
	 Singles Energy            =      -0.0000000000000000 [Eh]
	 Same-Spin Energy          =      -0.4784031427070300 [Eh]
	 Opposite-Spin Energy      =      -1.4656004333670287 [Eh]
	 Correlation Energy        =      -1.9440035760740586 [Eh]
	 Total Energy              =    -439.6013125294564361 [Eh]
	 SCS Total Energy          =    -439.5754971876584705 [Eh]
    Molecular point group: c1

    Geometry (in Angstrom), charge = 0, multiplicity = 1:

       Center              X                  Y                   Z               Mass
    ------------   -----------------  -----------------  -----------------  -----------------
         N            0.325946490611    -1.199596680018    -0.502951766869    14.003074004430
         C            0.701179490611     1.954698319982     1.130784233131    12.000000000000
         C           -0.574180509389     2.491113319982     1.070457233131    12.000000000000
         C           -1.635210509389     1.790900319982     0.460898233131    12.000000000000
         C           -1.440342509389     0.538735319982    -0.100828766869    12.000000000000
         C           -0.152755509389    -0.002299680018    -0.039668766869    12.000000000000
         C            0.932660490611     0.686771319982     0.570611233131    12.000000000000
         C            2.076245490611    -0.156457680018     0.447967233131    12.000000000000
         C            1.663398490611    -1.292707680018    -0.210660766869    12.000000000000
         H            1.506966490611     2.502847319982     1.601699233131     1.007825032230
         H           -0.764687509389     3.466187319982     1.498092233131     1.007825032230
         H           -2.619009509389     2.239420319982     0.431310233131     1.007825032230
         H           -2.254385509389     0.000802319982    -0.568840766869     1.007825032230
         H            3.075615490611     0.040760319982     0.796546233131     1.007825032230
         H           -0.218628509389    -1.902699680018    -0.983539766869     1.007825032230
         H            2.223896490611    -2.167226680018    -0.495808766869     1.007825032230
         O           -1.310303509389    -3.266391680018    -1.924707766869    15.994914619570
         H           -1.862104509389    -3.944995680018    -1.530264766869     1.007825032230
         H           -1.526577509389    -3.296485680018    -2.858995766869     1.007825032230

  Charge       = 0
  Multiplicity = 1
  Basis Set: AUG-CC-PVQZ
    Blend: AUG-CC-PVQZ
  Basis Set: (AUG-CC-PVQZ AUX)
    Blend: AUG-CC-PVQZ-JKFIT

    Orbital Energies [Eh]
    ---------------------

    Doubly Occupied:

       1A    -20.598234     2A    -15.581314     3A    -11.256985
       4A    -11.250593     5A    -11.219398     6A    -11.218365
       7A    -11.216962     8A    -11.212875     9A    -11.209620
      10A    -11.202831    11A     -1.387305    12A     -1.282832
      13A     -1.118206    14A     -1.043992    15A     -0.985536
      16A     -0.962361    17A     -0.831640    18A     -0.794528
      19A     -0.777539    20A     -0.750354    21A     -0.718576
      22A     -0.652168    23A     -0.638546    24A     -0.629059
      25A     -0.587428    26A     -0.581035    27A     -0.570601
      28A     -0.561886    29A     -0.545830    30A     -0.538763
      31A     -0.498032    32A     -0.471210    33A     -0.454068
      34A     -0.374628    35A     -0.289313    36A     -0.270368

  @DF-RHF Final Energy:  -437.68315681020670

   => Energetics <=

    Nuclear Repulsion Energy =            480.7101647706669496
    One-Electron Energy =               -1548.2206720934916575
    Two-Electron Energy =                 629.8273505126179543
    Total Energy =                       -437.6831568102066967

  Dipole Moment: [D]
     X:    -1.8975      Y:    -3.9380      Z:    -2.4008     Total:     4.9872

  Basis Set: (AUG-CC-PVQZ AUX)
    Blend: AUG-CC-PVQZ-RI
	 Reference Energy          =    -437.6831568102066967 [Eh]
	 Singles Energy            =      -0.0000000000000000 [Eh]
	 Same-Spin Energy          =      -0.5053375680423191 [Eh]
	 Opposite-Spin Energy      =      -1.6434153091407970 [Eh]
	 Correlation Energy        =      -2.1487528771831164 [Eh]
	 Total Energy              =    -439.8319096873898388 [Eh]

	 ================> DF-SCS-MP2 Energies <==================
	-----------------------------------------------------------
	 SCS Same-Spin Scale       =       0.3333333333333333 [-]
	 SCS Opposite-Spin Scale   =       1.2000000000000000 [-]
	 SCS Same-Spin Energy      =      -0.1684458560141064 [Eh]
	 SCS Opposite-Spin Energy  =      -1.9720983709689563 [Eh]
	 SCS Correlation Energy    =      -2.1405442269830628 [Eh]
	 SCS Total Energy          =    -439.8237010371897782 [Eh]
	-----------------------------------------------------------

*** Psi4 exiting successfully. Buy a developer a beer!
