                               Psi4 1.4a2.dev224

  ==> Input File <==

--------------------------------------------------------------------------
#Generated by lconvert.py for cbs job

memory 40 GB

molecule  {
0 1
  N       -2.6330390    -1.7510900    -0.9001150
  C       -2.2578060     1.4032050     0.7336210
  C       -3.5331660     1.9396200     0.6732940
  C       -4.5941960     1.2394070     0.0637350
  C       -4.3993280    -0.0127580    -0.4979920
  C       -3.1117410    -0.5537930    -0.4368320
  C       -2.0263250     0.1352780     0.1734480
  C       -0.8827400    -0.7079510     0.0508040
  C       -1.2955870    -1.8442010    -0.6078240
  H       -1.4520190     1.9513540     1.2045360
  H       -3.7236730     2.9146940     1.1009290
  H       -5.5779950     1.6879270     0.0341470
  H       -5.2133710    -0.5506910    -0.9660040
  H        0.1166300    -0.5107330     0.3993830
  H       -3.1776140    -2.4541930    -1.3807030
  H       -0.7350890    -2.7187200    -0.8929720
--
0 1
  O       -3.9417870    -3.4087770    -2.0395210
  H       -4.4935880    -4.0873810    -1.6450780
  H       -4.1580610    -3.4388710    -2.9738090
units angstrom
no_reorient
symmetry c1
}

set {
scf_type DF
mp2_type DF
e_convergence 7
reference rhf
}

energy('mp2/aug-cc-pv[tq]z', bsse_type='cp')
--------------------------------------------------------------------------

    Molecular point group: c1
  Charge       = 0
  Multiplicity = 1
  Basis Set: AUG-CC-PVTZ
    Blend: AUG-CC-PVTZ
  Basis Set: (AUG-CC-PVTZ AUX)
    Blend: AUG-CC-PVTZ-JKFIT
  @DF-RHF Final Energy:   -76.06044155012989
    Total Energy =                        -76.0604415501298945
  Basis Set: (AUG-CC-PVTZ AUX)
    Blend: AUG-CC-PVTZ-RI
	 Reference Energy          =     -76.0604415501298945 [Eh]
	 Singles Energy            =      -0.0000000000000000 [Eh]
	 Same-Spin Energy          =      -0.0683758638927471 [Eh]
	 Opposite-Spin Energy      =      -0.2152729785882172 [Eh]
	 Correlation Energy        =      -0.2836488424809642 [Eh]
	 Total Energy              =     -76.3440903926108518 [Eh]
	 SCS Total Energy          =     -76.3415610790666648 [Eh]
    Molecular point group: c1
  Basis Set: AUG-CC-PVQZ
    Blend: AUG-CC-PVQZ
  Basis Set: (AUG-CC-PVQZ AUX)
    Blend: AUG-CC-PVQZ-JKFIT
  @DF-RHF Final Energy:   -76.06582356137706
    Total Energy =                        -76.0658235613770586
  Basis Set: (AUG-CC-PVQZ AUX)
  @DF-RHF Final Energy:   -76.06061419378787
    Total Energy =                        -76.0606141937878704
  @DF-RHF Final Energy:   -76.06589058093222
    Total Energy =                        -76.0658905809322192
  @DF-RHF Final Energy:  -361.59052072779002
    Total Energy =                       -361.5905207277900217
  @DF-RHF Final Energy:  -361.61095860395011
    Total Energy =                       -361.6109586039500527
  @DF-RHF Final Energy:  -361.59038155736420
    Total Energy =                       -361.5903815573642532
  @DF-RHF Final Energy:  -361.61093609493059
    Total Energy =                       -361.6109360949305938
  @DF-RHF Final Energy:  -437.63362501751925
    Total Energy =                       -437.6336250175191935
  @DF-RHF Final Energy:  -437.65936884971961
    Total Energy =                       -437.6593688497196126
*** Psi4 exiting successfully. Buy a developer a beer!
                               Psi4 1.4a2.dev224
  @DF-RHF Final Energy:   -76.06044155013167
    Total Energy =                        -76.0604415501316709
  @DF-RHF Final Energy:   -76.06582356137227
    Total Energy =                        -76.0658235613722695
  @DF-RHF Final Energy:   -76.06057998185028
    Total Energy =                        -76.0605799818502675
  @DF-RHF Final Energy:   -76.06588157395639
    Total Energy =                        -76.0658815739563750
  @DF-RHF Final Energy:  -361.59050128924503
    Total Energy =                       -361.5905012892450259
  @DF-RHF Final Energy:  -361.61095366145429
    Total Energy =                       -361.6109536614543458
  @DF-RHF Final Energy:  -361.59038156291439
    Total Energy =                       -361.5903815629143310
  @DF-RHF Final Energy:  -361.61093608976984
    Total Energy =                       -361.6109360897697798
  @DF-RHF Final Energy:  -437.64888672569185
    Total Energy =                       -437.6488867256917956
  @DF-RHF Final Energy:  -437.67465769570617
    Total Energy =                       -437.6746576957061734
*** Psi4 exiting successfully. Buy a developer a beer!
                               Psi4 1.4a2.dev224
                               Psi4 1.4a2.dev224
                               Psi4 1.4a2.dev224
                               Psi4 1.4a2.dev224
                               Psi4 1.4a2.dev224
                               Psi4 1.4a2.dev224
                               Psi4 1.4a2.dev224
  @DF-RHF Final Energy:   -76.06044139537383
    Total Energy =                        -76.0604413953738288
  @DF-RHF Final Energy:   -76.06582339767024
    Total Energy =                        -76.0658233976702292
  @DF-RHF Final Energy:   -76.06046197858014
    Total Energy =                        -76.0604619785801361
  @DF-RHF Final Energy:   -76.06583761534752
    Total Energy =                        -76.0658376153475331
  @DF-RHF Final Energy:  -361.59039625409724
    Total Energy =                       -361.5903962540972998
  @DF-RHF Final Energy:  -361.61093983787794
    Total Energy =                       -361.6109398378779360
  @DF-RHF Final Energy:  -361.59038185065936
    Total Energy =                       -361.5903818506593552
  @DF-RHF Final Energy:  -361.61093639867630
    Total Energy =                       -361.6109363986763583
  @DF-RHF Final Energy:  -437.65433338059211
    Total Energy =                       -437.6543333805921066
  @DF-RHF Final Energy:  -437.68024198414912
    Total Energy =                       -437.6802419841491201
*** Psi4 exiting successfully. Buy a developer a beer!
                               Psi4 1.4a2.dev224
  @DF-RHF Final Energy:   -76.06044152182942
    Total Energy =                        -76.0604415218294179
  @DF-RHF Final Energy:   -76.06582353264876
    Total Energy =                        -76.0658235326487784
  @DF-RHF Final Energy:   -76.06045098613440
    Total Energy =                        -76.0604509861343985
  @DF-RHF Final Energy:   -76.06583007973369
    Total Energy =                        -76.0658300797337006
  @DF-RHF Final Energy:  -361.59039012105239
    Total Energy =                       -361.5903901210524509
  @DF-RHF Final Energy:  -361.61093808826871
    Total Energy =                       -361.6109380882687674
  @DF-RHF Final Energy:  -361.59038184721817
    Total Energy =                       -361.5903818472181683
  @DF-RHF Final Energy:  -361.61093638804454
    Total Energy =                       -361.6109363880445926
  Multiplicity = 1
  @DF-RHF Final Energy:  -437.65310395678921
    Total Energy =                       -437.6531039567892094
	 Singles Energy            =      -0.0000000000000000 [Eh]
	 Same-Spin Energy          =      -0.4765439657125435 [Eh]
	 Opposite-Spin Energy      =      -1.4627994035569474 [Eh]
	 Correlation Energy        =      -1.9393433692694910 [Eh]
	 Total Energy              =    -439.5924473260586751 [Eh]
	 SCS Total Energy          =    -439.5673112296283875 [Eh]
    Molecular point group: c1

    Geometry (in Angstrom), charge = 0, multiplicity = 1:

       Center              X                  Y                   Z               Mass
    ------------   -----------------  -----------------  -----------------  -----------------
         N            0.456957155411    -1.035941316499    -0.389998231230    14.003074004430
         C            0.832187155411     2.118358683501     1.243731768770    12.000000000000
         C           -0.443172844589     2.654768683501     1.183401768770    12.000000000000
         C           -1.504202844589     1.954558683501     0.573841768770    12.000000000000
         C           -1.309332844589     0.702388683501     0.012121768770    12.000000000000
         C           -0.021742844589     0.161358683501     0.073281768770    12.000000000000
         C            1.063677155411     0.850428683501     0.683561768770    12.000000000000
         C            2.207257155411     0.007198683501     0.560911768770    12.000000000000
         C            1.794407155411    -1.129051316499    -0.097708231230    12.000000000000
         H            1.637977155411     2.666498683501     1.714651768770     1.007825032230
         H           -0.633672844589     3.629838683501     1.611041768770     1.007825032230
         H           -2.487992844589     2.403078683501     0.544261768770     1.007825032230
         H           -2.123372844589     0.164458683501    -0.455888231230     1.007825032230
         H            3.206627155411     0.204418683501     0.909491768770     1.007825032230
         H           -0.087612844589    -1.739041316499    -0.870588231230     1.007825032230
         H            2.354907155411    -2.003571316499    -0.382858231230     1.007825032230
         O           -2.161792844589    -4.330061316499    -2.658808231230    15.994914619570
         H           -2.713592844589    -5.008671316499    -2.264358231230     1.007825032230
         H           -2.378072844589    -4.360161316499    -3.593088231230     1.007825032230

  Charge       = 0
  Multiplicity = 1
  Basis Set: AUG-CC-PVQZ
    Blend: AUG-CC-PVQZ
  Basis Set: (AUG-CC-PVQZ AUX)
    Blend: AUG-CC-PVQZ-JKFIT

    Orbital Energies [Eh]
    ---------------------

    Doubly Occupied:

       1A    -20.576722     2A    -15.596830     3A    -11.264911
       4A    -11.258438     5A    -11.224960     6A    -11.223668
       7A    -11.222096     8A    -11.219618     9A    -11.214790
      10A    -11.210400    11A     -1.363423    12A     -1.293602
      13A     -1.124406    14A     -1.051464    15A     -0.992243
      16A     -0.969057    17A     -0.838314    18A     -0.801450
      19A     -0.784972    20A     -0.727883    21A     -0.723795
      22A     -0.657935    23A     -0.643837    24A     -0.598161
      25A     -0.597045    26A     -0.591708    27A     -0.580338
      28A     -0.569379    29A     -0.545493    30A     -0.522201
      31A     -0.503641    32A     -0.477587    33A     -0.460708
      34A     -0.381368    35A     -0.296358    36A     -0.276992

  @DF-RHF Final Energy:  -437.67902326959683

   => Energetics <=

    Nuclear Repulsion Energy =            461.0670204178544509
    One-Electron Energy =               -1508.7204985696105268
    Two-Electron Energy =                 609.9744548821594208
    Total Energy =                       -437.6790232695967688

  Dipole Moment: [D]
     X:    -1.6364      Y:    -3.3283      Z:    -2.0373     Total:     4.2315

  Basis Set: (AUG-CC-PVQZ AUX)
    Blend: AUG-CC-PVQZ-RI
	 Reference Energy          =    -437.6790232695968257 [Eh]
	 Singles Energy            =      -0.0000000000000000 [Eh]
	 Same-Spin Energy          =      -0.5035663273398506 [Eh]
	 Opposite-Spin Energy      =      -1.6418048009627342 [Eh]
	 Correlation Energy        =      -2.1453711283025849 [Eh]
	 Total Energy              =    -439.8243943978994253 [Eh]

	 ================> DF-SCS-MP2 Energies <==================
	-----------------------------------------------------------
	 SCS Same-Spin Scale       =       0.3333333333333333 [-]
	 SCS Opposite-Spin Scale   =       1.2000000000000000 [-]
	 SCS Same-Spin Energy      =      -0.1678554424466169 [Eh]
	 SCS Opposite-Spin Energy  =      -1.9701657611552810 [Eh]
	 SCS Correlation Energy    =      -2.1380212036018977 [Eh]
	 SCS Total Energy          =    -439.8170444731987345 [Eh]
	-----------------------------------------------------------

*** Psi4 exiting successfully. Buy a developer a beer!
