                               Psi4 1.4a2.dev224

  ==> Input File <==

--------------------------------------------------------------------------
#Generated by lconvert.py for cbs job

memory 40 GB

molecule  {
0 1
  C        1.9529400    -0.0000180     0.0000200
  H        2.3176520    -0.4716210     0.9075640
  H        2.3177190    -0.5504180    -0.8619910
  H        2.3200280     1.0209220    -0.0454770
  H        0.8674090     0.0015960    -0.0000900
--
0 1
  O       -1.7002291     0.0003781    -0.0001100
  H       -2.2958462     0.7522481     0.0003820
  H       -2.2913841    -0.7550049     0.0003800
units angstrom
no_reorient
symmetry c1
}

set {
scf_type DF
mp2_type DF
e_convergence 7
reference rhf
}

energy('mp2/aug-cc-pv[tq]z', bsse_type='cp')
--------------------------------------------------------------------------

    Molecular point group: c1
  Charge       = 0
  Multiplicity = 1
  Basis Set: AUG-CC-PVTZ
    Blend: AUG-CC-PVTZ
  Basis Set: (AUG-CC-PVTZ AUX)
    Blend: AUG-CC-PVTZ-JKFIT
  @DF-RHF Final Energy:   -76.06038729239154
    Total Energy =                        -76.0603872923915389
  Basis Set: (AUG-CC-PVTZ AUX)
    Blend: AUG-CC-PVTZ-RI
	 Reference Energy          =     -76.0603872923915389 [Eh]
	 Singles Energy            =      -0.0000000000000000 [Eh]
	 Same-Spin Energy          =      -0.0683880167558570 [Eh]
	 Opposite-Spin Energy      =      -0.2153050335280463 [Eh]
	 Correlation Energy        =      -0.2836930502839033 [Eh]
	 Total Energy              =     -76.3440803426754400 [Eh]
	 SCS Total Energy          =     -76.3415493382104842 [Eh]
    Molecular point group: c1
  Basis Set: AUG-CC-PVQZ
    Blend: AUG-CC-PVQZ
  Basis Set: (AUG-CC-PVQZ AUX)
    Blend: AUG-CC-PVQZ-JKFIT
  @DF-RHF Final Energy:   -76.06577166746175
    Total Energy =                        -76.0657716674617461
  Basis Set: (AUG-CC-PVQZ AUX)
  @DF-RHF Final Energy:   -76.06042268447352
    Total Energy =                        -76.0604226844735081
  @DF-RHF Final Energy:   -76.06578877904184
    Total Energy =                        -76.0657887790418386
  @DF-RHF Final Energy:   -40.21367519288741
    Total Energy =                        -40.2136751928874148
  @DF-RHF Final Energy:   -40.21629686109546
    Total Energy =                        -40.2162968610954579
  @DF-RHF Final Energy:   -40.21366223797092
    Total Energy =                        -40.2136622379709152
  @DF-RHF Final Energy:   -40.21629336358647
    Total Energy =                        -40.2162933635864661
  Multiplicity = 1
  @DF-RHF Final Energy:  -116.27394471766297
    Total Energy =                       -116.2739447176629710
	 Singles Energy            =      -0.0000000000000000 [Eh]
	 Same-Spin Energy          =      -0.1082339717207994 [Eh]
	 Opposite-Spin Energy      =      -0.3964314207597173 [Eh]
	 Correlation Energy        =      -0.5046653924805167 [Eh]
	 Total Energy              =    -116.7786101101434895 [Eh]
	 SCS Total Energy          =    -116.7857404131482326 [Eh]
    Molecular point group: c1

    Geometry (in Angstrom), charge = 0, multiplicity = 1:

       Center              X                  Y                   Z               Mass
    ------------   -----------------  -----------------  -----------------  -----------------
         C            1.967593812039    -0.000121873668     0.000041897478    12.000000000000
         H            2.332305812039    -0.471724873668     0.907585897478     1.007825032230
         H            2.332372812039    -0.550521873668    -0.861969102522     1.007825032230
         H            2.334681812039     1.020818126332    -0.045455102522     1.007825032230
         H            0.882062812039     0.001492126332    -0.000068102522     1.007825032230
         O           -1.685575287961     0.000274226332    -0.000088102522    15.994914619570
         H           -2.281192387961     0.752144226332     0.000403897478     1.007825032230
         H           -2.276730287961    -0.755108773668     0.000401897478     1.007825032230

  Charge       = 0
  Multiplicity = 1
  Basis Set: AUG-CC-PVQZ
    Blend: AUG-CC-PVQZ
  Basis Set: (AUG-CC-PVQZ AUX)
    Blend: AUG-CC-PVQZ-JKFIT

    Orbital Energies [Eh]
    ---------------------

    Doubly Occupied:

       1A    -20.568380     2A    -11.186317     3A     -1.355971
       4A     -0.927250     5A     -0.718133     6A     -0.593850
       7A     -0.529656     8A     -0.529620     9A     -0.524234
      10A     -0.513957

  @DF-RHF Final Energy:  -116.28193633402270

   => Energetics <=

    Nuclear Repulsion Energy =             36.7924896399051136
    One-Electron Energy =                -231.2541137790556149
    Two-Electron Energy =                  78.1796878051277986
    Total Energy =                       -116.2819363340227028

  Dipole Moment: [D]
     X:    -2.2606      Y:    -0.0060      Z:     0.0017     Total:     2.2606

  Basis Set: (AUG-CC-PVQZ AUX)
    Blend: AUG-CC-PVQZ-RI
	 Reference Energy          =    -116.2819363340227028 [Eh]
	 Singles Energy            =      -0.0000000000000000 [Eh]
	 Same-Spin Energy          =      -0.1149365216295779 [Eh]
	 Opposite-Spin Energy      =      -0.4435899636565619 [Eh]
	 Correlation Energy        =      -0.5585264852861398 [Eh]
	 Total Energy              =    -116.8404628193088399 [Eh]

	 ================> DF-SCS-MP2 Energies <==================
	-----------------------------------------------------------
	 SCS Same-Spin Scale       =       0.3333333333333333 [-]
	 SCS Opposite-Spin Scale   =       1.2000000000000000 [-]
	 SCS Same-Spin Energy      =      -0.0383121738765260 [Eh]
	 SCS Opposite-Spin Energy  =      -0.5323079563878742 [Eh]
	 SCS Correlation Energy    =      -0.5706201302644002 [Eh]
	 SCS Total Energy          =    -116.8525564642871046 [Eh]
	-----------------------------------------------------------

*** Psi4 exiting successfully. Buy a developer a beer!
