                               Psi4 1.4a2.dev224

  ==> Input File <==

--------------------------------------------------------------------------
#Generated by lconvert.py for cbs job

memory 20 GB

molecule  {
0 1
  C       1.952940   -0.000020    0.000020
  H       2.317650   -0.471620    0.907560
  H       2.317720   -0.550420   -0.861990
  H       2.320030    1.020920   -0.045480
  H       0.867410    0.001600   -0.000090
--
0 1
  O      -4.267870   -0.000840   -0.000130
  H      -4.863480    0.751030    0.000360
  H      -4.859020   -0.756220    0.000360
units angstrom
no_reorient
symmetry c1
}

set {
scf_type DF
mp2_type DF
e_convergence 7
reference rhf
}

energy('mp2/aug-cc-pv[tq]z', bsse_type='cp')
--------------------------------------------------------------------------

    Molecular point group: c1
  Charge       = 0
  Multiplicity = 1
  Basis Set: AUG-CC-PVTZ
    Blend: AUG-CC-PVTZ
  Basis Set: (AUG-CC-PVTZ AUX)
    Blend: AUG-CC-PVTZ-JKFIT
  @DF-RHF Final Energy:   -76.06038769154810
    Total Energy =                        -76.0603876915481010
  Basis Set: (AUG-CC-PVTZ AUX)
    Blend: AUG-CC-PVTZ-RI
	 Reference Energy          =     -76.0603876915481010 [Eh]
	 Singles Energy            =      -0.0000000000000000 [Eh]
	 Same-Spin Energy          =      -0.0683879209895665 [Eh]
	 Opposite-Spin Energy      =      -0.2153047452848338 [Eh]
	 Correlation Energy        =      -0.2836926662744003 [Eh]
	 Total Energy              =     -76.3440803578225058 [Eh]
	 SCS Total Energy          =     -76.3415493595530847 [Eh]
    Molecular point group: c1
  Basis Set: AUG-CC-PVQZ
    Blend: AUG-CC-PVQZ
  Basis Set: (AUG-CC-PVQZ AUX)
    Blend: AUG-CC-PVQZ-JKFIT
  @DF-RHF Final Energy:   -76.06577209121815
    Total Energy =                        -76.0657720912181361
  Basis Set: (AUG-CC-PVQZ AUX)
  @DF-RHF Final Energy:   -76.06038943383474
    Total Energy =                        -76.0603894338347573
  @DF-RHF Final Energy:   -76.06577295651012
    Total Energy =                        -76.0657729565101306
  @DF-RHF Final Energy:   -40.21366324250456
    Total Energy =                        -40.2136632425045590
  @DF-RHF Final Energy:   -40.21629369280832
    Total Energy =                        -40.2162936928083212
  @DF-RHF Final Energy:   -40.21366226475708
    Total Energy =                        -40.2136622647570832
  @DF-RHF Final Energy:   -40.21629339465184
    Total Energy =                        -40.2162933946518422
  Multiplicity = 1
  @DF-RHF Final Energy:  -116.27410627823622
    Total Energy =                       -116.2741062782362178
	 Singles Energy            =      -0.0000000000000000 [Eh]
	 Same-Spin Energy          =      -0.1076270443231840 [Eh]
	 Opposite-Spin Energy      =      -0.3954275801592959 [Eh]
	 Correlation Energy        =      -0.5030546244824800 [Eh]
	 Total Energy              =    -116.7771609027186912 [Eh]
	 SCS Total Energy          =    -116.7844950558684332 [Eh]
    Molecular point group: c1

    Geometry (in Angstrom), charge = 0, multiplicity = 1:

       Center              X                  Y                   Z               Mass
    ------------   -----------------  -----------------  -----------------  -----------------
         C            3.326057825646     0.000521174354     0.000052715742    12.000000000000
         H            3.690767825646    -0.471078825646     0.907592715742     1.007825032230
         H            3.690837825646    -0.549878825646    -0.861957284258     1.007825032230
         H            3.693147825646     1.021461174354    -0.045447284258     1.007825032230
         H            2.240527825646     0.002141174354    -0.000057284258     1.007825032230
         O           -2.894752174354    -0.000298825646    -0.000097284258    15.994914619570
         H           -3.490362174354     0.751571174354     0.000392715742     1.007825032230
         H           -3.485902174354    -0.755678825646     0.000392715742     1.007825032230

  Charge       = 0
  Multiplicity = 1
  Basis Set: AUG-CC-PVQZ
    Blend: AUG-CC-PVQZ
  Basis Set: (AUG-CC-PVQZ AUX)
    Blend: AUG-CC-PVQZ-JKFIT

    Orbital Energies [Eh]
    ---------------------

    Doubly Occupied:

       1A    -20.565778     2A    -11.198625     3A     -1.352825
       4A     -0.938442     5A     -0.715169     6A     -0.586781
       7A     -0.540569     8A     -0.540039     9A     -0.539925
      10A     -0.510889

  @DF-RHF Final Energy:  -116.28212017741859

   => Energetics <=

    Nuclear Repulsion Energy =             31.0236899806174335
    One-Electron Energy =                -219.6335346108505178
    Two-Electron Energy =                  72.3277244528144934
    Total Energy =                       -116.2821201774185909

  Dipole Moment: [D]
     X:    -2.0382      Y:    -0.0058      Z:     0.0016     Total:     2.0382

  Basis Set: (AUG-CC-PVQZ AUX)
    Blend: AUG-CC-PVQZ-RI
	 Reference Energy          =    -116.2821201774185909 [Eh]
	 Singles Energy            =      -0.0000000000000000 [Eh]
	 Same-Spin Energy          =      -0.1143403659496189 [Eh]
	 Opposite-Spin Energy      =      -0.4429282853799285 [Eh]
	 Correlation Energy        =      -0.5572686513295474 [Eh]
	 Total Energy              =    -116.8393888287481417 [Eh]

	 ================> DF-SCS-MP2 Energies <==================
	-----------------------------------------------------------
	 SCS Same-Spin Scale       =       0.3333333333333333 [-]
	 SCS Opposite-Spin Scale   =       1.2000000000000000 [-]
	 SCS Same-Spin Energy      =      -0.0381134553165396 [Eh]
	 SCS Opposite-Spin Energy  =      -0.5315139424559141 [Eh]
	 SCS Correlation Energy    =      -0.5696273977724537 [Eh]
	 SCS Total Energy          =    -116.8517475751910411 [Eh]
	-----------------------------------------------------------

*** Psi4 exiting successfully. Buy a developer a beer!
