                               Psi4 1.4a2.dev224

  ==> Input File <==

--------------------------------------------------------------------------
#Generated by lconvert.py for cbs job

memory 40 GB

molecule  {
0 1
  C        1.9529400    -0.0000180     0.0000200
  H        2.3176520    -0.4716210     0.9075640
  H        2.3177190    -0.5504180    -0.8619910
  H        2.3200280     1.0209220    -0.0454770
  H        0.8674090     0.0015960    -0.0000900
--
0 1
  O       -1.9705069     0.0002499    -0.0001120
  H       -2.5661238     0.7521199     0.0003799
  H       -2.5616619    -0.7551331     0.0003779
units angstrom
no_reorient
symmetry c1
}

set {
scf_type DF
mp2_type DF
e_convergence 7
reference rhf
}

energy('mp2/aug-cc-pv[tq]z', bsse_type='cp')
--------------------------------------------------------------------------

    Molecular point group: c1
  Charge       = 0
  Multiplicity = 1
  Basis Set: AUG-CC-PVTZ
    Blend: AUG-CC-PVTZ
  Basis Set: (AUG-CC-PVTZ AUX)
    Blend: AUG-CC-PVTZ-JKFIT
  @DF-RHF Final Energy:   -76.06038729784716
    Total Energy =                        -76.0603872978471429
  Basis Set: (AUG-CC-PVTZ AUX)
    Blend: AUG-CC-PVTZ-RI
	 Reference Energy          =     -76.0603872978471571 [Eh]
	 Singles Energy            =      -0.0000000000000000 [Eh]
	 Same-Spin Energy          =      -0.0683880154707938 [Eh]
	 Opposite-Spin Energy      =      -0.2153050296849340 [Eh]
	 Correlation Energy        =      -0.2836930451557278 [Eh]
	 Total Energy              =     -76.3440803430028865 [Eh]
	 SCS Total Energy          =     -76.3415493386260096 [Eh]
    Molecular point group: c1
  Basis Set: AUG-CC-PVQZ
    Blend: AUG-CC-PVQZ
  Basis Set: (AUG-CC-PVQZ AUX)
    Blend: AUG-CC-PVQZ-JKFIT
  @DF-RHF Final Energy:   -76.06577167320309
    Total Energy =                        -76.0657716732030877
  Basis Set: (AUG-CC-PVQZ AUX)
  @DF-RHF Final Energy:   -76.06040942497083
    Total Energy =                        -76.0604094249708140
  @DF-RHF Final Energy:   -76.06578396918644
    Total Energy =                        -76.0657839691864410
  @DF-RHF Final Energy:   -40.21367176590867
    Total Energy =                        -40.2136717659086713
  @DF-RHF Final Energy:   -40.21629587813695
    Total Energy =                        -40.2162958781369468
  @DF-RHF Final Energy:   -40.21366223797193
    Total Energy =                        -40.2136622379719313
  @DF-RHF Final Energy:   -40.21629336357153
    Total Energy =                        -40.2162933635715234
  Multiplicity = 1
  @DF-RHF Final Energy:  -116.27430104310118
    Total Energy =                       -116.2743010431011754
	 Singles Energy            =      -0.0000000000000000 [Eh]
	 Same-Spin Energy          =      -0.1080045984305327 [Eh]
	 Opposite-Spin Energy      =      -0.3960530453645288 [Eh]
	 Correlation Energy        =      -0.5040576437950615 [Eh]
	 Total Energy              =    -116.7783586868962402 [Eh]
	 SCS Total Energy          =    -116.7855662303487918 [Eh]
    Molecular point group: c1

    Geometry (in Angstrom), charge = 0, multiplicity = 1:

       Center              X                  Y                   Z               Mass
    ------------   -----------------  -----------------  -----------------  -----------------
         C            2.110589961772    -0.000054046761     0.000042961541    12.000000000000
         H            2.475301961772    -0.471657046761     0.907586961541     1.007825032230
         H            2.475368961772    -0.550454046761    -0.861968038459     1.007825032230
         H            2.477677961772     1.020885953239    -0.045454038459     1.007825032230
         H            1.025058961772     0.001559953239    -0.000067038459     1.007825032230
         O           -1.812856938228     0.000213853239    -0.000089038459    15.994914619570
         H           -2.408473838228     0.752083853239     0.000402861541     1.007825032230
         H           -2.404011938228    -0.755169146761     0.000400861541     1.007825032230

  Charge       = 0
  Multiplicity = 1
  Basis Set: AUG-CC-PVQZ
    Blend: AUG-CC-PVQZ
  Basis Set: (AUG-CC-PVQZ AUX)
    Blend: AUG-CC-PVQZ-JKFIT

    Orbital Energies [Eh]
    ---------------------

    Doubly Occupied:

       1A    -20.567648     2A    -11.189262     3A     -1.354932
       4A     -0.929696     5A     -0.717188     6A     -0.590714
       7A     -0.531931     8A     -0.531893     9A     -0.528915
      10A     -0.512991

  @DF-RHF Final Energy:  -116.28229939771676

   => Energetics <=

    Nuclear Repulsion Energy =             35.8296448054843353
    One-Electron Energy =                -229.3135472128980439
    Two-Electron Energy =                  77.2016030096969672
    Total Energy =                       -116.2822993977167556

  Dipole Moment: [D]
     X:    -2.1974      Y:    -0.0060      Z:     0.0017     Total:     2.1974

  Basis Set: (AUG-CC-PVQZ AUX)
    Blend: AUG-CC-PVQZ-RI
	 Reference Energy          =    -116.2822993977167556 [Eh]
	 Singles Energy            =      -0.0000000000000000 [Eh]
	 Same-Spin Energy          =      -0.1147086034006176 [Eh]
	 Opposite-Spin Energy      =      -0.4433373205858236 [Eh]
	 Correlation Energy        =      -0.5580459239864413 [Eh]
	 Total Energy              =    -116.8403453217031966 [Eh]

	 ================> DF-SCS-MP2 Energies <==================
	-----------------------------------------------------------
	 SCS Same-Spin Scale       =       0.3333333333333333 [-]
	 SCS Opposite-Spin Scale   =       1.2000000000000000 [-]
	 SCS Same-Spin Energy      =      -0.0382362011335392 [Eh]
	 SCS Opposite-Spin Energy  =      -0.5320047847029884 [Eh]
	 SCS Correlation Energy    =      -0.5702409858365276 [Eh]
	 SCS Total Energy          =    -116.8525403835532899 [Eh]
	-----------------------------------------------------------

*** Psi4 exiting successfully. Buy a developer a beer!
