                               Psi4 1.4a2.dev224

  ==> Input File <==

--------------------------------------------------------------------------
#Generated by lconvert.py for cbs job

memory 40 GB

molecule  {
0 1
  C        1.9529400    -0.0000180     0.0000200
  H        2.3176520    -0.4716210     0.9075640
  H        2.3177190    -0.5504180    -0.8619910
  H        2.3200280     1.0209220    -0.0454770
  H        0.8674090     0.0015960    -0.0000900
--
0 1
  O       -1.0245349     0.0006986    -0.0001047
  H       -1.6201519     0.7525686     0.0003873
  H       -1.6156899    -0.7546844     0.0003853
units angstrom
no_reorient
symmetry c1
}

set {
scf_type DF
mp2_type DF
e_convergence 7
reference rhf
}

energy('mp2/aug-cc-pv[tq]z', bsse_type='cp')
--------------------------------------------------------------------------

    Molecular point group: c1
  Charge       = 0
  Multiplicity = 1
  Basis Set: AUG-CC-PVTZ
    Blend: AUG-CC-PVTZ
  Basis Set: (AUG-CC-PVTZ AUX)
    Blend: AUG-CC-PVTZ-JKFIT
  @DF-RHF Final Energy:   -76.06038729512014
    Total Energy =                        -76.0603872951201367
  Basis Set: (AUG-CC-PVTZ AUX)
    Blend: AUG-CC-PVTZ-RI
	 Reference Energy          =     -76.0603872951201367 [Eh]
	 Singles Energy            =      -0.0000000000000000 [Eh]
	 Same-Spin Energy          =      -0.0683880161138688 [Eh]
	 Opposite-Spin Energy      =      -0.2153050316080779 [Eh]
	 Correlation Energy        =      -0.2836930477219468 [Eh]
	 Total Energy              =     -76.3440803428420764 [Eh]
	 SCS Total Energy          =     -76.3415493384211175 [Eh]
    Molecular point group: c1
  Basis Set: AUG-CC-PVQZ
    Blend: AUG-CC-PVQZ
  Basis Set: (AUG-CC-PVQZ AUX)
    Blend: AUG-CC-PVQZ-JKFIT
  @DF-RHF Final Energy:   -76.06577167031026
    Total Energy =                        -76.0657716703102551
  Basis Set: (AUG-CC-PVQZ AUX)
  @DF-RHF Final Energy:   -76.06044896181038
    Total Energy =                        -76.0604489618103798
  @DF-RHF Final Energy:   -76.06580387259589
    Total Energy =                        -76.0658038725958932
  @DF-RHF Final Energy:   -40.21368258154232
    Total Energy =                        -40.2136825815423151
  @DF-RHF Final Energy:   -40.21630072832016
    Total Energy =                        -40.2163007283201495
  @DF-RHF Final Energy:   -40.21366223798663
    Total Energy =                        -40.2136622379866253
  @DF-RHF Final Energy:   -40.21629336356607
    Total Energy =                        -40.2162933635660735
  @DF-RHF Final Energy:  -116.26572093129003
    Total Energy =                       -116.2657209312900335
  @DF-RHF Final Energy:  -116.27373919699197
    Total Energy =                       -116.2737391969919685
*** Psi4 exiting successfully. Buy a developer a beer!
                               Psi4 1.4a2.dev224
  @DF-RHF Final Energy:   -76.06038729511533
    Total Energy =                        -76.0603872951153335
  @DF-RHF Final Energy:   -76.06577167033724
    Total Energy =                        -76.0657716703372415
  @DF-RHF Final Energy:   -76.06043612546507
    Total Energy =                        -76.0604361254650740
  @DF-RHF Final Energy:   -76.06579684301578
    Total Energy =                        -76.0657968430157752
  @DF-RHF Final Energy:   -40.21367922187646
    Total Energy =                        -40.2136792218764612
  @DF-RHF Final Energy:   -40.21629890354559
    Total Energy =                        -40.2162989035455922
  @DF-RHF Final Energy:   -40.21366223797254
    Total Energy =                        -40.2136622379725353
  @DF-RHF Final Energy:   -40.21629336357609
    Total Energy =                        -40.2162933635760922
  @DF-RHF Final Energy:  -116.27140462463412
    Total Energy =                       -116.2714046246341155
  @DF-RHF Final Energy:  -116.27940962026412
    Total Energy =                       -116.2794096202641185
*** Psi4 exiting successfully. Buy a developer a beer!
                               Psi4 1.4a2.dev224
                               Psi4 1.4a2.dev224
                               Psi4 1.4a2.dev224
                               Psi4 1.4a2.dev224
  @DF-RHF Final Energy:   -76.06038729784716
    Total Energy =                        -76.0603872978471429
  @DF-RHF Final Energy:   -76.06577167320309
    Total Energy =                        -76.0657716732030877
  @DF-RHF Final Energy:   -76.06040942497083
    Total Energy =                        -76.0604094249708140
  @DF-RHF Final Energy:   -76.06578396918644
    Total Energy =                        -76.0657839691864410
  @DF-RHF Final Energy:   -40.21367176590867
    Total Energy =                        -40.2136717659086713
  @DF-RHF Final Energy:   -40.21629587813695
    Total Energy =                        -40.2162958781369468
  @DF-RHF Final Energy:   -40.21366223797193
    Total Energy =                        -40.2136622379719313
  @DF-RHF Final Energy:   -40.21629336357153
    Total Energy =                        -40.2162933635715234
  @DF-RHF Final Energy:  -116.27430104310118
    Total Energy =                       -116.2743010431011754
  @DF-RHF Final Energy:  -116.28229939771676
    Total Energy =                       -116.2822993977167556
*** Psi4 exiting successfully. Buy a developer a beer!
                               Psi4 1.4a2.dev224
  @DF-RHF Final Energy:   -76.06038729510860
    Total Energy =                        -76.0603872951085975
  @DF-RHF Final Energy:   -76.06577167032854
    Total Energy =                        -76.0657716703285587
  @DF-RHF Final Energy:   -76.06040328943834
    Total Energy =                        -76.0604032894383266
  @DF-RHF Final Energy:   -76.06578234626710
    Total Energy =                        -76.0657823462670990
  @DF-RHF Final Energy:   -40.21367015106964
    Total Energy =                        -40.2136701510696355
  @DF-RHF Final Energy:   -40.21629550709148
    Total Energy =                        -40.2162955070914805
  @DF-RHF Final Energy:   -40.21366223797334
    Total Energy =                        -40.2136622379733382
  @DF-RHF Final Energy:   -40.21629336358667
    Total Energy =                        -40.2162933635866722
  Multiplicity = 1
  @DF-RHF Final Energy:  -116.27434734643978
    Total Energy =                       -116.2743473464397823
	 Singles Energy            =      -0.0000000000000000 [Eh]
	 Same-Spin Energy          =      -0.1079266509307706 [Eh]
	 Opposite-Spin Energy      =      -0.3959192238618816 [Eh]
	 Correlation Energy        =      -0.5038458747926522 [Eh]
	 Total Energy              =    -116.7781932212324278 [Eh]
	 SCS Total Energy          =    -116.7854259653842917 [Eh]
    Molecular point group: c1

    Geometry (in Angstrom), charge = 0, multiplicity = 1:

       Center              X                  Y                   Z               Mass
    ------------   -----------------  -----------------  -----------------  -----------------
         C            2.182087989653    -0.000020133308     0.000043537598    12.000000000000
         H            2.546799989653    -0.471623133308     0.907587537598     1.007825032230
         H            2.546866989653    -0.550420133308    -0.861967462402     1.007825032230
         H            2.549175989653     1.020919866692    -0.045453462402     1.007825032230
         H            1.096556989653     0.001593866692    -0.000066462402     1.007825032230
         O           -1.876497710347     0.000183666692    -0.000089562402    15.994914619570
         H           -2.472114710347     0.752053666692     0.000402437598     1.007825032230
         H           -2.467652710347    -0.755199333308     0.000400437598     1.007825032230

  Charge       = 0
  Multiplicity = 1
  Basis Set: AUG-CC-PVQZ
    Blend: AUG-CC-PVQZ
  Basis Set: (AUG-CC-PVQZ AUX)
    Blend: AUG-CC-PVQZ-JKFIT

    Orbital Energies [Eh]
    ---------------------

    Doubly Occupied:

       1A    -20.567365     2A    -11.190417     3A     -1.354567
       4A     -0.930705     5A     -0.716849     6A     -0.589774
       7A     -0.532864     8A     -0.532818     9A     -0.530582
      10A     -0.512640

  @DF-RHF Final Energy:  -116.28235050990547

   => Energetics <=

    Nuclear Repulsion Energy =             35.3966898618638055
    One-Electron Energy =                -228.4409187469488813
    Two-Electron Energy =                  76.7618783751796201
    Total Energy =                       -116.2823505099054699

  Dipole Moment: [D]
     X:    -2.1737      Y:    -0.0060      Z:     0.0017     Total:     2.1737

  Basis Set: (AUG-CC-PVQZ AUX)
    Blend: AUG-CC-PVQZ-RI
	 Reference Energy          =    -116.2823505099054699 [Eh]
	 Singles Energy            =      -0.0000000000000000 [Eh]
	 Same-Spin Energy          =      -0.1146315595532071 [Eh]
	 Opposite-Spin Energy      =      -0.4432519177153567 [Eh]
	 Correlation Energy        =      -0.5578834772685638 [Eh]
	 Total Energy              =    -116.8402339871740310 [Eh]

	 ================> DF-SCS-MP2 Energies <==================
	-----------------------------------------------------------
	 SCS Same-Spin Scale       =       0.3333333333333333 [-]
	 SCS Opposite-Spin Scale   =       1.2000000000000000 [-]
	 SCS Same-Spin Energy      =      -0.0382105198510690 [Eh]
	 SCS Opposite-Spin Energy  =      -0.5319023012584280 [Eh]
	 SCS Correlation Energy    =      -0.5701128211094970 [Eh]
	 SCS Total Energy          =    -116.8524633310149738 [Eh]
	-----------------------------------------------------------

*** Psi4 exiting successfully. Buy a developer a beer!
