                               Psi4 1.4a2.dev224

  ==> Input File <==

--------------------------------------------------------------------------
#Generated by lconvert.py for cbs job

memory 40 GB

molecule  {
0 1
  C        1.9529400    -0.0000180     0.0000200
  H        2.3176520    -0.4716210     0.9075640
  H        2.3177190    -0.5504180    -0.8619910
  H        2.3200280     1.0209220    -0.0454770
  H        0.8674090     0.0015960    -0.0000900
--
0 1
  O       -1.5650903     0.0004422    -0.0001089
  H       -2.1607073     0.7523122     0.0003831
  H       -2.1562453    -0.7549408     0.0003811
units angstrom
no_reorient
symmetry c1
}

set {
scf_type DF
mp2_type DF
e_convergence 7
reference rhf
}

energy('mp2/aug-cc-pv[tq]z', bsse_type='cp')
--------------------------------------------------------------------------

    Molecular point group: c1
  Charge       = 0
  Multiplicity = 1
  Basis Set: AUG-CC-PVTZ
    Blend: AUG-CC-PVTZ
  Basis Set: (AUG-CC-PVTZ AUX)
    Blend: AUG-CC-PVTZ-JKFIT
  @DF-RHF Final Energy:   -76.06038729511270
    Total Energy =                        -76.0603872951126903
  Basis Set: (AUG-CC-PVTZ AUX)
    Blend: AUG-CC-PVTZ-RI
	 Reference Energy          =     -76.0603872951127045 [Eh]
	 Singles Energy            =      -0.0000000000000000 [Eh]
	 Same-Spin Energy          =      -0.0683880161138551 [Eh]
	 Opposite-Spin Energy      =      -0.2153050316080942 [Eh]
	 Correlation Energy        =      -0.2836930477219494 [Eh]
	 Total Energy              =     -76.3440803428346584 [Eh]
	 SCS Total Energy          =     -76.3415493384136994 [Eh]
    Molecular point group: c1
  Basis Set: AUG-CC-PVQZ
    Blend: AUG-CC-PVQZ
  Basis Set: (AUG-CC-PVQZ AUX)
    Blend: AUG-CC-PVQZ-JKFIT
  @DF-RHF Final Energy:   -76.06577167032839
    Total Energy =                        -76.0657716703284024
  Basis Set: (AUG-CC-PVQZ AUX)
  @DF-RHF Final Energy:   -76.06042853948283
    Total Energy =                        -76.0604285394828423
  @DF-RHF Final Energy:   -76.06579149884215
    Total Energy =                        -76.0657914988421453
  @DF-RHF Final Energy:   -40.21367666847274
    Total Energy =                        -40.2136766684727434
  @DF-RHF Final Energy:   -40.21629746632211
    Total Energy =                        -40.2162974663221107
  @DF-RHF Final Energy:   -40.21366223797508
    Total Energy =                        -40.2136622379750790
  @DF-RHF Final Energy:   -40.21629336357709
    Total Energy =                        -40.2162933635770798
  Multiplicity = 1
  @DF-RHF Final Energy:  -116.27350111091052
    Total Energy =                       -116.2735011109105159
	 Singles Energy            =      -0.0000000000000000 [Eh]
	 Same-Spin Energy          =      -0.1084008488150030 [Eh]
	 Opposite-Spin Energy      =      -0.3966786100542947 [Eh]
	 Correlation Energy        =      -0.5050794588692977 [Eh]
	 Total Energy              =    -116.7785805697798196 [Eh]
	 SCS Total Energy          =    -116.7856490592473335 [Eh]
    Molecular point group: c1

    Geometry (in Angstrom), charge = 0, multiplicity = 1:

       Center              X                  Y                   Z               Mass
    ------------   -----------------  -----------------  -----------------  -----------------
         C            1.896095784158    -0.000155787121     0.000041315500    12.000000000000
         H            2.260807784158    -0.471758787121     0.907585315500     1.007825032230
         H            2.260874784158    -0.550555787121    -0.861969684500     1.007825032230
         H            2.263183784158     1.020784212879    -0.045455684500     1.007825032230
         H            0.810564784158     0.001458212879    -0.000068684500     1.007825032230
         O           -1.621934515842     0.000304412879    -0.000087584500    15.994914619570
         H           -2.217551515842     0.752174412879     0.000404415500     1.007825032230
         H           -2.213089515842    -0.755078587121     0.000402415500     1.007825032230

  Charge       = 0
  Multiplicity = 1
  Basis Set: AUG-CC-PVQZ
    Blend: AUG-CC-PVQZ
  Basis Set: (AUG-CC-PVQZ AUX)
    Blend: AUG-CC-PVQZ-JKFIT

    Orbital Energies [Eh]
    ---------------------

    Doubly Occupied:

       1A    -20.568858     2A    -11.184401     3A     -1.356727
       4A     -0.925756     5A     -0.718803     6A     -0.596412
       7A     -0.528262     8A     -0.528202     9A     -0.520881
      10A     -0.514624

  @DF-RHF Final Energy:  -116.28149289640585

   => Energetics <=

    Nuclear Repulsion Energy =             37.3301552095390505
    One-Electron Energy =                -232.3374437678552340
    Two-Electron Energy =                  78.7257956619103396
    Total Energy =                       -116.2814928964058510

  Dipole Moment: [D]
     X:    -2.3034      Y:    -0.0061      Z:     0.0017     Total:     2.3034

  Basis Set: (AUG-CC-PVQZ AUX)
    Blend: AUG-CC-PVQZ-RI
	 Reference Energy          =    -116.2814928964058510 [Eh]
	 Singles Energy            =      -0.0000000000000000 [Eh]
	 Same-Spin Energy          =      -0.1151030981507570 [Eh]
	 Opposite-Spin Energy      =      -0.4437681393658927 [Eh]
	 Correlation Energy        =      -0.5588712375166497 [Eh]
	 Total Energy              =    -116.8403641339225061 [Eh]

	 ================> DF-SCS-MP2 Energies <==================
	-----------------------------------------------------------
	 SCS Same-Spin Scale       =       0.3333333333333333 [-]
	 SCS Opposite-Spin Scale   =       1.2000000000000000 [-]
	 SCS Same-Spin Energy      =      -0.0383676993835857 [Eh]
	 SCS Opposite-Spin Energy  =      -0.5325217672390712 [Eh]
	 SCS Correlation Energy    =      -0.5708894666226568 [Eh]
	 SCS Total Energy          =    -116.8523823630285108 [Eh]
	-----------------------------------------------------------

*** Psi4 exiting successfully. Buy a developer a beer!
