                               Psi4 1.4a2.dev224

  ==> Input File <==

--------------------------------------------------------------------------
#Generated by lconvert.py for cbs job

memory 40 GB

molecule  {
0 1
  C        1.9529400    -0.0000180     0.0000200
  H        2.3176520    -0.4716210     0.9075640
  H        2.3177190    -0.5504180    -0.8619910
  H        2.3200280     1.0209220    -0.0454770
  H        0.8674090     0.0015960    -0.0000900
--
0 1
  O       -1.2948126     0.0005704    -0.0001068
  H       -1.8904296     0.7524404     0.0003852
  H       -1.8859676    -0.7548126     0.0003832
units angstrom
no_reorient
symmetry c1
}

set {
scf_type DF
mp2_type DF
e_convergence 7
reference rhf
}

energy('mp2/aug-cc-pv[tq]z', bsse_type='cp')
--------------------------------------------------------------------------

    Molecular point group: c1
  Charge       = 0
  Multiplicity = 1
  Basis Set: AUG-CC-PVTZ
    Blend: AUG-CC-PVTZ
  Basis Set: (AUG-CC-PVTZ AUX)
    Blend: AUG-CC-PVTZ-JKFIT
  @DF-RHF Final Energy:   -76.06038729511533
    Total Energy =                        -76.0603872951153335
  Basis Set: (AUG-CC-PVTZ AUX)
    Blend: AUG-CC-PVTZ-RI
	 Reference Energy          =     -76.0603872951153335 [Eh]
	 Singles Energy            =      -0.0000000000000000 [Eh]
	 Same-Spin Energy          =      -0.0683880161138551 [Eh]
	 Opposite-Spin Energy      =      -0.2153050316081332 [Eh]
	 Correlation Energy        =      -0.2836930477219882 [Eh]
	 Total Energy              =     -76.3440803428373158 [Eh]
	 SCS Total Energy          =     -76.3415493384163852 [Eh]
    Molecular point group: c1
  Basis Set: AUG-CC-PVQZ
    Blend: AUG-CC-PVQZ
  Basis Set: (AUG-CC-PVQZ AUX)
    Blend: AUG-CC-PVQZ-JKFIT
  @DF-RHF Final Energy:   -76.06577167033724
    Total Energy =                        -76.0657716703372415
  Basis Set: (AUG-CC-PVQZ AUX)
  @DF-RHF Final Energy:   -76.06043612546507
    Total Energy =                        -76.0604361254650740
  @DF-RHF Final Energy:   -76.06579684301578
    Total Energy =                        -76.0657968430157752
  @DF-RHF Final Energy:   -40.21367922187646
    Total Energy =                        -40.2136792218764612
  @DF-RHF Final Energy:   -40.21629890354559
    Total Energy =                        -40.2162989035455922
  @DF-RHF Final Energy:   -40.21366223797254
    Total Energy =                        -40.2136622379725353
  @DF-RHF Final Energy:   -40.21629336357609
    Total Energy =                        -40.2162933635760922
  Multiplicity = 1
  @DF-RHF Final Energy:  -116.27140462463412
    Total Energy =                       -116.2714046246341155
	 Singles Energy            =      -0.0000000000000000 [Eh]
	 Same-Spin Energy          =      -0.1088975723212673 [Eh]
	 Opposite-Spin Energy      =      -0.3972932381571051 [Eh]
	 Correlation Energy        =      -0.5061908104783723 [Eh]
	 Total Energy              =    -116.7775954351124881 [Eh]
	 SCS Total Energy          =    -116.7844557011963929 [Eh]
    Molecular point group: c1

    Geometry (in Angstrom), charge = 0, multiplicity = 1:

       Center              X                  Y                   Z               Mass
    ------------   -----------------  -----------------  -----------------  -----------------
         C            1.753099681411    -0.000223614028     0.000040204451    12.000000000000
         H            2.117811681411    -0.471826614028     0.907584204451     1.007825032230
         H            2.117878681411    -0.550623614028    -0.861970795549     1.007825032230
         H            2.120187681411     1.020716385972    -0.045456795549     1.007825032230
         H            0.667568681411     0.001390385972    -0.000069795549     1.007825032230
         O           -1.494652918589     0.000364785972    -0.000086595549    15.994914619570
         H           -2.090269918589     0.752234785972     0.000405404451     1.007825032230
         H           -2.085807918589    -0.755018214028     0.000403404451     1.007825032230

  Charge       = 0
  Multiplicity = 1
  Basis Set: AUG-CC-PVQZ
    Blend: AUG-CC-PVQZ
  Basis Set: (AUG-CC-PVQZ AUX)
    Blend: AUG-CC-PVQZ-JKFIT

    Orbital Energies [Eh]
    ---------------------

    Doubly Occupied:

       1A    -20.570175     2A    -11.179174     3A     -1.359086
       4A     -0.922050     5A     -0.720827     6A     -0.604933
       7A     -0.524915     8A     -0.524545     9A     -0.516425
      10A     -0.510861

  @DF-RHF Final Energy:  -116.27940962026412

   => Energetics <=

    Nuclear Repulsion Energy =             38.5427634552450229
    One-Electron Energy =                -234.7783627736690732
    Two-Electron Energy =                  79.9561896981599318
    Total Energy =                       -116.2794096202641185

  Dipole Moment: [D]
     X:    -2.4239      Y:    -0.0061      Z:     0.0017     Total:     2.4239

  Basis Set: (AUG-CC-PVQZ AUX)
    Blend: AUG-CC-PVQZ-RI
	 Reference Energy          =    -116.2794096202641185 [Eh]
	 Singles Energy            =      -0.0000000000000000 [Eh]
	 Same-Spin Energy          =      -0.1156024909195934 [Eh]
	 Opposite-Spin Energy      =      -0.4442736600435901 [Eh]
	 Correlation Energy        =      -0.5598761509631835 [Eh]
	 Total Energy              =    -116.8392857712272956 [Eh]

	 ================> DF-SCS-MP2 Energies <==================
	-----------------------------------------------------------
	 SCS Same-Spin Scale       =       0.3333333333333333 [-]
	 SCS Opposite-Spin Scale   =       1.2000000000000000 [-]
	 SCS Same-Spin Energy      =      -0.0385341636398645 [Eh]
	 SCS Opposite-Spin Energy  =      -0.5331283920523081 [Eh]
	 SCS Correlation Energy    =      -0.5716625556921726 [Eh]
	 SCS Total Energy          =    -116.8510721759562898 [Eh]
	-----------------------------------------------------------

*** Psi4 exiting successfully. Buy a developer a beer!
