                               Psi4 1.4a2.dev224

  ==> Input File <==

--------------------------------------------------------------------------
#Generated by lconvert.py for cbs job

memory 20 GB

molecule  {
0 1
  C       1.952940   -0.000020    0.000020
  H       2.317650   -0.471620    0.907560
  H       2.317720   -0.550420   -0.861990
  H       2.320030    1.020920   -0.045480
  H       0.867410    0.001600   -0.000090
--
0 1
  O      -2.646200   -0.000070   -0.000120
  H      -3.241820    0.751800    0.000380
  H      -3.237360   -0.755450    0.000370
units angstrom
no_reorient
symmetry c1
}

set {
scf_type DF
mp2_type DF
e_convergence 7
reference rhf
}

energy('mp2/aug-cc-pv[tq]z', bsse_type='cp')
--------------------------------------------------------------------------

    Molecular point group: c1
  Charge       = 0
  Multiplicity = 1
  Basis Set: AUG-CC-PVTZ
    Blend: AUG-CC-PVTZ
  Basis Set: (AUG-CC-PVTZ AUX)
    Blend: AUG-CC-PVTZ-JKFIT
  @DF-RHF Final Energy:   -76.06038714943958
    Total Energy =                        -76.0603871494395776
  Basis Set: (AUG-CC-PVTZ AUX)
    Blend: AUG-CC-PVTZ-RI
	 Reference Energy          =     -76.0603871494395776 [Eh]
	 Singles Energy            =      -0.0000000000000000 [Eh]
	 Same-Spin Energy          =      -0.0683880490805516 [Eh]
	 Opposite-Spin Energy      =      -0.2153051283227225 [Eh]
	 Correlation Energy        =      -0.2836931774032740 [Eh]
	 Total Energy              =     -76.3440803268428567 [Eh]
	 SCS Total Energy          =     -76.3415493197870347 [Eh]
    Molecular point group: c1
  Basis Set: AUG-CC-PVQZ
    Blend: AUG-CC-PVQZ
  Basis Set: (AUG-CC-PVQZ AUX)
    Blend: AUG-CC-PVQZ-JKFIT
  @DF-RHF Final Energy:   -76.06577151866864
    Total Energy =                        -76.0657715186686403
  Basis Set: (AUG-CC-PVQZ AUX)
  @DF-RHF Final Energy:   -76.06039343714470
    Total Energy =                        -76.0603934371446968
  @DF-RHF Final Energy:   -76.06577643347879
    Total Energy =                        -76.0657764334787885
  @DF-RHF Final Energy:   -40.21366640726546
    Total Energy =                        -40.2136664072654568
  @DF-RHF Final Energy:   -40.21629466465252
    Total Energy =                        -40.2162946646525157
  @DF-RHF Final Energy:   -40.21366226474815
    Total Energy =                        -40.2136622647481516
  @DF-RHF Final Energy:   -40.21629339463687
    Total Energy =                        -40.2162933946368710
  Multiplicity = 1
  @DF-RHF Final Energy:  -116.27429492813904
    Total Energy =                       -116.2742949281390423
	 Singles Energy            =      -0.0000000000000000 [Eh]
	 Same-Spin Energy          =      -0.1077486162925801 [Eh]
	 Opposite-Spin Energy      =      -0.3956342312892790 [Eh]
	 Correlation Energy        =      -0.5033828475818590 [Eh]
	 Total Energy              =    -116.7776777757209032 [Eh]
	 SCS Total Energy          =    -116.7849722111170365 [Eh]
    Molecular point group: c1

    Geometry (in Angstrom), charge = 0, multiplicity = 1:

       Center              X                  Y                   Z               Mass
    ------------   -----------------  -----------------  -----------------  -----------------
         C            2.468079790802     0.000113789656     0.000047128977    12.000000000000
         H            2.832789790802    -0.471486210344     0.907587128977     1.007825032230
         H            2.832859790802    -0.550286210344    -0.861962871023     1.007825032230
         H            2.835169790802     1.021053789656    -0.045452871023     1.007825032230
         H            1.382549790802     0.001733789656    -0.000062871023     1.007825032230
         O           -2.131060209198     0.000063789656    -0.000092871023    15.994914619570
         H           -2.726680209198     0.751933789656     0.000407128977     1.007825032230
         H           -2.722220209198    -0.755316210344     0.000397128977     1.007825032230

  Charge       = 0
  Multiplicity = 1
  Basis Set: AUG-CC-PVQZ
    Blend: AUG-CC-PVQZ
  Basis Set: (AUG-CC-PVQZ AUX)
    Blend: AUG-CC-PVQZ-JKFIT

    Orbital Energies [Eh]
    ---------------------

    Doubly Occupied:

       1A    -20.566586     2A    -11.193770     3A     -1.353661
       4A     -0.933771     5A     -0.715985     6A     -0.587923
       7A     -0.535693     8A     -0.535616     9A     -0.534945
      10A     -0.511743

  @DF-RHF Final Energy:  -116.28230447195996

   => Energetics <=

    Nuclear Repulsion Energy =             33.9198382694902563
    One-Electron Energy =                -225.4648986721920494
    Two-Electron Energy =                  75.2627559307418181
    Total Energy =                       -116.2823044719599608

  Dipole Moment: [D]
     X:    -2.1105      Y:    -0.0059      Z:     0.0017     Total:     2.1105

  Basis Set: (AUG-CC-PVQZ AUX)
    Blend: AUG-CC-PVQZ-RI
	 Reference Energy          =    -116.2823044719599608 [Eh]
	 Singles Energy            =      -0.0000000000000000 [Eh]
	 Same-Spin Energy          =      -0.1144578406543844 [Eh]
	 Opposite-Spin Energy      =      -0.4430612156139064 [Eh]
	 Correlation Energy        =      -0.5575190562682908 [Eh]
	 Total Energy              =    -116.8398235282282513 [Eh]

	 ================> DF-SCS-MP2 Energies <==================
	-----------------------------------------------------------
	 SCS Same-Spin Scale       =       0.3333333333333333 [-]
	 SCS Opposite-Spin Scale   =       1.2000000000000000 [-]
	 SCS Same-Spin Energy      =      -0.0381526135514615 [Eh]
	 SCS Opposite-Spin Energy  =      -0.5316734587366877 [Eh]
	 SCS Correlation Energy    =      -0.5698260722881492 [Eh]
	 SCS Total Energy          =    -116.8521305442481122 [Eh]
	-----------------------------------------------------------

*** Psi4 exiting successfully. Buy a developer a beer!
