                               Psi4 1.4a2.dev224

  ==> Input File <==

--------------------------------------------------------------------------
#Generated by lconvert.py for cbs job

memory 20 GB

molecule  {
0 1
  C       1.952940   -0.000020    0.000020
  H       2.317650   -0.471620    0.907560
  H       2.317720   -0.550420   -0.861990
  H       2.320030    1.020920   -0.045480
  H       0.867410    0.001600   -0.000090
--
0 1
  O      -3.457030   -0.000460   -0.000120
  H      -4.052650    0.751420    0.000370
  H      -4.048190   -0.755840    0.000370
units angstrom
no_reorient
symmetry c1
}

set {
scf_type DF
mp2_type DF
e_convergence 7
reference rhf
}

energy('mp2/aug-cc-pv[tq]z', bsse_type='cp')
--------------------------------------------------------------------------

    Molecular point group: c1
  Charge       = 0
  Multiplicity = 1
  Basis Set: AUG-CC-PVTZ
    Blend: AUG-CC-PVTZ
  Basis Set: (AUG-CC-PVTZ AUX)
    Blend: AUG-CC-PVTZ-JKFIT
  @DF-RHF Final Energy:   -76.06038691401096
    Total Energy =                        -76.0603869140109623
  Basis Set: (AUG-CC-PVTZ AUX)
    Blend: AUG-CC-PVTZ-RI
	 Reference Energy          =     -76.0603869140109623 [Eh]
	 Singles Energy            =      -0.0000000000000000 [Eh]
	 Same-Spin Energy          =      -0.0683881095002100 [Eh]
	 Opposite-Spin Energy      =      -0.2153053152140452 [Eh]
	 Correlation Energy        =      -0.2836934247142552 [Eh]
	 Total Energy              =     -76.3440803387252203 [Eh]
	 SCS Total Energy          =     -76.3415493287678828 [Eh]
    Molecular point group: c1
  Basis Set: AUG-CC-PVQZ
    Blend: AUG-CC-PVQZ
  Basis Set: (AUG-CC-PVQZ AUX)
    Blend: AUG-CC-PVQZ-JKFIT
  @DF-RHF Final Energy:   -76.06577126276048
    Total Energy =                        -76.0657712627604781
  Basis Set: (AUG-CC-PVQZ AUX)
  @DF-RHF Final Energy:   -76.06039032241597
    Total Energy =                        -76.0603903224159694
  @DF-RHF Final Energy:   -76.06577304798138
    Total Energy =                        -76.0657730479813665
  @DF-RHF Final Energy:   -40.21366429981666
    Total Energy =                        -40.2136642998166707
  @DF-RHF Final Energy:   -40.21629397805793
    Total Energy =                        -40.2162939780579336
  @DF-RHF Final Energy:   -40.21366226475999
    Total Energy =                        -40.2136622647599893
  @DF-RHF Final Energy:   -40.21629339463913
    Total Energy =                        -40.2162933946391234
  Multiplicity = 1
  @DF-RHF Final Energy:  -116.27416593832857
    Total Energy =                       -116.2741659383285651
	 Singles Energy            =      -0.0000000000000000 [Eh]
	 Same-Spin Energy          =      -0.1076563985379624 [Eh]
	 Opposite-Spin Energy      =      -0.3954914428390320 [Eh]
	 Correlation Energy        =      -0.5031478413769945 [Eh]
	 Total Energy              =    -116.7773137797055654 [Eh]
	 SCS Total Energy          =    -116.7846411359147254 [Eh]
    Molecular point group: c1

    Geometry (in Angstrom), charge = 0, multiplicity = 1:

       Center              X                  Y                   Z               Mass
    ------------   -----------------  -----------------  -----------------  -----------------
         C            2.897066458923     0.000319831305     0.000047425032    12.000000000000
         H            3.261776458923    -0.471280168695     0.907587425032     1.007825032230
         H            3.261846458924    -0.550080168695    -0.861962574968     1.007825032230
         H            3.264156458924     1.021259831305    -0.045452574968     1.007825032230
         H            1.811536458923     0.001939831305    -0.000062574968     1.007825032230
         O           -2.512903541076    -0.000120168695    -0.000092574968    15.994914619570
         H           -3.108523541076     0.751759831305     0.000397425032     1.007825032230
         H           -3.104063541076    -0.755500168695     0.000397425032     1.007825032230

  Charge       = 0
  Multiplicity = 1
  Basis Set: AUG-CC-PVQZ
    Blend: AUG-CC-PVQZ
  Basis Set: (AUG-CC-PVQZ AUX)
    Blend: AUG-CC-PVQZ-JKFIT

    Orbital Energies [Eh]
    ---------------------

    Doubly Occupied:

       1A    -20.566026     2A    -11.196779     3A     -1.353069
       4A     -0.936644     5A     -0.715408     6A     -0.587078
       7A     -0.538482     8A     -0.538355     9A     -0.538251
      10A     -0.511144

  @DF-RHF Final Energy:  -116.28217795916650

   => Energetics <=

    Nuclear Repulsion Energy =             32.2563322206932526
    One-Electron Energy =                -222.1145491000552568
    Two-Electron Energy =                  73.5760389201955007
    Total Energy =                       -116.2821779591665035

  Dipole Moment: [D]
     X:    -2.0626      Y:    -0.0059      Z:     0.0016     Total:     2.0626

  Basis Set: (AUG-CC-PVQZ AUX)
    Blend: AUG-CC-PVQZ-RI
	 Reference Energy          =    -116.2821779591665035 [Eh]
	 Singles Energy            =      -0.0000000000000000 [Eh]
	 Same-Spin Energy          =      -0.1143683674132202 [Eh]
	 Opposite-Spin Energy      =      -0.4429587055629762 [Eh]
	 Correlation Energy        =      -0.5573270729761963 [Eh]
	 Total Energy              =    -116.8395050321426965 [Eh]

	 ================> DF-SCS-MP2 Energies <==================
	-----------------------------------------------------------
	 SCS Same-Spin Scale       =       0.3333333333333333 [-]
	 SCS Opposite-Spin Scale   =       1.2000000000000000 [-]
	 SCS Same-Spin Energy      =      -0.0381227891377400 [Eh]
	 SCS Opposite-Spin Energy  =      -0.5315504466755714 [Eh]
	 SCS Correlation Energy    =      -0.5696732358133114 [Eh]
	 SCS Total Energy          =    -116.8518511949798153 [Eh]
	-----------------------------------------------------------

*** Psi4 exiting successfully. Buy a developer a beer!
