                               Psi4 1.4a2.dev224

  ==> Input File <==

--------------------------------------------------------------------------
#Generated by lconvert.py for cbs job

memory 40 GB

molecule  {
0 1
  C        1.9529400    -0.0000180     0.0000200
  H        2.3176520    -0.4716210     0.9075640
  H        2.3177190    -0.5504180    -0.8619910
  H        2.3200280     1.0209220    -0.0454770
  H        0.8674090     0.0015960    -0.0000900
--
0 1
  O       -1.8353680     0.0003140    -0.0001110
  H       -2.4309850     0.7521840     0.0003810
  H       -2.4265230    -0.7550690     0.0003790
units angstrom
no_reorient
symmetry c1
}

set {
scf_type DF
mp2_type DF
e_convergence 7
reference rhf
}

energy('mp2/aug-cc-pv[tq]z', bsse_type='cp')
--------------------------------------------------------------------------

    Molecular point group: c1
  Charge       = 0
  Multiplicity = 1
  Basis Set: AUG-CC-PVTZ
    Blend: AUG-CC-PVTZ
  Basis Set: (AUG-CC-PVTZ AUX)
    Blend: AUG-CC-PVTZ-JKFIT
  @DF-RHF Final Energy:   -76.06038729511960
    Total Energy =                        -76.0603872951195967
  Basis Set: (AUG-CC-PVTZ AUX)
    Blend: AUG-CC-PVTZ-RI
	 Reference Energy          =     -76.0603872951195967 [Eh]
	 Singles Energy            =      -0.0000000000000000 [Eh]
	 Same-Spin Energy          =      -0.0683880161138739 [Eh]
	 Opposite-Spin Energy      =      -0.2153050316081012 [Eh]
	 Correlation Energy        =      -0.2836930477219751 [Eh]
	 Total Energy              =     -76.3440803428415649 [Eh]
	 SCS Total Energy          =     -76.3415493384206059 [Eh]
    Molecular point group: c1
  Basis Set: AUG-CC-PVQZ
    Blend: AUG-CC-PVQZ
  Basis Set: (AUG-CC-PVQZ AUX)
    Blend: AUG-CC-PVQZ-JKFIT
  @DF-RHF Final Energy:   -76.06577167032800
    Total Energy =                        -76.0657716703279903
  Basis Set: (AUG-CC-PVQZ AUX)
  @DF-RHF Final Energy:   -76.06041613845129
    Total Energy =                        -76.0604161384513020
  @DF-RHF Final Energy:   -76.06578615355639
    Total Energy =                        -76.0657861535563882
  @DF-RHF Final Energy:   -40.21367350919469
    Total Energy =                        -40.2136735091946917
  @DF-RHF Final Energy:   -40.21629632961520
    Total Energy =                        -40.2162963296152043
  @DF-RHF Final Energy:   -40.21366223796755
    Total Energy =                        -40.2136622379675543
  @DF-RHF Final Energy:   -40.21629336355618
    Total Energy =                        -40.2162933635561757
  Multiplicity = 1
  @DF-RHF Final Energy:  -116.27418396667305
    Total Energy =                       -116.2741839666730499
	 Singles Energy            =      -0.0000000000000000 [Eh]
	 Same-Spin Energy          =      -0.1081047815412393 [Eh]
	 Opposite-Spin Energy      =      -0.3962228565800024 [Eh]
	 Correlation Energy        =      -0.5043276381212418 [Eh]
	 Total Energy              =    -116.7785116047942893 [Eh]
	 SCS Total Energy          =    -116.7856863217494663 [Eh]
    Molecular point group: c1

    Geometry (in Angstrom), charge = 0, multiplicity = 1:

       Center              X                  Y                   Z               Mass
    ------------   -----------------  -----------------  -----------------  -----------------
         C            2.039091886906    -0.000087960214     0.000042426549    12.000000000000
         H            2.403803886906    -0.471690960214     0.907586426549     1.007825032230
         H            2.403870886906    -0.550487960214    -0.861968573451     1.007825032230
         H            2.406179886906     1.020852039786    -0.045454573451     1.007825032230
         H            0.953560886906     0.001526039786    -0.000067573451     1.007825032230
         O           -1.749216113094     0.000244039786    -0.000088573451    15.994914619570
         H           -2.344833113094     0.752114039786     0.000403426549     1.007825032230
         H           -2.340371113094    -0.755138960214     0.000401426549     1.007825032230

  Charge       = 0
  Multiplicity = 1
  Basis Set: AUG-CC-PVQZ
    Blend: AUG-CC-PVQZ
  Basis Set: (AUG-CC-PVQZ AUX)
    Blend: AUG-CC-PVQZ-JKFIT

    Orbital Energies [Eh]
    ---------------------

    Doubly Occupied:

       1A    -20.567982     2A    -11.187914     3A     -1.355389
       4A     -0.928553     5A     -0.717607     6A     -0.592021
       7A     -0.530870     8A     -0.530837     9A     -0.526848
      10A     -0.513422

  @DF-RHF Final Energy:  -116.28217809036575

   => Energetics <=

    Nuclear Repulsion Energy =             36.2937151829822611
    One-Electron Energy =                -230.2488997728242168
    Two-Electron Energy =                  77.6730064994762159
    Total Energy =                       -116.2821780903657469

  Dipole Moment: [D]
     X:    -2.2258      Y:    -0.0060      Z:     0.0017     Total:     2.2259

  Basis Set: (AUG-CC-PVQZ AUX)
    Blend: AUG-CC-PVQZ-RI
	 Reference Energy          =    -116.2821780903657469 [Eh]
	 Singles Energy            =      -0.0000000000000000 [Eh]
	 Same-Spin Energy          =      -0.1148079742419975 [Eh]
	 Opposite-Spin Energy      =      -0.4434481608068543 [Eh]
	 Correlation Energy        =      -0.5582561350488517 [Eh]
	 Total Energy              =    -116.8404342254145973 [Eh]

	 ================> DF-SCS-MP2 Energies <==================
	-----------------------------------------------------------
	 SCS Same-Spin Scale       =       0.3333333333333333 [-]
	 SCS Opposite-Spin Scale   =       1.2000000000000000 [-]
	 SCS Same-Spin Energy      =      -0.0382693247473325 [Eh]
	 SCS Opposite-Spin Energy  =      -0.5321377929682252 [Eh]
	 SCS Correlation Energy    =      -0.5704071177155576 [Eh]
	 SCS Total Energy          =    -116.8525852080813081 [Eh]
	-----------------------------------------------------------

*** Psi4 exiting successfully. Buy a developer a beer!
