                               Psi4 1.4a2.dev224

  ==> Input File <==

--------------------------------------------------------------------------
#Generated by lconvert.py for cbs job

memory 40 GB

molecule  {
0 1
  C        1.9529400    -0.0000180     0.0000200
  H        2.3176520    -0.4716210     0.9075640
  H        2.3177190    -0.5504180    -0.8619910
  H        2.3200280     1.0209220    -0.0454770
  H        0.8674090     0.0015960    -0.0000900
--
0 1
  O       -1.0245349     0.0006986    -0.0001047
  H       -1.6201519     0.7525686     0.0003873
  H       -1.6156899    -0.7546844     0.0003853
units angstrom
no_reorient
symmetry c1
}

set {
scf_type DF
mp2_type DF
e_convergence 7
reference rhf
}

energy('mp2/aug-cc-pv[tq]z', bsse_type='cp')
--------------------------------------------------------------------------

    Molecular point group: c1
  Charge       = 0
  Multiplicity = 1
  Basis Set: AUG-CC-PVTZ
    Blend: AUG-CC-PVTZ
  Basis Set: (AUG-CC-PVTZ AUX)
    Blend: AUG-CC-PVTZ-JKFIT
  @DF-RHF Final Energy:   -76.06038729512014
    Total Energy =                        -76.0603872951201367
  Basis Set: (AUG-CC-PVTZ AUX)
    Blend: AUG-CC-PVTZ-RI
	 Reference Energy          =     -76.0603872951201367 [Eh]
	 Singles Energy            =      -0.0000000000000000 [Eh]
	 Same-Spin Energy          =      -0.0683880161138688 [Eh]
	 Opposite-Spin Energy      =      -0.2153050316080779 [Eh]
	 Correlation Energy        =      -0.2836930477219468 [Eh]
	 Total Energy              =     -76.3440803428420764 [Eh]
	 SCS Total Energy          =     -76.3415493384211175 [Eh]
    Molecular point group: c1
  Basis Set: AUG-CC-PVQZ
    Blend: AUG-CC-PVQZ
  Basis Set: (AUG-CC-PVQZ AUX)
    Blend: AUG-CC-PVQZ-JKFIT
  @DF-RHF Final Energy:   -76.06577167031026
    Total Energy =                        -76.0657716703102551
  Basis Set: (AUG-CC-PVQZ AUX)
  @DF-RHF Final Energy:   -76.06044896181038
    Total Energy =                        -76.0604489618103798
  @DF-RHF Final Energy:   -76.06580387259589
    Total Energy =                        -76.0658038725958932
  @DF-RHF Final Energy:   -40.21368258154232
    Total Energy =                        -40.2136825815423151
  @DF-RHF Final Energy:   -40.21630072832016
    Total Energy =                        -40.2163007283201495
  @DF-RHF Final Energy:   -40.21366223798663
    Total Energy =                        -40.2136622379866253
  @DF-RHF Final Energy:   -40.21629336356607
    Total Energy =                        -40.2162933635660735
  Multiplicity = 1
  @DF-RHF Final Energy:  -116.26572093129003
    Total Energy =                       -116.2657209312900335
	 Singles Energy            =      -0.0000000000000000 [Eh]
	 Same-Spin Energy          =      -0.1097446540984210 [Eh]
	 Opposite-Spin Energy      =      -0.3981670919694240 [Eh]
	 Correlation Energy        =      -0.5079117460678451 [Eh]
	 Total Energy              =    -116.7736326773578810 [Eh]
	 SCS Total Energy          =    -116.7801029930194829 [Eh]
    Molecular point group: c1

    Geometry (in Angstrom), charge = 0, multiplicity = 1:

       Center              X                  Y                   Z               Mass
    ------------   -----------------  -----------------  -----------------  -----------------
         C            1.610103578664    -0.000291440935     0.000039093401    12.000000000000
         H            1.974815578664    -0.471894440935     0.907583093401     1.007825032230
         H            1.974882578664    -0.550691440935    -0.861971906599     1.007825032230
         H            1.977191578664     1.020648559065    -0.045457906599     1.007825032230
         H            0.524572578664     0.001322559065    -0.000070906599     1.007825032230
         O           -1.367371321336     0.000425159065    -0.000085606599    15.994914619570
         H           -1.962988321336     0.752295159065     0.000406393401     1.007825032230
         H           -1.958526321336    -0.754957840935     0.000404393401     1.007825032230

  Charge       = 0
  Multiplicity = 1
  Basis Set: AUG-CC-PVQZ
    Blend: AUG-CC-PVQZ
  Basis Set: (AUG-CC-PVQZ AUX)
    Blend: AUG-CC-PVQZ-JKFIT

    Orbital Energies [Eh]
    ---------------------

    Doubly Occupied:

       1A    -20.572399     2A    -11.170939     3A     -1.363609
       4A     -0.917138     5A     -0.724538     6A     -0.620819
       7A     -0.523469     8A     -0.519243     9A     -0.516517
      10A     -0.493875

  @DF-RHF Final Energy:  -116.27373919699197

   => Energetics <=

    Nuclear Repulsion Energy =             39.9834084222694841
    One-Electron Energy =                -237.6692016873086004
    Two-Electron Energy =                  81.4120540680471407
    Total Energy =                       -116.2737391969919685

  Dipole Moment: [D]
     X:    -2.6198      Y:    -0.0061      Z:     0.0017     Total:     2.6198

  Basis Set: (AUG-CC-PVQZ AUX)
    Blend: AUG-CC-PVQZ-RI
	 Reference Energy          =    -116.2737391969919685 [Eh]
	 Singles Energy            =      -0.0000000000000000 [Eh]
	 Same-Spin Energy          =      -0.1164666216592558 [Eh]
	 Opposite-Spin Energy      =      -0.4451236980892536 [Eh]
	 Correlation Energy        =      -0.5615903197485095 [Eh]
	 Total Energy              =    -116.8353295167404724 [Eh]

	 ================> DF-SCS-MP2 Energies <==================
	-----------------------------------------------------------
	 SCS Same-Spin Scale       =       0.3333333333333333 [-]
	 SCS Opposite-Spin Scale   =       1.2000000000000000 [-]
	 SCS Same-Spin Energy      =      -0.0388222072197519 [Eh]
	 SCS Opposite-Spin Energy  =      -0.5341484377071043 [Eh]
	 SCS Correlation Energy    =      -0.5729706449268562 [Eh]
	 SCS Total Energy          =    -116.8467098419188233 [Eh]
	-----------------------------------------------------------

*** Psi4 exiting successfully. Buy a developer a beer!
