                               Psi4 1.4a2.dev224

  ==> Input File <==

--------------------------------------------------------------------------
#Generated by lconvert.py for cbs job

memory 40 GB

molecule  {
0 1
  C        1.2912560    -0.6669060    -0.0146850
  H        1.5863150    -1.2285460     0.8600950
  H        1.0009540    -1.2286270    -0.8910160
  C        1.2911750     0.6669280    -0.0146940
  H        1.0008000     1.2286000    -0.8910330
  H        1.5861590     1.2286170     0.8600790
--
0 1
  O       -2.3831754    -0.0000190    -0.0683320
  H       -1.4431044     0.0000730     0.1350450
  H       -2.8012344    -0.0000330     0.7944690
units angstrom
no_reorient
symmetry c1
}

set {
scf_type DF
mp2_type DF
e_convergence 7
reference rhf
}

energy('mp2/aug-cc-pv[tq]z', bsse_type='cp')
--------------------------------------------------------------------------

    Molecular point group: c1
  Charge       = 0
  Multiplicity = 1
  Basis Set: AUG-CC-PVTZ
    Blend: AUG-CC-PVTZ
  Basis Set: (AUG-CC-PVTZ AUX)
    Blend: AUG-CC-PVTZ-JKFIT
  @DF-RHF Final Energy:   -76.06031212450389
    Total Energy =                        -76.0603121245038949
  Basis Set: (AUG-CC-PVTZ AUX)
    Blend: AUG-CC-PVTZ-RI
	 Reference Energy          =     -76.0603121245038949 [Eh]
	 Singles Energy            =      -0.0000000000000000 [Eh]
	 Same-Spin Energy          =      -0.0684052353309761 [Eh]
	 Opposite-Spin Energy      =      -0.2153582289239370 [Eh]
	 Correlation Energy        =      -0.2837634642549131 [Eh]
	 Total Energy              =     -76.3440755887588125 [Eh]
	 SCS Total Energy          =     -76.3415437443229479 [Eh]
    Molecular point group: c1
  Basis Set: AUG-CC-PVQZ
    Blend: AUG-CC-PVQZ
  Basis Set: (AUG-CC-PVQZ AUX)
    Blend: AUG-CC-PVQZ-JKFIT
  @DF-RHF Final Energy:   -76.06569091403713
    Total Energy =                        -76.0656909140371340
  Basis Set: (AUG-CC-PVQZ AUX)
  @DF-RHF Final Energy:   -76.06035275772959
    Total Energy =                        -76.0603527577295893
  @DF-RHF Final Energy:   -76.06570529266689
    Total Energy =                        -76.0657052926668769
  @DF-RHF Final Energy:   -78.06470980284732
    Total Energy =                        -78.0647098028473181
  @DF-RHF Final Energy:   -78.06938397125580
    Total Energy =                        -78.0693839712558031
  @DF-RHF Final Energy:   -78.06465725950719
    Total Energy =                        -78.0646572595071859
  @DF-RHF Final Energy:   -78.06936792174825
    Total Energy =                        -78.0693679217482384
  Multiplicity = 1
  @DF-RHF Final Energy:  -154.12716964772451
    Total Energy =                       -154.1271696477245143
	 Singles Energy            =      -0.0000000000000000 [Eh]
	 Same-Spin Energy          =      -0.1459486230178039 [Eh]
	 Opposite-Spin Energy      =      -0.5153889486507863 [Eh]
	 Correlation Energy        =      -0.6613375716685903 [Eh]
	 Total Energy              =    -154.7885072193930966 [Eh]
	 SCS Total Energy          =    -154.7942859271113889 [Eh]
    Molecular point group: c1

    Geometry (in Angstrom), charge = 0, multiplicity = 1:

       Center              X                  Y                   Z               Mass
    ------------   -----------------  -----------------  -----------------  -----------------
         C            1.425749888522    -0.666906972027    -0.002281414590    12.000000000000
         H            1.720808888522    -1.228546972027     0.872498585410     1.007825032230
         H            1.135447888522    -1.228627972027    -0.878612414590     1.007825032230
         C            1.425668888522     0.666927027973    -0.002290414590    12.000000000000
         H            1.135293888522     1.228599027973    -0.878629414590     1.007825032230
         H            1.720652888522     1.228616027973     0.872482585410     1.007825032230
         O           -2.248681511478    -0.000019972027    -0.055928414590    15.994914619570
         H           -1.308610511478     0.000072027973     0.147448585410     1.007825032230
         H           -2.666740511478    -0.000033972027     0.806872585410     1.007825032230

  Charge       = 0
  Multiplicity = 1
  Basis Set: AUG-CC-PVQZ
    Blend: AUG-CC-PVQZ
  Basis Set: (AUG-CC-PVQZ AUX)
    Blend: AUG-CC-PVQZ-JKFIT

    Orbital Energies [Eh]
    ---------------------

    Doubly Occupied:

       1A    -20.554201     2A    -11.241139     3A    -11.239426
       4A     -1.341415     5A     -1.045921     6A     -0.803982
       7A     -0.704555     8A     -0.655499     9A     -0.598120
      10A     -0.576548    11A     -0.519138    12A     -0.500003
      13A     -0.390035

  @DF-RHF Final Energy:  -154.13719528430815

   => Energetics <=

    Nuclear Repulsion Energy =             65.3687852475886899
    One-Electron Energy =                -338.6719989770389247
    Two-Electron Energy =                 119.1660184451421003
    Total Energy =                       -154.1371952843081488

  Dipole Moment: [D]
     X:     1.1992      Y:     0.0001      Z:     1.7040     Total:     2.0837

  Basis Set: (AUG-CC-PVQZ AUX)
    Blend: AUG-CC-PVQZ-RI
	 Reference Energy          =    -154.1371952843081488 [Eh]
	 Singles Energy            =      -0.0000000000000000 [Eh]
	 Same-Spin Energy          =      -0.1550646252619982 [Eh]
	 Opposite-Spin Energy      =      -0.5791678572258858 [Eh]
	 Correlation Energy        =      -0.7342324824878840 [Eh]
	 Total Energy              =    -154.8714277667960459 [Eh]

	 ================> DF-SCS-MP2 Energies <==================
	-----------------------------------------------------------
	 SCS Same-Spin Scale       =       0.3333333333333333 [-]
	 SCS Opposite-Spin Scale   =       1.2000000000000000 [-]
	 SCS Same-Spin Energy      =      -0.0516882084206660 [Eh]
	 SCS Opposite-Spin Energy  =      -0.6950014286710630 [Eh]
	 SCS Correlation Energy    =      -0.7466896370917290 [Eh]
	 SCS Total Energy          =    -154.8838849213998685 [Eh]
	-----------------------------------------------------------

*** Psi4 exiting successfully. Buy a developer a beer!
