                               Psi4 1.4a2.dev224

  ==> Input File <==

--------------------------------------------------------------------------
#Generated by lconvert.py for cbs job

memory 20 GB

molecule  {
0 1
  C       1.291260   -0.666910   -0.014690
  H       1.586310   -1.228550    0.860100
  H       1.000950   -1.228630   -0.891020
  C       1.291170    0.666930   -0.014690
  H       1.000800    1.228600   -0.891030
  H       1.586160    1.228620    0.860080
--
0 1
  O      -4.566180    0.000030    0.051290
  H      -3.626100    0.000120    0.254660
  H      -4.984230    0.000020    0.914090
units angstrom
no_reorient
symmetry c1
}

set {
scf_type DF
mp2_type DF
e_convergence 7
reference rhf
}

energy('mp2/aug-cc-pv[tq]z', bsse_type='cp')
--------------------------------------------------------------------------

    Molecular point group: c1
  Charge       = 0
  Multiplicity = 1
  Basis Set: AUG-CC-PVTZ
    Blend: AUG-CC-PVTZ
  Basis Set: (AUG-CC-PVTZ AUX)
    Blend: AUG-CC-PVTZ-JKFIT
  @DF-RHF Final Energy:   -76.06031200091121
    Total Energy =                        -76.0603120009112104
  Basis Set: (AUG-CC-PVTZ AUX)
    Blend: AUG-CC-PVTZ-RI
	 Reference Energy          =     -76.0603120009112104 [Eh]
	 Singles Energy            =      -0.0000000000000000 [Eh]
	 Same-Spin Energy          =      -0.0684052554697638 [Eh]
	 Opposite-Spin Energy      =      -0.2153582918962886 [Eh]
	 Correlation Energy        =      -0.2837635473660524 [Eh]
	 Total Energy              =     -76.3440755482772602 [Eh]
	 SCS Total Energy          =     -76.3415437030100179 [Eh]
    Molecular point group: c1
  Basis Set: AUG-CC-PVQZ
    Blend: AUG-CC-PVQZ
  Basis Set: (AUG-CC-PVQZ AUX)
    Blend: AUG-CC-PVQZ-JKFIT
  @DF-RHF Final Energy:   -76.06569078425544
    Total Energy =                        -76.0656907842554375
  Basis Set: (AUG-CC-PVQZ AUX)
  @DF-RHF Final Energy:   -76.06031701601501
    Total Energy =                        -76.0603170160150057
  @DF-RHF Final Energy:   -76.06569227138073
    Total Energy =                        -76.0656922713807120
  @DF-RHF Final Energy:   -78.06466235179968
    Total Energy =                        -78.0646623517996829
  @DF-RHF Final Energy:   -78.06936925587499
    Total Energy =                        -78.0693692558749888
  @DF-RHF Final Energy:   -78.06465694139443
    Total Energy =                        -78.0646569413944320
  @DF-RHF Final Energy:   -78.06936758922144
    Total Energy =                        -78.0693675892214429
  Multiplicity = 1
  @DF-RHF Final Energy:  -154.12541166234718
    Total Energy =                       -154.1254116623471759
	 Singles Energy            =      -0.0000000000000000 [Eh]
	 Same-Spin Energy          =      -0.1450137947346964 [Eh]
	 Opposite-Spin Energy      =      -0.5140024039234511 [Eh]
	 Correlation Energy        =      -0.6590161986581475 [Eh]
	 Total Energy              =    -154.7844278610053266 [Eh]
	 SCS Total Energy          =    -154.7905524786335434 [Eh]
    Molecular point group: c1

    Geometry (in Angstrom), charge = 0, multiplicity = 1:

       Center              X                  Y                   Z               Mass
    ------------   -----------------  -----------------  -----------------  -----------------
         C            2.279697307958    -0.666929574706    -0.049079583240    12.000000000000
         H            2.574747307958    -1.228569574706     0.825710416760     1.007825032230
         H            1.989387307958    -1.228649574706    -0.925409583240     1.007825032230
         C            2.279607307958     0.666910425294    -0.049079583240    12.000000000000
         H            1.989237307958     1.228580425294    -0.925419583240     1.007825032230
         H            2.574597307958     1.228600425294     0.825690416760     1.007825032230
         O           -3.577742692042     0.000010425294     0.016900416760    15.994914619570
         H           -2.637662692042     0.000100425294     0.220270416760     1.007825032230
         H           -3.995792692042     0.000000425294     0.879700416760     1.007825032230

  Charge       = 0
  Multiplicity = 1
  Basis Set: AUG-CC-PVQZ
    Blend: AUG-CC-PVQZ
  Basis Set: (AUG-CC-PVQZ AUX)
    Blend: AUG-CC-PVQZ-JKFIT

    Orbital Energies [Eh]
    ---------------------

    Doubly Occupied:

       1A    -20.563499     2A    -11.234281     3A    -11.232569
       4A     -1.349802     5A     -1.038058     6A     -0.797392
       7A     -0.712298     8A     -0.648816     9A     -0.591427
      10A     -0.584078    11A     -0.512834    12A     -0.508413
      13A     -0.381115

  @DF-RHF Final Energy:  -154.13549061341283

   => Energetics <=

    Nuclear Repulsion Energy =             57.0041413193020929
    One-Electron Energy =                -321.9701031475283912
    Two-Electron Energy =                 110.8304712148134712
    Total Energy =                       -154.1354906134127987

  Dipole Moment: [D]
     X:     0.9480      Y:     0.0001      Z:     1.7654     Total:     2.0038

  Basis Set: (AUG-CC-PVQZ AUX)
    Blend: AUG-CC-PVQZ-RI
	 Reference Energy          =    -154.1354906134128271 [Eh]
	 Singles Energy            =      -0.0000000000000000 [Eh]
	 Same-Spin Energy          =      -0.1541616057846392 [Eh]
	 Opposite-Spin Energy      =      -0.5782289719742776 [Eh]
	 Correlation Energy        =      -0.7323905777589168 [Eh]
	 Total Energy              =    -154.8678811911717332 [Eh]

	 ================> DF-SCS-MP2 Energies <==================
	-----------------------------------------------------------
	 SCS Same-Spin Scale       =       0.3333333333333333 [-]
	 SCS Opposite-Spin Scale   =       1.2000000000000000 [-]
	 SCS Same-Spin Energy      =      -0.0513872019282131 [Eh]
	 SCS Opposite-Spin Energy  =      -0.6938747663691330 [Eh]
	 SCS Correlation Energy    =      -0.7452619682973460 [Eh]
	 SCS Total Energy          =    -154.8807525817101691 [Eh]
	-----------------------------------------------------------

*** Psi4 exiting successfully. Buy a developer a beer!
