                               Psi4 1.4a2.dev224

  ==> Input File <==

--------------------------------------------------------------------------
#Generated by lconvert.py for cbs job

memory 20 GB

molecule  {
0 1
  C       1.291260   -0.666910   -0.014690
  H       1.586310   -1.228550    0.860100
  H       1.000950   -1.228630   -0.891020
  C       1.291170    0.666930   -0.014690
  H       1.000800    1.228600   -0.891030
  H       1.586160    1.228620    0.860080
--
0 1
  O      -3.747550    0.000010    0.006430
  H      -2.807480    0.000100    0.209810
  H      -4.165610   -0.000000    0.869230
units angstrom
no_reorient
symmetry c1
}

set {
scf_type DF
mp2_type DF
e_convergence 7
reference rhf
}

energy('mp2/aug-cc-pv[tq]z', bsse_type='cp')
--------------------------------------------------------------------------

    Molecular point group: c1
  Charge       = 0
  Multiplicity = 1
  Basis Set: AUG-CC-PVTZ
    Blend: AUG-CC-PVTZ
  Basis Set: (AUG-CC-PVTZ AUX)
    Blend: AUG-CC-PVTZ-JKFIT
  @DF-RHF Final Energy:   -76.06031214308193
    Total Energy =                        -76.0603121430819300
  Basis Set: (AUG-CC-PVTZ AUX)
    Blend: AUG-CC-PVTZ-RI
	 Reference Energy          =     -76.0603121430819300 [Eh]
	 Singles Energy            =      -0.0000000000000000 [Eh]
	 Same-Spin Energy          =      -0.0684052305675816 [Eh]
	 Opposite-Spin Energy      =      -0.2153582136103769 [Eh]
	 Correlation Energy        =      -0.2837634441779585 [Eh]
	 Total Energy              =     -76.3440755872598942 [Eh]
	 SCS Total Energy          =     -76.3415437429369064 [Eh]
    Molecular point group: c1
  Basis Set: AUG-CC-PVQZ
    Blend: AUG-CC-PVQZ
  Basis Set: (AUG-CC-PVQZ AUX)
    Blend: AUG-CC-PVQZ-JKFIT
  @DF-RHF Final Energy:   -76.06569093483391
    Total Energy =                        -76.0656909348339099
  Basis Set: (AUG-CC-PVQZ AUX)
  @DF-RHF Final Energy:   -76.06032100505021
    Total Energy =                        -76.0603210050502128
  @DF-RHF Final Energy:   -76.06569446353106
    Total Energy =                        -76.0656944635310595
  @DF-RHF Final Energy:   -78.06466640389606
    Total Energy =                        -78.0646664038960694
  @DF-RHF Final Energy:   -78.06937380375449
    Total Energy =                        -78.0693738037545018
  @DF-RHF Final Energy:   -78.06465694145723
    Total Energy =                        -78.0646569414572298
  @DF-RHF Final Energy:   -78.06936758918557
    Total Energy =                        -78.0693675891855747
  Multiplicity = 1
  @DF-RHF Final Energy:  -154.12582648887425
    Total Energy =                       -154.1258264888742247
	 Singles Energy            =      -0.0000000000000000 [Eh]
	 Same-Spin Energy          =      -0.1450924386361425 [Eh]
	 Opposite-Spin Energy      =      -0.5141000132263328 [Eh]
	 Correlation Energy        =      -0.6591924518624753 [Eh]
	 Total Energy              =    -154.7850189407367338 [Eh]
	 SCS Total Energy          =    -154.7911106509579042 [Eh]
    Molecular point group: c1

    Geometry (in Angstrom), charge = 0, multiplicity = 1:

       Center              X                  Y                   Z               Mass
    ------------   -----------------  -----------------  -----------------  -----------------
         C            1.959467698000    -0.666921751145    -0.031531556965    12.000000000000
         H            2.254517698000    -1.228561751145     0.843258443035     1.007825032230
         H            1.669157698000    -1.228641751145    -0.907861556965     1.007825032230
         C            1.959377698000     0.666918248855    -0.031531556965    12.000000000000
         H            1.669007698000     1.228588248855    -0.907871556965     1.007825032230
         H            2.254367698000     1.228608248855     0.843238443035     1.007825032230
         O           -3.079342302000    -0.000001751145    -0.010411556965    15.994914619570
         H           -2.139272302000     0.000088248855     0.192968443035     1.007825032230
         H           -3.497402302000    -0.000011751145     0.852388443035     1.007825032230

  Charge       = 0
  Multiplicity = 1
  Basis Set: AUG-CC-PVQZ
    Blend: AUG-CC-PVQZ
  Basis Set: (AUG-CC-PVQZ AUX)
    Blend: AUG-CC-PVQZ-JKFIT

    Orbital Energies [Eh]
    ---------------------

    Doubly Occupied:

       1A    -20.562060     2A    -11.235897     3A    -11.234185
       4A     -1.348409     5A     -1.039757     6A     -0.798922
       7A     -0.710888     8A     -0.650381     9A     -0.592986
      10A     -0.582773    11A     -0.514310    12A     -0.507061
      13A     -0.383000

  @DF-RHF Final Energy:  -154.13589933479602

   => Energetics <=

    Nuclear Repulsion Energy =             59.3169972292487486
    One-Electron Energy =                -326.5845346648267764
    Two-Electron Energy =                 113.1316381007820411
    Total Energy =                       -154.1358993347960222

  Dipole Moment: [D]
     X:     0.9951      Y:     0.0001      Z:     1.7516     Total:     2.0145

  Basis Set: (AUG-CC-PVQZ AUX)
    Blend: AUG-CC-PVQZ-RI
	 Reference Energy          =    -154.1358993347960222 [Eh]
	 Singles Energy            =      -0.0000000000000000 [Eh]
	 Same-Spin Energy          =      -0.1542349148212572 [Eh]
	 Opposite-Spin Energy      =      -0.5782838841859799 [Eh]
	 Correlation Energy        =      -0.7325187990072370 [Eh]
	 Total Energy              =    -154.8684181338032602 [Eh]

	 ================> DF-SCS-MP2 Energies <==================
	-----------------------------------------------------------
	 SCS Same-Spin Scale       =       0.3333333333333333 [-]
	 SCS Opposite-Spin Scale   =       1.2000000000000000 [-]
	 SCS Same-Spin Energy      =      -0.0514116382737524 [Eh]
	 SCS Opposite-Spin Energy  =      -0.6939406610231759 [Eh]
	 SCS Correlation Energy    =      -0.7453522992969283 [Eh]
	 SCS Total Energy          =    -154.8812516340929619 [Eh]
	-----------------------------------------------------------

*** Psi4 exiting successfully. Buy a developer a beer!
