                               Psi4 1.4a2.dev224

  ==> Input File <==

--------------------------------------------------------------------------
#Generated by lconvert.py for cbs job

memory 40 GB

molecule  {
0 1
  C        1.2912560    -0.6669060    -0.0146850
  H        1.5863150    -1.2285460     0.8600950
  H        1.0009540    -1.2286270    -0.8910160
  C        1.2911750     0.6669280    -0.0146940
  H        1.0008000     1.2286000    -0.8910330
  H        1.5861590     1.2286170     0.8600790
--
0 1
  O       -1.3113646    -0.0000433    -0.1270622
  H       -0.3712936     0.0000487     0.0763148
  H       -1.7294236    -0.0000573     0.7357388
units angstrom
no_reorient
symmetry c1
}

set {
scf_type DF
mp2_type DF
e_convergence 7
reference rhf
}

energy('mp2/aug-cc-pv[tq]z', bsse_type='cp')
--------------------------------------------------------------------------

    Molecular point group: c1
  Charge       = 0
  Multiplicity = 1
  Basis Set: AUG-CC-PVTZ
    Blend: AUG-CC-PVTZ
  Basis Set: (AUG-CC-PVTZ AUX)
    Blend: AUG-CC-PVTZ-JKFIT
  @DF-RHF Final Energy:   -76.06031212450662
    Total Energy =                        -76.0603121245066234
  Basis Set: (AUG-CC-PVTZ AUX)
    Blend: AUG-CC-PVTZ-RI
	 Reference Energy          =     -76.0603121245066234 [Eh]
	 Singles Energy            =      -0.0000000000000000 [Eh]
	 Same-Spin Energy          =      -0.0684052353309722 [Eh]
	 Opposite-Spin Energy      =      -0.2153582289239550 [Eh]
	 Correlation Energy        =      -0.2837634642549273 [Eh]
	 Total Energy              =     -76.3440755887615552 [Eh]
	 SCS Total Energy          =     -76.3415437443256906 [Eh]
    Molecular point group: c1
  Basis Set: AUG-CC-PVQZ
    Blend: AUG-CC-PVQZ
  Basis Set: (AUG-CC-PVQZ AUX)
    Blend: AUG-CC-PVQZ-JKFIT
  @DF-RHF Final Energy:   -76.06569091403733
    Total Energy =                        -76.0656909140373330
  Basis Set: (AUG-CC-PVQZ AUX)
  @DF-RHF Final Energy:   -76.06042623955474
    Total Energy =                        -76.0604262395547437
  @DF-RHF Final Energy:   -76.06572780375318
    Total Energy =                        -76.0657278037531768
  @DF-RHF Final Energy:   -78.06479746433071
    Total Energy =                        -78.0647974643307094
  @DF-RHF Final Energy:   -78.06940077747282
    Total Energy =                        -78.0694007774728220
  @DF-RHF Final Energy:   -78.06465725954428
    Total Energy =                        -78.0646572595442763
  @DF-RHF Final Energy:   -78.06936792168426
    Total Energy =                        -78.0693679216842611
  Multiplicity = 1
  @DF-RHF Final Energy:  -154.10272787136421
    Total Energy =                       -154.1027278713642090
	 Singles Energy            =      -0.0000000000000000 [Eh]
	 Same-Spin Energy          =      -0.1509799994172677 [Eh]
	 Opposite-Spin Energy      =      -0.5224734067892050 [Eh]
	 Correlation Energy        =      -0.6734534062064726 [Eh]
	 Total Energy              =    -154.7761812775706858 [Eh]
	 SCS Total Energy          =    -154.7800226259836904 [Eh]
    Molecular point group: c1

    Geometry (in Angstrom), charge = 0, multiplicity = 1:

       Center              X                  Y                   Z               Mass
    ------------   -----------------  -----------------  -----------------  -----------------
         C            1.006481081299    -0.666897466401     0.020692547701    12.000000000000
         H            1.301540081299    -1.228537466401     0.895472547701     1.007825032230
         H            0.716179081299    -1.228618466401    -0.855638452299     1.007825032230
         C            1.006400081299     0.666936533599     0.020683547701    12.000000000000
         H            0.716025081299     1.228608533599    -0.855655452299     1.007825032230
         H            1.301384081299     1.228625533599     0.895456547701     1.007825032230
         O           -1.596139518701    -0.000034766401    -0.091684652299    15.994914619570
         H           -0.656068518701     0.000057233599     0.111692347701     1.007825032230
         H           -2.014198518701    -0.000048766401     0.771116347701     1.007825032230

  Charge       = 0
  Multiplicity = 1
  Basis Set: AUG-CC-PVQZ
    Blend: AUG-CC-PVQZ
  Basis Set: (AUG-CC-PVQZ AUX)
    Blend: AUG-CC-PVQZ-JKFIT

    Orbital Energies [Eh]
    ---------------------

    Doubly Occupied:

       1A    -20.525405     2A    -11.247414     3A    -11.245694
       4A     -1.326053     5A     -1.063246     6A     -0.813035
       7A     -0.704808     8A     -0.656941     9A     -0.607678
      10A     -0.564078    11A     -0.527996    12A     -0.477549
      13A     -0.391279

  @DF-RHF Final Energy:  -154.11263567169976

   => Energetics <=

    Nuclear Repulsion Energy =             74.2252448241103338
    One-Electron Energy =                -356.3734092281298445
    Two-Electron Energy =                 128.0355287323197331
    Total Energy =                       -154.1126356716997634

  Dipole Moment: [D]
     X:     1.5700      Y:     0.0000      Z:     1.6506     Total:     2.2780

  Basis Set: (AUG-CC-PVQZ AUX)
    Blend: AUG-CC-PVQZ-RI
	 Reference Energy          =    -154.1126356716997634 [Eh]
	 Singles Energy            =      -0.0000000000000000 [Eh]
	 Same-Spin Energy          =      -0.1601543359771226 [Eh]
	 Opposite-Spin Energy      =      -0.5855714690777357 [Eh]
	 Correlation Energy        =      -0.7457258050548583 [Eh]
	 Total Energy              =    -154.8583614767546237 [Eh]

	 ================> DF-SCS-MP2 Energies <==================
	-----------------------------------------------------------
	 SCS Same-Spin Scale       =       0.3333333333333333 [-]
	 SCS Opposite-Spin Scale   =       1.2000000000000000 [-]
	 SCS Same-Spin Energy      =      -0.0533847786590409 [Eh]
	 SCS Opposite-Spin Energy  =      -0.7026857628932829 [Eh]
	 SCS Correlation Energy    =      -0.7560705415523238 [Eh]
	 SCS Total Energy          =    -154.8687062132520964 [Eh]
	-----------------------------------------------------------

*** Psi4 exiting successfully. Buy a developer a beer!
