                               Psi4 1.4a2.dev224

  ==> Input File <==

--------------------------------------------------------------------------
#Generated by lconvert.py for cbs job

memory 40 GB

molecule  {
0 1
  C        1.2912560    -0.6669060    -0.0146850
  H        1.5863150    -1.2285460     0.8600950
  H        1.0009540    -1.2286270    -0.8910160
  C        1.2911750     0.6669280    -0.0146940
  H        1.0008000     1.2286000    -0.8910330
  H        1.5861590     1.2286170     0.8600790
--
0 1
  O       -1.5842396    -0.0000371    -0.1121099
  H       -0.6441686     0.0000549     0.0912671
  H       -2.0022986    -0.0000511     0.7506911
units angstrom
no_reorient
symmetry c1
}

set {
scf_type DF
mp2_type DF
e_convergence 7
reference rhf
}

energy('mp2/aug-cc-pv[tq]z', bsse_type='cp')
--------------------------------------------------------------------------

    Molecular point group: c1
  Charge       = 0
  Multiplicity = 1
  Basis Set: AUG-CC-PVTZ
    Blend: AUG-CC-PVTZ
  Basis Set: (AUG-CC-PVTZ AUX)
    Blend: AUG-CC-PVTZ-JKFIT
  @DF-RHF Final Energy:   -76.06031212450171
    Total Energy =                        -76.0603121245017064
  Basis Set: (AUG-CC-PVTZ AUX)
    Blend: AUG-CC-PVTZ-RI
	 Reference Energy          =     -76.0603121245017064 [Eh]
	 Singles Energy            =      -0.0000000000000000 [Eh]
	 Same-Spin Energy          =      -0.0684052353309889 [Eh]
	 Opposite-Spin Energy      =      -0.2153582289239911 [Eh]
	 Correlation Energy        =      -0.2837634642549801 [Eh]
	 Total Energy              =     -76.3440755887566809 [Eh]
	 SCS Total Energy          =     -76.3415437443208305 [Eh]
    Molecular point group: c1
  Basis Set: AUG-CC-PVQZ
    Blend: AUG-CC-PVQZ
  Basis Set: (AUG-CC-PVQZ AUX)
    Blend: AUG-CC-PVQZ-JKFIT
  @DF-RHF Final Energy:   -76.06569091404135
    Total Energy =                        -76.0656909140413546
  Basis Set: (AUG-CC-PVQZ AUX)
  @DF-RHF Final Energy:   -76.06040088747550
    Total Energy =                        -76.0604008874754953
  @DF-RHF Final Energy:   -76.06572043372825
    Total Energy =                        -76.0657204337282451
  @DF-RHF Final Energy:   -78.06475459918853
    Total Energy =                        -78.0647545991885323
  @DF-RHF Final Energy:   -78.06939648979497
    Total Energy =                        -78.0693964897949684
  @DF-RHF Final Energy:   -78.06465725951557
    Total Energy =                        -78.0646572595155703
  @DF-RHF Final Energy:   -78.06936792168990
    Total Energy =                        -78.0693679216899028
  Multiplicity = 1
  @DF-RHF Final Energy:  -154.11852211420799
    Total Energy =                       -154.1185221142079911
	 Singles Energy            =      -0.0000000000000000 [Eh]
	 Same-Spin Energy          =      -0.1487432794252601 [Eh]
	 Opposite-Spin Energy      =      -0.5192965564960725 [Eh]
	 Correlation Energy        =      -0.6680398359213326 [Eh]
	 Total Energy              =    -154.7865619501293111 [Eh]
	 SCS Total Energy          =    -154.7912590751450352 [Eh]
    Molecular point group: c1

    Geometry (in Angstrom), charge = 0, multiplicity = 1:

       Center              X                  Y                   Z               Mass
    ------------   -----------------  -----------------  -----------------  -----------------
         C            1.113223778584    -0.666899891705     0.014843536862    12.000000000000
         H            1.408282778584    -1.228539891705     0.889623536862     1.007825032230
         H            0.822921778584    -1.228620891705    -0.861487463138     1.007825032230
         C            1.113142778584     0.666934108295     0.014834536862    12.000000000000
         H            0.822767778584     1.228606108295    -0.861504463138     1.007825032230
         H            1.408126778584     1.228623108295     0.889607536862     1.007825032230
         O           -1.762271821416    -0.000030991705    -0.082581363138    15.994914619570
         H           -0.822200821416     0.000061008295     0.120795636862     1.007825032230
         H           -2.180330821416    -0.000044991705     0.780219636862     1.007825032230

  Charge       = 0
  Multiplicity = 1
  Basis Set: AUG-CC-PVQZ
    Blend: AUG-CC-PVQZ
  Basis Set: (AUG-CC-PVQZ AUX)
    Blend: AUG-CC-PVQZ-JKFIT

    Orbital Energies [Eh]
    ---------------------

    Doubly Occupied:

       1A    -20.537052     2A    -11.245667     3A    -11.243951
       4A     -1.330302     5A     -1.055674     6A     -0.809811
       7A     -0.700846     8A     -0.658383     9A     -0.604029
      10A     -0.567819    11A     -0.524782    12A     -0.486153
      13A     -0.394435

  @DF-RHF Final Energy:  -154.12845530210481

   => Energetics <=

    Nuclear Repulsion Energy =             71.3973156337321484
    One-Electron Energy =                -350.7337326127736219
    Two-Electron Energy =                 125.2079616769366623
    Total Energy =                       -154.1284553021048112

  Dipole Moment: [D]
     X:     1.4557      Y:     0.0001      Z:     1.6628     Total:     2.2100

  Basis Set: (AUG-CC-PVQZ AUX)
    Blend: AUG-CC-PVQZ-RI
	 Reference Energy          =    -154.1284553021048112 [Eh]
	 Singles Energy            =      -0.0000000000000000 [Eh]
	 Same-Spin Energy          =      -0.1578906806675537 [Eh]
	 Opposite-Spin Energy      =      -0.5827039435650303 [Eh]
	 Correlation Energy        =      -0.7405946242325840 [Eh]
	 Total Energy              =    -154.8690499263373965 [Eh]

	 ================> DF-SCS-MP2 Energies <==================
	-----------------------------------------------------------
	 SCS Same-Spin Scale       =       0.3333333333333333 [-]
	 SCS Opposite-Spin Scale   =       1.2000000000000000 [-]
	 SCS Same-Spin Energy      =      -0.0526302268891846 [Eh]
	 SCS Opposite-Spin Energy  =      -0.6992447322780363 [Eh]
	 SCS Correlation Energy    =      -0.7518749591672209 [Eh]
	 SCS Total Energy          =    -154.8803302612720358 [Eh]
	-----------------------------------------------------------

*** Psi4 exiting successfully. Buy a developer a beer!
