                               Psi4 1.4a2.dev224

  ==> Input File <==

--------------------------------------------------------------------------
#Generated by lconvert.py for cbs job

memory 40 GB

molecule  {
0 1
  C        1.2912560    -0.6669060    -0.0146850
  H        1.5863150    -1.2285460     0.8600950
  H        1.0009540    -1.2286270    -0.8910160
  C        1.2911750     0.6669280    -0.0146940
  H        1.0008000     1.2286000    -0.8910330
  H        1.5861590     1.2286170     0.8600790
--
0 1
  O       -2.2513347    -0.0000220    -0.0755562
  H       -1.3112637     0.0000700     0.1278208
  H       -2.6693937    -0.0000360     0.7872448
units angstrom
no_reorient
symmetry c1
}

set {
scf_type DF
mp2_type DF
e_convergence 7
reference rhf
}

energy('mp2/aug-cc-pv[tq]z', bsse_type='cp')
--------------------------------------------------------------------------

    Molecular point group: c1
  Charge       = 0
  Multiplicity = 1
  Basis Set: AUG-CC-PVTZ
    Blend: AUG-CC-PVTZ
  Basis Set: (AUG-CC-PVTZ AUX)
    Blend: AUG-CC-PVTZ-JKFIT
  @DF-RHF Final Energy:   -76.06031212450182
    Total Energy =                        -76.0603121245018343
  Basis Set: (AUG-CC-PVTZ AUX)
    Blend: AUG-CC-PVTZ-RI
	 Reference Energy          =     -76.0603121245018201 [Eh]
	 Singles Energy            =      -0.0000000000000000 [Eh]
	 Same-Spin Energy          =      -0.0684052353309797 [Eh]
	 Opposite-Spin Energy      =      -0.2153582289239915 [Eh]
	 Correlation Energy        =      -0.2837634642549711 [Eh]
	 Total Energy              =     -76.3440755887567946 [Eh]
	 SCS Total Energy          =     -76.3415437443209299 [Eh]
    Molecular point group: c1
  Basis Set: AUG-CC-PVQZ
    Blend: AUG-CC-PVQZ
  Basis Set: (AUG-CC-PVQZ AUX)
    Blend: AUG-CC-PVQZ-JKFIT
  @DF-RHF Final Energy:   -76.06569091405021
    Total Energy =                        -76.0656909140502080
  Basis Set: (AUG-CC-PVQZ AUX)
  @DF-RHF Final Energy:   -76.06035953702784
    Total Energy =                        -76.0603595370278356
  @DF-RHF Final Energy:   -76.06570709067833
    Total Energy =                        -76.0657070906783304
  @DF-RHF Final Energy:   -78.06471824556954
    Total Energy =                        -78.0647182455695372
  @DF-RHF Final Energy:   -78.06938611212058
    Total Energy =                        -78.0693861121205828
  @DF-RHF Final Energy:   -78.06465725958000
    Total Energy =                        -78.0646572595800023
  @DF-RHF Final Energy:   -78.06936792161167
    Total Energy =                        -78.0693679216116720
  Multiplicity = 1
  @DF-RHF Final Energy:  -154.12706842333162
    Total Energy =                       -154.1270684233316217
	 Singles Energy            =      -0.0000000000000000 [Eh]
	 Same-Spin Energy          =      -0.1461883905382091 [Eh]
	 Opposite-Spin Energy      =      -0.5157389000428364 [Eh]
	 Correlation Energy        =      -0.6619272905810455 [Eh]
	 Total Energy              =    -154.7889957139126693 [Eh]
	 SCS Total Energy          =    -154.7946845668957678 [Eh]
    Molecular point group: c1

    Geometry (in Angstrom), charge = 0, multiplicity = 1:

       Center              X                  Y                   Z               Mass
    ------------   -----------------  -----------------  -----------------  -----------------
         C            1.374176706919    -0.666905798493     0.000544533532    12.000000000000
         H            1.669235706919    -1.228545798493     0.875324533532     1.007825032230
         H            1.083874706919    -1.228626798493    -0.875786466468     1.007825032230
         C            1.374095706919     0.666928201507     0.000535533532    12.000000000000
         H            1.083720706919     1.228600201507    -0.875803466468     1.007825032230
         H            1.669079706919     1.228617201507     0.875308533532     1.007825032230
         O           -2.168413993081    -0.000021798493    -0.060326666468    15.994914619570
         H           -1.228342993081     0.000070201507     0.143050333532     1.007825032230
         H           -2.586472993081    -0.000035798493     0.802474333532     1.007825032230

  Charge       = 0
  Multiplicity = 1
  Basis Set: AUG-CC-PVQZ
    Blend: AUG-CC-PVQZ
  Basis Set: (AUG-CC-PVQZ AUX)
    Blend: AUG-CC-PVQZ-JKFIT

    Orbital Energies [Eh]
    ---------------------

    Doubly Occupied:

       1A    -20.552497     2A    -11.241840     3A    -11.240127
       4A     -1.340060     5A     -1.046946     6A     -0.804728
       7A     -0.703571     8A     -0.656180     9A     -0.598862
      10A     -0.575417    11A     -0.519850    12A     -0.498542
      13A     -0.391058

  @DF-RHF Final Energy:  -154.13708199402387

   => Energetics <=

    Nuclear Repulsion Energy =             66.1879736295301910
    One-Electron Energy =                -340.3107581452212003
    Two-Electron Energy =                 119.9857025216671502
    Total Energy =                       -154.1370819940238732

  Dipole Moment: [D]
     X:     1.2328      Y:     0.0001      Z:     1.6974     Total:     2.0979

  Basis Set: (AUG-CC-PVQZ AUX)
    Blend: AUG-CC-PVQZ-RI
	 Reference Energy          =    -154.1370819940238732 [Eh]
	 Singles Energy            =      -0.0000000000000000 [Eh]
	 Same-Spin Energy          =      -0.1553026249556440 [Eh]
	 Opposite-Spin Energy      =      -0.5794427128333477 [Eh]
	 Correlation Energy        =      -0.7347453377889916 [Eh]
	 Total Energy              =    -154.8718273318128524 [Eh]

	 ================> DF-SCS-MP2 Energies <==================
	-----------------------------------------------------------
	 SCS Same-Spin Scale       =       0.3333333333333333 [-]
	 SCS Opposite-Spin Scale   =       1.2000000000000000 [-]
	 SCS Same-Spin Energy      =      -0.0517675416518813 [Eh]
	 SCS Opposite-Spin Energy  =      -0.6953312554000172 [Eh]
	 SCS Correlation Energy    =      -0.7470987970518985 [Eh]
	 SCS Total Energy          =    -154.8841807910757780 [Eh]
	-----------------------------------------------------------

*** Psi4 exiting successfully. Buy a developer a beer!
