                               Psi4 1.4a2.dev224

  ==> Input File <==

--------------------------------------------------------------------------
#Generated by lconvert.py for cbs job

memory 20 GB

molecule  {
0 1
  C       1.291260   -0.666910   -0.014690
  H       1.586310   -1.228550    0.860100
  H       1.000950   -1.228630   -0.891020
  C       1.291170    0.666930   -0.014690
  H       1.000800    1.228600   -0.891030
  H       1.586160    1.228620    0.860080
--
0 1
  O      -2.928930   -0.000010   -0.038430
  H      -1.988850    0.000090    0.164950
  H      -3.346980   -0.000020    0.824370
units angstrom
no_reorient
symmetry c1
}

set {
scf_type DF
mp2_type DF
e_convergence 7
reference rhf
}

energy('mp2/aug-cc-pv[tq]z', bsse_type='cp')
--------------------------------------------------------------------------

    Molecular point group: c1
  Charge       = 0
  Multiplicity = 1
  Basis Set: AUG-CC-PVTZ
    Blend: AUG-CC-PVTZ
  Basis Set: (AUG-CC-PVTZ AUX)
    Blend: AUG-CC-PVTZ-JKFIT
  @DF-RHF Final Energy:   -76.06031185378578
    Total Energy =                        -76.0603118537857767
  Basis Set: (AUG-CC-PVTZ AUX)
    Blend: AUG-CC-PVTZ-RI
	 Reference Energy          =     -76.0603118537857767 [Eh]
	 Singles Energy            =      -0.0000000000000000 [Eh]
	 Same-Spin Energy          =      -0.0684052862604119 [Eh]
	 Opposite-Spin Energy      =      -0.2153583816707200 [Eh]
	 Correlation Energy        =      -0.2837636679311318 [Eh]
	 Total Energy              =     -76.3440755217169027 [Eh]
	 SCS Total Energy          =     -76.3415436738774389 [Eh]
    Molecular point group: c1
  Basis Set: AUG-CC-PVQZ
    Blend: AUG-CC-PVQZ
  Basis Set: (AUG-CC-PVQZ AUX)
    Blend: AUG-CC-PVQZ-JKFIT
  @DF-RHF Final Energy:   -76.06569063247279
    Total Energy =                        -76.0656906324727942
  Basis Set: (AUG-CC-PVQZ AUX)
  @DF-RHF Final Energy:   -76.06033194049415
    Total Energy =                        -76.0603319404941516
  @DF-RHF Final Energy:   -76.06569906060196
    Total Energy =                        -76.0656990606019576
  @DF-RHF Final Energy:   -78.06468843119427
    Total Energy =                        -78.0646884311942699
  @DF-RHF Final Energy:   -78.06937810507489
    Total Energy =                        -78.0693781050748896
  @DF-RHF Final Energy:   -78.06465694140445
    Total Energy =                        -78.0646569414044507
  @DF-RHF Final Energy:   -78.06936758929773
    Total Energy =                        -78.0693675892977126
  Multiplicity = 1
  @DF-RHF Final Energy:  -154.12667236088299
    Total Energy =                       -154.1266723608829921
	 Singles Energy            =      -0.0000000000000000 [Eh]
	 Same-Spin Energy          =      -0.1453740172993437 [Eh]
	 Opposite-Spin Energy      =      -0.5144942235131179 [Eh]
	 Correlation Energy        =      -0.6598682408124616 [Eh]
	 Total Energy              =    -154.7865406016954637 [Eh]
	 SCS Total Energy          =    -154.7925234348651884 [Eh]
    Molecular point group: c1

    Geometry (in Angstrom), charge = 0, multiplicity = 1:

       Center              X                  Y                   Z               Mass
    ------------   -----------------  -----------------  -----------------  -----------------
         C            1.639241124250    -0.666914146479    -0.013983311797    12.000000000000
         H            1.934291124250    -1.228554146479     0.860806688203     1.007825032230
         H            1.348931124250    -1.228634146479    -0.890313311797     1.007825032230
         C            1.639151124250     0.666925853521    -0.013983311797    12.000000000000
         H            1.348781124250     1.228595853521    -0.890323311797     1.007825032230
         H            1.934141124250     1.228615853521     0.860786688203     1.007825032230
         O           -2.580948875750    -0.000014146479    -0.037723311797    15.994914619570
         H           -1.640868875750     0.000085853521     0.165656688203     1.007825032230
         H           -2.998998875750    -0.000024146479     0.825076688203     1.007825032230

  Charge       = 0
  Multiplicity = 1
  Basis Set: AUG-CC-PVQZ
    Blend: AUG-CC-PVQZ
  Basis Set: (AUG-CC-PVQZ AUX)
    Blend: AUG-CC-PVQZ-JKFIT

    Orbital Energies [Eh]
    ---------------------

    Doubly Occupied:

       1A    -20.558848     2A    -11.238576     3A    -11.236864
       4A     -1.345408     5A     -1.042705     6A     -0.801449
       7A     -0.707963     8A     -0.652980     9A     -0.595566
      10A     -0.580027    11A     -0.516727    12A     -0.504111
      13A     -0.386407

  @DF-RHF Final Energy:  -154.13672731638962

   => Energetics <=

    Nuclear Repulsion Energy =             62.4972465686121623
    One-Electron Energy =                -332.9326884852747526
    Two-Electron Energy =                 116.2987146002729304
    Total Energy =                       -154.1367273163896243

  Dipole Moment: [D]
     X:     1.0902      Y:     0.0001      Z:     1.7276     Total:     2.0428

  Basis Set: (AUG-CC-PVQZ AUX)
    Blend: AUG-CC-PVQZ-RI
	 Reference Energy          =    -154.1367273163896243 [Eh]
	 Singles Energy            =      -0.0000000000000000 [Eh]
	 Same-Spin Energy          =      -0.1545041334490746 [Eh]
	 Opposite-Spin Energy      =      -0.5785460497674327 [Eh]
	 Correlation Energy        =      -0.7330501832165074 [Eh]
	 Total Energy              =    -154.8697774996061298 [Eh]

	 ================> DF-SCS-MP2 Energies <==================
	-----------------------------------------------------------
	 SCS Same-Spin Scale       =       0.3333333333333333 [-]
	 SCS Opposite-Spin Scale   =       1.2000000000000000 [-]
	 SCS Same-Spin Energy      =      -0.0515013778163582 [Eh]
	 SCS Opposite-Spin Energy  =      -0.6942552597209193 [Eh]
	 SCS Correlation Energy    =      -0.7457566375372775 [Eh]
	 SCS Total Energy          =    -154.8824839539269078 [Eh]
	-----------------------------------------------------------

*** Psi4 exiting successfully. Buy a developer a beer!
