                               Psi4 1.4a2.dev224

  ==> Input File <==

--------------------------------------------------------------------------
#Generated by lconvert.py for cbs job

memory 40 GB

molecule  {
0 1
  C        1.2912560    -0.6669060    -0.0146850
  H        1.5863150    -1.2285460     0.8600950
  H        1.0009540    -1.2286270    -0.8910160
  C        1.2911750     0.6669280    -0.0146940
  H        1.0008000     1.2286000    -0.8910330
  H        1.5861590     1.2286170     0.8600790
--
0 1
  O       -1.8530540    -0.0000310    -0.0973802
  H       -0.9129830     0.0000610     0.1059968
  H       -2.2711130    -0.0000450     0.7654208
units angstrom
no_reorient
symmetry c1
}

set {
scf_type DF
mp2_type DF
e_convergence 7
reference rhf
}

energy('mp2/aug-cc-pv[tq]z', bsse_type='cp')
--------------------------------------------------------------------------

    Molecular point group: c1
  Charge       = 0
  Multiplicity = 1
  Basis Set: AUG-CC-PVTZ
    Blend: AUG-CC-PVTZ
  Basis Set: (AUG-CC-PVTZ AUX)
    Blend: AUG-CC-PVTZ-JKFIT
  @DF-RHF Final Energy:   -76.06031212450655
    Total Energy =                        -76.0603121245065523
  Basis Set: (AUG-CC-PVTZ AUX)
    Blend: AUG-CC-PVTZ-RI
	 Reference Energy          =     -76.0603121245065523 [Eh]
	 Singles Energy            =      -0.0000000000000000 [Eh]
	 Same-Spin Energy          =      -0.0684052353309783 [Eh]
	 Opposite-Spin Energy      =      -0.2153582289239728 [Eh]
	 Correlation Energy        =      -0.2837634642549511 [Eh]
	 Total Energy              =     -76.3440755887614984 [Eh]
	 SCS Total Energy          =     -76.3415437443256479 [Eh]
    Molecular point group: c1
  Basis Set: AUG-CC-PVQZ
    Blend: AUG-CC-PVQZ
  Basis Set: (AUG-CC-PVQZ AUX)
    Blend: AUG-CC-PVQZ-JKFIT
  @DF-RHF Final Energy:   -76.06569091405191
    Total Energy =                        -76.0656909140519133
  Basis Set: (AUG-CC-PVQZ AUX)
  @DF-RHF Final Energy:   -76.06038227274155
    Total Energy =                        -76.0603822727415491
  @DF-RHF Final Energy:   -76.06571435026507
    Total Energy =                        -76.0657143502650541
  @DF-RHF Final Energy:   -78.06473784779622
    Total Energy =                        -78.0647378477962093
  @DF-RHF Final Energy:   -78.06939279834513
    Total Energy =                        -78.0693927983451488
  @DF-RHF Final Energy:   -78.06465725955658
    Total Energy =                        -78.0646572595565829
  @DF-RHF Final Energy:   -78.06936792181047
    Total Energy =                        -78.0693679218104677
  Multiplicity = 1
  @DF-RHF Final Energy:  -154.12465340591390
    Total Energy =                       -154.1246534059139037
	 Singles Energy            =      -0.0000000000000000 [Eh]
	 Same-Spin Energy          =      -0.1473563060953446 [Eh]
	 Opposite-Spin Energy      =      -0.5173406395007608 [Eh]
	 Correlation Energy        =      -0.6646969455961055 [Eh]
	 Total Energy              =    -154.7893503515099951 [Eh]
	 SCS Total Energy          =    -154.7945809420132548 [Eh]
    Molecular point group: c1

    Geometry (in Angstrom), charge = 0, multiplicity = 1:

       Center              X                  Y                   Z               Mass
    ------------   -----------------  -----------------  -----------------  -----------------
         C            1.218378058474    -0.666902277891     0.009081602247    12.000000000000
         H            1.513437058474    -1.228542277891     0.883861602247     1.007825032230
         H            0.928076058474    -1.228623277891    -0.867249397753     1.007825032230
         C            1.218297058474     0.666931722109     0.009072602247    12.000000000000
         H            0.927922058474     1.228603722109    -0.867266397753     1.007825032230
         H            1.513281058474     1.228620722109     0.883845602247     1.007825032230
         O           -1.925931941526    -0.000027277891    -0.073613597753    15.994914619570
         H           -0.985860941526     0.000064722109     0.129763402247     1.007825032230
         H           -2.343990941526    -0.000041277891     0.789187402247     1.007825032230

  Charge       = 0
  Multiplicity = 1
  Basis Set: AUG-CC-PVQZ
    Blend: AUG-CC-PVQZ
  Basis Set: (AUG-CC-PVQZ AUX)
    Blend: AUG-CC-PVQZ-JKFIT

    Orbital Energies [Eh]
    ---------------------

    Doubly Occupied:

       1A    -20.545024     2A    -11.244078     3A    -11.242364
       4A     -1.334778     5A     -1.051130     6A     -0.807426
       7A     -0.700917     8A     -0.658039     9A     -0.601543
      10A     -0.571225    11A     -0.522445    12A     -0.492376
      13A     -0.393913

  @DF-RHF Final Energy:  -154.13462789766049

   => Energetics <=

    Nuclear Repulsion Energy =             69.0518398853586461
    One-Electron Energy =                -346.0424208510301582
    Two-Electron Energy =                 122.8559530680109901
    Total Energy =                       -154.1346278976604935

  Dipole Moment: [D]
     X:     1.3546      Y:     0.0001      Z:     1.6766     Total:     2.1554

  Basis Set: (AUG-CC-PVQZ AUX)
    Blend: AUG-CC-PVQZ-RI
	 Reference Energy          =    -154.1346278976604935 [Eh]
	 Singles Energy            =      -0.0000000000000000 [Eh]
	 Same-Spin Energy          =      -0.1564797592804507 [Eh]
	 Opposite-Spin Energy      =      -0.5808980724154105 [Eh]
	 Correlation Energy        =      -0.7373778316958612 [Eh]
	 Total Energy              =    -154.8720057293563457 [Eh]

	 ================> DF-SCS-MP2 Energies <==================
	-----------------------------------------------------------
	 SCS Same-Spin Scale       =       0.3333333333333333 [-]
	 SCS Opposite-Spin Scale   =       1.2000000000000000 [-]
	 SCS Same-Spin Energy      =      -0.0521599197601502 [Eh]
	 SCS Opposite-Spin Energy  =      -0.6970776868984926 [Eh]
	 SCS Correlation Energy    =      -0.7492376066586428 [Eh]
	 SCS Total Energy          =    -154.8838655043191466 [Eh]
	-----------------------------------------------------------

*** Psi4 exiting successfully. Buy a developer a beer!
