                               Psi4 1.4a2.dev224

  ==> Input File <==

--------------------------------------------------------------------------
#Generated by lconvert.py for cbs job

memory 40 GB

molecule  {
0 1
  C        1.2912560    -0.6669060    -0.0146850
  H        1.5863150    -1.2285460     0.8600950
  H        1.0009540    -1.2286270    -0.8910160
  C        1.2911750     0.6669280    -0.0146940
  H        1.0008000     1.2286000    -0.8910330
  H        1.5861590     1.2286170     0.8600790
--
0 1
  O       -1.9863513    -0.0000280    -0.0900761
  H       -1.0462803     0.0000640     0.1133009
  H       -2.4044103    -0.0000420     0.7727249
units angstrom
no_reorient
symmetry c1
}

set {
scf_type DF
mp2_type DF
e_convergence 7
reference rhf
}

energy('mp2/aug-cc-pv[tq]z', bsse_type='cp')
--------------------------------------------------------------------------

    Molecular point group: c1
  Charge       = 0
  Multiplicity = 1
  Basis Set: AUG-CC-PVTZ
    Blend: AUG-CC-PVTZ
  Basis Set: (AUG-CC-PVTZ AUX)
    Blend: AUG-CC-PVTZ-JKFIT
  @DF-RHF Final Energy:   -76.06031212450596
    Total Energy =                        -76.0603121245059555
  Basis Set: (AUG-CC-PVTZ AUX)
    Blend: AUG-CC-PVTZ-RI
	 Reference Energy          =     -76.0603121245059555 [Eh]
	 Singles Energy            =      -0.0000000000000000 [Eh]
	 Same-Spin Energy          =      -0.0684052353309584 [Eh]
	 Opposite-Spin Energy      =      -0.2153582289238865 [Eh]
	 Correlation Energy        =      -0.2837634642548449 [Eh]
	 Total Energy              =     -76.3440755887608020 [Eh]
	 SCS Total Energy          =     -76.3415437443249374 [Eh]
    Molecular point group: c1
  Basis Set: AUG-CC-PVQZ
    Blend: AUG-CC-PVQZ
  Basis Set: (AUG-CC-PVQZ AUX)
    Blend: AUG-CC-PVQZ-JKFIT
  @DF-RHF Final Energy:   -76.06569091406440
    Total Energy =                        -76.0656909140644188
  Basis Set: (AUG-CC-PVQZ AUX)
  @DF-RHF Final Energy:   -76.06037423381062
    Total Energy =                        -76.0603742338106201
  @DF-RHF Final Energy:   -76.06571162737322
    Total Energy =                        -76.0657116273732186
  @DF-RHF Final Energy:   -78.06473262748683
    Total Energy =                        -78.0647326274868334
  @DF-RHF Final Energy:   -78.06939077007961
    Total Energy =                        -78.0693907700796075
  @DF-RHF Final Energy:   -78.06465725948854
    Total Energy =                        -78.0646572594885413
  @DF-RHF Final Energy:   -78.06936792155469
    Total Energy =                        -78.0693679215546865
  Multiplicity = 1
  @DF-RHF Final Energy:  -154.12600016254862
    Total Energy =                       -154.1260001625486211
	 Singles Energy            =      -0.0000000000000000 [Eh]
	 Same-Spin Energy          =      -0.1468727028282852 [Eh]
	 Opposite-Spin Energy      =      -0.5166801015809332 [Eh]
	 Correlation Energy        =      -0.6635528044092185 [Eh]
	 Total Energy              =    -154.7895529669578423 [Eh]
	 SCS Total Energy          =    -154.7949738520551648 [Eh]
    Molecular point group: c1

    Geometry (in Angstrom), charge = 0, multiplicity = 1:

       Center              X                  Y                   Z               Mass
    ------------   -----------------  -----------------  -----------------  -----------------
         C            1.270521029955    -0.666903451425     0.006224399002    12.000000000000
         H            1.565580029955    -1.228543451425     0.881004399002     1.007825032230
         H            0.980219029955    -1.228624451425    -0.870106600998     1.007825032230
         C            1.270440029955     0.666930548575     0.006215399002    12.000000000000
         H            0.980065029955     1.228602548575    -0.870123600998     1.007825032230
         H            1.565424029955     1.228619548575     0.880988399002     1.007825032230
         O           -2.007086270045    -0.000025451425    -0.069166700998    15.994914619570
         H           -1.067015270045     0.000066548575     0.134210299002     1.007825032230
         H           -2.425145270045    -0.000039451425     0.793634299002     1.007825032230

  Charge       = 0
  Multiplicity = 1
  Basis Set: AUG-CC-PVQZ
    Blend: AUG-CC-PVQZ
  Basis Set: (AUG-CC-PVQZ AUX)
    Blend: AUG-CC-PVQZ-JKFIT

    Orbital Energies [Eh]
    ---------------------

    Doubly Occupied:

       1A    -20.547996     2A    -11.243313     3A    -11.241600
       4A     -1.336752     5A     -1.049492     6A     -0.806435
       7A     -0.701654     8A     -0.657500     9A     -0.600552
      10A     -0.572755    11A     -0.521487    12A     -0.494784
      13A     -0.393076

  @DF-RHF Final Energy:  -154.13598932777452

   => Energetics <=

    Nuclear Repulsion Energy =             68.0210898988249824
    One-Electron Energy =                -343.9793641080583484
    Two-Electron Energy =                 121.8222848814588417
    Total Energy =                       -154.1359893277745243

  Dipole Moment: [D]
     X:     1.3102      Y:     0.0001      Z:     1.6836     Total:     2.1334

  Basis Set: (AUG-CC-PVQZ AUX)
    Blend: AUG-CC-PVQZ-RI
	 Reference Energy          =    -154.1359893277745243 [Eh]
	 Singles Energy            =      -0.0000000000000000 [Eh]
	 Same-Spin Energy          =      -0.1559899491551117 [Eh]
	 Opposite-Spin Energy      =      -0.5802777988329672 [Eh]
	 Correlation Energy        =      -0.7362677479880788 [Eh]
	 Total Energy              =    -154.8722570757626045 [Eh]

	 ================> DF-SCS-MP2 Energies <==================
	-----------------------------------------------------------
	 SCS Same-Spin Scale       =       0.3333333333333333 [-]
	 SCS Opposite-Spin Scale   =       1.2000000000000000 [-]
	 SCS Same-Spin Energy      =      -0.0519966497183705 [Eh]
	 SCS Opposite-Spin Energy  =      -0.6963333585995606 [Eh]
	 SCS Correlation Energy    =      -0.7483300083179312 [Eh]
	 SCS Total Energy          =    -154.8843193360924602 [Eh]
	-----------------------------------------------------------

*** Psi4 exiting successfully. Buy a developer a beer!
