                               Psi4 1.4a2.dev224

  ==> Input File <==

--------------------------------------------------------------------------
#Generated by lconvert.py for cbs job

memory 40 GB

molecule  {
0 1
  C        1.2912560    -0.6669060    -0.0146850
  H        1.5863150    -1.2285460     0.8600950
  H        1.0009540    -1.2286270    -0.8910160
  C        1.2911750     0.6669280    -0.0146940
  H        1.0008000     1.2286000    -0.8910330
  H        1.5861590     1.2286170     0.8600790
--
0 1
  O       -2.1190830    -0.0000250    -0.0828030
  H       -1.1790120     0.0000670     0.1205740
  H       -2.5371420    -0.0000390     0.7799980
units angstrom
no_reorient
symmetry c1
}

set {
scf_type DF
mp2_type DF
e_convergence 7
reference rhf
}

energy('mp2/aug-cc-pv[tq]z', bsse_type='cp')
--------------------------------------------------------------------------

    Molecular point group: c1
  Charge       = 0
  Multiplicity = 1
  Basis Set: AUG-CC-PVTZ
    Blend: AUG-CC-PVTZ
  Basis Set: (AUG-CC-PVTZ AUX)
    Blend: AUG-CC-PVTZ-JKFIT
  @DF-RHF Final Energy:   -76.06031212450938
    Total Energy =                        -76.0603121245093803
  Basis Set: (AUG-CC-PVTZ AUX)
    Blend: AUG-CC-PVTZ-RI
	 Reference Energy          =     -76.0603121245093803 [Eh]
	 Singles Energy            =      -0.0000000000000000 [Eh]
	 Same-Spin Energy          =      -0.0684052353309717 [Eh]
	 Opposite-Spin Energy      =      -0.2153582289239928 [Eh]
	 Correlation Energy        =      -0.2837634642549645 [Eh]
	 Total Energy              =     -76.3440755887643405 [Eh]
	 SCS Total Energy          =     -76.3415437443284901 [Eh]
    Molecular point group: c1
  Basis Set: AUG-CC-PVQZ
    Blend: AUG-CC-PVQZ
  Basis Set: (AUG-CC-PVQZ AUX)
    Blend: AUG-CC-PVQZ-JKFIT
  @DF-RHF Final Energy:   -76.06569091404270
    Total Energy =                        -76.0656909140427047
  Basis Set: (AUG-CC-PVQZ AUX)
  @DF-RHF Final Energy:   -76.06036669819240
    Total Energy =                        -76.0603666981923965
  @DF-RHF Final Energy:   -76.06570919133914
    Total Energy =                        -76.0657091913391383
  @DF-RHF Final Energy:   -78.06472606587327
    Total Energy =                        -78.0647260658732733
  @DF-RHF Final Energy:   -78.06938850017737
    Total Energy =                        -78.0693885001773680
  @DF-RHF Final Energy:   -78.06465725955805
    Total Energy =                        -78.0646572595580608
  @DF-RHF Final Energy:   -78.06936792182097
    Total Energy =                        -78.0693679218209695
  Multiplicity = 1
  @DF-RHF Final Energy:  -154.12672866524034
    Total Energy =                       -154.1267286652403357
	 Singles Energy            =      -0.0000000000000000 [Eh]
	 Same-Spin Energy          =      -0.1464906321036295 [Eh]
	 Opposite-Spin Energy      =      -0.5161604443886592 [Eh]
	 Correlation Energy        =      -0.6626510764922887 [Eh]
	 Total Energy              =    -154.7893797417326311 [Eh]
	 SCS Total Energy          =    -154.7949514092079255 [Eh]
    Molecular point group: c1

    Geometry (in Angstrom), charge = 0, multiplicity = 1:

       Center              X                  Y                   Z               Mass
    ------------   -----------------  -----------------  -----------------  -----------------
         C            1.322442751157    -0.666904624959     0.003379322276    12.000000000000
         H            1.617501751157    -1.228544624959     0.878159322276     1.007825032230
         H            1.032140751157    -1.228625624959    -0.872951677724     1.007825032230
         C            1.322361751157     0.666929375041     0.003370322276    12.000000000000
         H            1.031986751157     1.228601375041    -0.872968677724     1.007825032230
         H            1.617345751157     1.228618375041     0.878143322276     1.007825032230
         O           -2.087896248843    -0.000023624959    -0.064738677724    15.994914619570
         H           -1.147825248843     0.000068375041     0.138638322276     1.007825032230
         H           -2.505955248843    -0.000037624959     0.798062322276     1.007825032230

  Charge       = 0
  Multiplicity = 1
  Basis Set: AUG-CC-PVQZ
    Blend: AUG-CC-PVQZ
  Basis Set: (AUG-CC-PVQZ AUX)
    Blend: AUG-CC-PVQZ-JKFIT

    Orbital Energies [Eh]
    ---------------------

    Doubly Occupied:

       1A    -20.550455     2A    -11.242566     3A    -11.240853
       4A     -1.338511     5A     -1.048120     6A     -0.805542
       7A     -0.702579     8A     -0.656859     9A     -0.599667
      10A     -0.574154    11A     -0.520628    12A     -0.496819
      13A     -0.392092

  @DF-RHF Final Energy:  -154.13673034094370

   => Energetics <=

    Nuclear Repulsion Energy =             67.0695068704863502
    One-Electron Energy =                -342.0747830330524266
    Two-Electron Energy =                 120.8685458216223907
    Total Energy =                       -154.1367303409437000

  Dipole Moment: [D]
     X:     1.2697      Y:     0.0001      Z:     1.6906     Total:     2.1143

  Basis Set: (AUG-CC-PVQZ AUX)
    Blend: AUG-CC-PVQZ-RI
	 Reference Energy          =    -154.1367303409437000 [Eh]
	 Singles Energy            =      -0.0000000000000000 [Eh]
	 Same-Spin Energy          =      -0.1556050341319466 [Eh]
	 Opposite-Spin Energy      =      -0.5798031617284565 [Eh]
	 Correlation Energy        =      -0.7354081958604031 [Eh]
	 Total Energy              =    -154.8721385368041012 [Eh]

	 ================> DF-SCS-MP2 Energies <==================
	-----------------------------------------------------------
	 SCS Same-Spin Scale       =       0.3333333333333333 [-]
	 SCS Opposite-Spin Scale   =       1.2000000000000000 [-]
	 SCS Same-Spin Energy      =      -0.0518683447106489 [Eh]
	 SCS Opposite-Spin Energy  =      -0.6957637940741478 [Eh]
	 SCS Correlation Energy    =      -0.7476321387847966 [Eh]
	 SCS Total Energy          =    -154.8843624797285088 [Eh]
	-----------------------------------------------------------

*** Psi4 exiting successfully. Buy a developer a beer!
