                               Psi4 1.4a2.dev224

  ==> Input File <==

--------------------------------------------------------------------------
#Generated by lconvert.py for cbs job

memory 40 GB

molecule  {
0 1
  O        1.5849360     0.1046930     0.0000050
  H        1.9493730    -0.7811500     0.0000520
  H        0.6265030    -0.0404250    -0.0003230
--
0 1
  N       -1.5130599    -0.0249270    -0.0000007
  H       -1.9843700    -0.3792780     0.8219313
  H       -1.7042579     0.9685160    -0.0258827
  H       -1.9941540    -0.4233360    -0.7956597
units angstrom
no_reorient
symmetry c1
}

set {
scf_type DF
mp2_type DF
e_convergence 7
reference rhf
}

energy('mp2/aug-cc-pv[tq]z', bsse_type='cp')
--------------------------------------------------------------------------

    Molecular point group: c1
  Charge       = 0
  Multiplicity = 1
  Basis Set: AUG-CC-PVTZ
    Blend: AUG-CC-PVTZ
  Basis Set: (AUG-CC-PVTZ AUX)
    Blend: AUG-CC-PVTZ-JKFIT
  @DF-RHF Final Energy:   -56.22026229244820
    Total Energy =                        -56.2202622924481972
  Basis Set: (AUG-CC-PVTZ AUX)
    Blend: AUG-CC-PVTZ-RI
	 Reference Energy          =     -56.2202622924481972 [Eh]
	 Singles Energy            =      -0.0000000000000000 [Eh]
	 Same-Spin Energy          =      -0.0560716362618580 [Eh]
	 Opposite-Spin Energy      =      -0.2010623799355899 [Eh]
	 Correlation Energy        =      -0.2571340161974479 [Eh]
	 Total Energy              =     -56.4773963086456448 [Eh]
	 SCS Total Energy          =     -56.4802276937915266 [Eh]
    Molecular point group: c1
  Basis Set: AUG-CC-PVQZ
    Blend: AUG-CC-PVQZ
  Basis Set: (AUG-CC-PVQZ AUX)
    Blend: AUG-CC-PVQZ-JKFIT
  @DF-RHF Final Energy:   -56.22391379748102
    Total Energy =                        -56.2239137974810177
  Basis Set: (AUG-CC-PVQZ AUX)
  @DF-RHF Final Energy:   -56.22029427284190
    Total Energy =                        -56.2202942728418975
  @DF-RHF Final Energy:   -56.22392906605619
    Total Energy =                        -56.2239290660561863
  @DF-RHF Final Energy:   -76.06003841712365
    Total Energy =                        -76.0600384171236499
  @DF-RHF Final Energy:   -76.06537104767655
    Total Energy =                        -76.0653710476765355
  @DF-RHF Final Energy:   -76.05999197302025
    Total Energy =                        -76.0599919730202458
  @DF-RHF Final Energy:   -76.06535411664026
    Total Energy =                        -76.0653541166402647
  Multiplicity = 1
  @DF-RHF Final Energy:  -132.28783355173974
    Total Energy =                       -132.2878335517397375
	 Singles Energy            =      -0.0000000000000000 [Eh]
	 Same-Spin Energy          =      -0.1259975785718450 [Eh]
	 Opposite-Spin Energy      =      -0.4184090043111741 [Eh]
	 Correlation Energy        =      -0.5444065828830190 [Eh]
	 Total Energy              =    -132.8322401346227650 [Eh]
	 SCS Total Energy          =    -132.8319235497704369 [Eh]
    Molecular point group: c1

    Geometry (in Angstrom), charge = 0, multiplicity = 1:

       Center              X                  Y                   Z               Mass
    ------------   -----------------  -----------------  -----------------  -----------------
         O            1.555475562357     0.085721765318    -0.000000394137    15.994914619570
         H            1.919912562357    -0.800121234682     0.000046605863     1.007825032230
         H            0.597042562357    -0.059396234682    -0.000328394137     1.007825032230
         N           -1.542520337643    -0.043898234682    -0.000006094137    14.003074004430
         H           -2.013830437643    -0.398249234682     0.821925905863     1.007825032230
         H           -1.733718337643     0.949544765318    -0.025888094137     1.007825032230
         H           -2.023614437643    -0.442307234682    -0.795665094137     1.007825032230

  Charge       = 0
  Multiplicity = 1
  Basis Set: AUG-CC-PVQZ
    Blend: AUG-CC-PVQZ
  Basis Set: (AUG-CC-PVQZ AUX)
    Blend: AUG-CC-PVQZ-JKFIT

    Orbital Energies [Eh]
    ---------------------

    Doubly Occupied:

       1A    -20.529104     2A    -15.561367     3A     -1.316391
       4A     -1.165628     5A     -0.682237     6A     -0.649560
       7A     -0.648380     8A     -0.555998     9A     -0.476437
      10A     -0.456063

  @DF-RHF Final Energy:  -132.29682063763713

   => Energetics <=

    Nuclear Repulsion Energy =             37.9529324449122925
    One-Electron Energy =                -256.4171766108652264
    Two-Electron Energy =                  86.1674235283158225
    Total Energy =                       -132.2968206376371256

  Dipole Moment: [D]
     X:    -3.2297      Y:    -1.3589      Z:     0.0002     Total:     3.5040

  Basis Set: (AUG-CC-PVQZ AUX)
    Blend: AUG-CC-PVQZ-RI
	 Reference Energy          =    -132.2968206376371256 [Eh]
	 Singles Energy            =      -0.0000000000000000 [Eh]
	 Same-Spin Energy          =      -0.1336288092117229 [Eh]
	 Opposite-Spin Energy      =      -0.4705692092425910 [Eh]
	 Correlation Energy        =      -0.6041980184543139 [Eh]
	 Total Energy              =    -132.9010186560914519 [Eh]

	 ================> DF-SCS-MP2 Energies <==================
	-----------------------------------------------------------
	 SCS Same-Spin Scale       =       0.3333333333333333 [-]
	 SCS Opposite-Spin Scale   =       1.2000000000000000 [-]
	 SCS Same-Spin Energy      =      -0.0445429364039076 [Eh]
	 SCS Opposite-Spin Energy  =      -0.5646830510911092 [Eh]
	 SCS Correlation Energy    =      -0.6092259874950168 [Eh]
	 SCS Total Energy          =    -132.9060466251321486 [Eh]
	-----------------------------------------------------------

*** Psi4 exiting successfully. Buy a developer a beer!
