                               Psi4 1.4a2.dev224

  ==> Input File <==

--------------------------------------------------------------------------
#Generated by lconvert.py for cbs job

memory 40 GB

molecule  {
0 1
  O        1.5849360     0.1046930     0.0000050
  H        1.9493730    -0.7811500     0.0000520
  H        0.6265030    -0.0404250    -0.0003230
--
0 1
  N       -1.6149439    -0.0241890     0.0000147
  H       -2.0862539    -0.3785400     0.8219467
  H       -1.8061419     0.9692540    -0.0258673
  H       -2.0960379    -0.4225980    -0.7956443
units angstrom
no_reorient
symmetry c1
}

set {
scf_type DF
mp2_type DF
e_convergence 7
reference rhf
}

energy('mp2/aug-cc-pv[tq]z', bsse_type='cp')
--------------------------------------------------------------------------

    Molecular point group: c1
  Charge       = 0
  Multiplicity = 1
  Basis Set: AUG-CC-PVTZ
    Blend: AUG-CC-PVTZ
  Basis Set: (AUG-CC-PVTZ AUX)
    Blend: AUG-CC-PVTZ-JKFIT
  @DF-RHF Final Energy:   -56.22026229478917
    Total Energy =                        -56.2202622947891655
  Basis Set: (AUG-CC-PVTZ AUX)
    Blend: AUG-CC-PVTZ-RI
	 Reference Energy          =     -56.2202622947891655 [Eh]
	 Singles Energy            =      -0.0000000000000000 [Eh]
	 Same-Spin Energy          =      -0.0560716359272938 [Eh]
	 Opposite-Spin Energy      =      -0.2010623783725914 [Eh]
	 Correlation Energy        =      -0.2571340142998852 [Eh]
	 Total Energy              =     -56.4773963090890518 [Eh]
	 SCS Total Energy          =     -56.4802276941453698 [Eh]
    Molecular point group: c1
  Basis Set: AUG-CC-PVQZ
    Blend: AUG-CC-PVQZ
  Basis Set: (AUG-CC-PVQZ AUX)
    Blend: AUG-CC-PVQZ-JKFIT
  @DF-RHF Final Energy:   -56.22391379988148
    Total Energy =                        -56.2239137998814797
  Basis Set: (AUG-CC-PVQZ AUX)
  @DF-RHF Final Energy:   -56.22028934907311
    Total Energy =                        -56.2202893490731128
  @DF-RHF Final Energy:   -56.22392742282348
    Total Energy =                        -56.2239274228234791
  @DF-RHF Final Energy:   -76.06003305190430
    Total Energy =                        -76.0600330519042984
  @DF-RHF Final Energy:   -76.06536906081769
    Total Energy =                        -76.0653690608176873
  @DF-RHF Final Energy:   -76.05999197302295
    Total Energy =                        -76.0599919730229459
  @DF-RHF Final Energy:   -76.06535411664787
    Total Energy =                        -76.0653541166478675
  Multiplicity = 1
  @DF-RHF Final Energy:  -132.28767938961636
    Total Energy =                       -132.2876793896163576
	 Singles Energy            =      -0.0000000000000000 [Eh]
	 Same-Spin Energy          =      -0.1257546204446671 [Eh]
	 Opposite-Spin Energy      =      -0.4181567347828125 [Eh]
	 Correlation Energy        =      -0.5439113552274796 [Eh]
	 Total Energy              =    -132.8315907448438509 [Eh]
	 SCS Total Energy          =    -132.8313856781706193 [Eh]
    Molecular point group: c1

    Geometry (in Angstrom), charge = 0, multiplicity = 1:

       Center              X                  Y                   Z               Mass
    ------------   -----------------  -----------------  -----------------  -----------------
         O            1.604986853090     0.085363128664    -0.000007877883    15.994914619570
         H            1.969423853090    -0.800479871336     0.000039122117     1.007825032230
         H            0.646553853090    -0.059754871336    -0.000335877883     1.007825032230
         N           -1.594893046910    -0.043518871336     0.000001822117    14.003074004430
         H           -2.066203046910    -0.397869871336     0.821933822117     1.007825032230
         H           -1.786091046910     0.949924128664    -0.025880177883     1.007825032230
         H           -2.075987046910    -0.441927871336    -0.795657177883     1.007825032230

  Charge       = 0
  Multiplicity = 1
  Basis Set: AUG-CC-PVQZ
    Blend: AUG-CC-PVQZ
  Basis Set: (AUG-CC-PVQZ AUX)
    Blend: AUG-CC-PVQZ-JKFIT

    Orbital Energies [Eh]
    ---------------------

    Doubly Occupied:

       1A    -20.532612     2A    -15.560021     3A     -1.319158
       4A     -1.163798     5A     -0.683918     6A     -0.647933
       7A     -0.646945     8A     -0.557800     9A     -0.479375
      10A     -0.454791

  @DF-RHF Final Energy:  -132.29667146837329

   => Energetics <=

    Nuclear Repulsion Energy =             37.4178473482997731
    One-Electron Energy =                -255.3363309375399410
    Two-Electron Energy =                  85.6218121208668776
    Total Energy =                       -132.2966714683732903

  Dipole Moment: [D]
     X:    -3.1665      Y:    -1.3599      Z:     0.0002     Total:     3.4461

  Basis Set: (AUG-CC-PVQZ AUX)
    Blend: AUG-CC-PVQZ-RI
	 Reference Energy          =    -132.2966714683732903 [Eh]
	 Singles Energy            =      -0.0000000000000000 [Eh]
	 Same-Spin Energy          =      -0.1333806244742373 [Eh]
	 Opposite-Spin Energy      =      -0.4703365808774261 [Eh]
	 Correlation Energy        =      -0.6037172053516634 [Eh]
	 Total Energy              =    -132.9003886737249616 [Eh]

	 ================> DF-SCS-MP2 Energies <==================
	-----------------------------------------------------------
	 SCS Same-Spin Scale       =       0.3333333333333333 [-]
	 SCS Opposite-Spin Scale   =       1.2000000000000000 [-]
	 SCS Same-Spin Energy      =      -0.0444602081580791 [Eh]
	 SCS Opposite-Spin Energy  =      -0.5644038970529114 [Eh]
	 SCS Correlation Energy    =      -0.6088641052109904 [Eh]
	 SCS Total Energy          =    -132.9055355735842738 [Eh]
	-----------------------------------------------------------

*** Psi4 exiting successfully. Buy a developer a beer!
