                               Psi4 1.4a2.dev224

  ==> Input File <==

--------------------------------------------------------------------------
#Generated by lconvert.py for cbs job

memory 40 GB

molecule  {
0 1
  O        1.5849360     0.1046930     0.0000050
  H        1.9493730    -0.7811500     0.0000520
  H        0.6265030    -0.0404250    -0.0003230
--
0 1
  N       -1.0036402    -0.0286170    -0.0000774
  H       -1.4749502    -0.3829680     0.8218546
  H       -1.1948382     0.9648260    -0.0259594
  H       -1.4847342    -0.4270260    -0.7957364
units angstrom
no_reorient
symmetry c1
}

set {
scf_type DF
mp2_type DF
e_convergence 7
reference rhf
}

energy('mp2/aug-cc-pv[tq]z', bsse_type='cp')
--------------------------------------------------------------------------

    Molecular point group: c1
  Charge       = 0
  Multiplicity = 1
  Basis Set: AUG-CC-PVTZ
    Blend: AUG-CC-PVTZ
  Basis Set: (AUG-CC-PVTZ AUX)
    Blend: AUG-CC-PVTZ-JKFIT
  @DF-RHF Final Energy:   -56.22026229478433
    Total Energy =                        -56.2202622947843338
  Basis Set: (AUG-CC-PVTZ AUX)
    Blend: AUG-CC-PVTZ-RI
	 Reference Energy          =     -56.2202622947843338 [Eh]
	 Singles Energy            =      -0.0000000000000000 [Eh]
	 Same-Spin Energy          =      -0.0560716359273289 [Eh]
	 Opposite-Spin Energy      =      -0.2010623783726758 [Eh]
	 Correlation Energy        =      -0.2571340143000047 [Eh]
	 Total Energy              =     -56.4773963090843409 [Eh]
	 SCS Total Energy          =     -56.4802276941406518 [Eh]
    Molecular point group: c1
  Basis Set: AUG-CC-PVQZ
    Blend: AUG-CC-PVQZ
  Basis Set: (AUG-CC-PVQZ AUX)
    Blend: AUG-CC-PVQZ-JKFIT
  @DF-RHF Final Energy:   -56.22391379987747
    Total Energy =                        -56.2239137998774723
  Basis Set: (AUG-CC-PVQZ AUX)
  @DF-RHF Final Energy:   -56.22033457022633
    Total Energy =                        -56.2203345702263277
  @DF-RHF Final Energy:   -56.22393890016749
    Total Energy =                        -56.2239389001674894
  @DF-RHF Final Energy:   -76.06008556578340
    Total Energy =                        -76.0600855657833819
  @DF-RHF Final Energy:   -76.06538193087751
    Total Energy =                        -76.0653819308775070
  @DF-RHF Final Energy:   -76.05999197302162
    Total Energy =                        -76.0599919730216243
  @DF-RHF Final Energy:   -76.06535411663282
    Total Energy =                        -76.0653541166328182
  Multiplicity = 1
  @DF-RHF Final Energy:  -132.28005838081486
    Total Energy =                       -132.2800583808148644
	 Singles Energy            =      -0.0000000000000000 [Eh]
	 Same-Spin Energy          =      -0.1281529687591436 [Eh]
	 Opposite-Spin Energy      =      -0.4204785816387346 [Eh]
	 Correlation Energy        =      -0.5486315503978783 [Eh]
	 Total Energy              =    -132.8286899312127503 [Eh]
	 SCS Total Energy          =    -132.8273503350343958 [Eh]
    Molecular point group: c1

    Geometry (in Angstrom), charge = 0, multiplicity = 1:

       Center              X                  Y                   Z               Mass
    ------------   -----------------  -----------------  -----------------  -----------------
         O            1.307919219963     0.087514948585     0.000036878805    15.994914619570
         H            1.672356219963    -0.798328051415     0.000083878805     1.007825032230
         H            0.349486219963    -0.057603051415    -0.000291121195     1.007825032230
         N           -1.280656980037    -0.045795051415    -0.000045521195    14.003074004430
         H           -1.751966980037    -0.400146051415     0.821886478805     1.007825032230
         H           -1.471854980037     0.947647948585    -0.025927521195     1.007825032230
         H           -1.761750980037    -0.444204051415    -0.795704521195     1.007825032230

  Charge       = 0
  Multiplicity = 1
  Basis Set: AUG-CC-PVQZ
    Blend: AUG-CC-PVQZ
  Basis Set: (AUG-CC-PVQZ AUX)
    Blend: AUG-CC-PVQZ-JKFIT

    Orbital Energies [Eh]
    ---------------------

    Doubly Occupied:

       1A    -20.500899     2A    -15.569512     3A     -1.298130
       4A     -1.179814     5A     -0.683264     6A     -0.661833
       7A     -0.655561     8A     -0.548671     9A     -0.454386
      10A     -0.452491

  @DF-RHF Final Energy:  -132.28896926153197

   => Energetics <=

    Nuclear Repulsion Energy =             41.2774490040932420
    One-Electron Energy =                -263.1237103736183940
    Two-Electron Energy =                  89.5572921079931916
    Total Energy =                       -132.2889692615319746

  Dipole Moment: [D]
     X:    -3.7082      Y:    -1.3601      Z:     0.0001     Total:     3.9498

  Basis Set: (AUG-CC-PVQZ AUX)
    Blend: AUG-CC-PVQZ-RI
	 Reference Energy          =    -132.2889692615319746 [Eh]
	 Singles Energy            =      -0.0000000000000000 [Eh]
	 Same-Spin Energy          =      -0.1358483713224186 [Eh]
	 Opposite-Spin Energy      =      -0.4726741662192354 [Eh]
	 Correlation Energy        =      -0.6085225375416540 [Eh]
	 Total Energy              =    -132.8974917990736344 [Eh]

	 ================> DF-SCS-MP2 Energies <==================
	-----------------------------------------------------------
	 SCS Same-Spin Scale       =       0.3333333333333333 [-]
	 SCS Opposite-Spin Scale   =       1.2000000000000000 [-]
	 SCS Same-Spin Energy      =      -0.0452827904408062 [Eh]
	 SCS Opposite-Spin Energy  =      -0.5672089994630825 [Eh]
	 SCS Correlation Energy    =      -0.6124917899038886 [Eh]
	 SCS Total Energy          =    -132.9014610514358594 [Eh]
	-----------------------------------------------------------

*** Psi4 exiting successfully. Buy a developer a beer!
