                               Psi4 1.4a2.dev224

  ==> Input File <==

--------------------------------------------------------------------------
#Generated by lconvert.py for cbs job

memory 20 GB

molecule  {
0 1
  O       1.584940    0.104690    0.000010
  H       1.949370   -0.781150    0.000050
  H       0.626500   -0.040430   -0.000320
--
0 1
  N      -2.633780   -0.016810    0.000170
  H      -3.105090   -0.371160    0.822100
  H      -2.824980    0.976630   -0.025710
  H      -3.114880   -0.415220   -0.795490
units angstrom
no_reorient
symmetry c1
}

set {
scf_type DF
mp2_type DF
e_convergence 7
reference rhf
}

energy('mp2/aug-cc-pv[tq]z', bsse_type='cp')
--------------------------------------------------------------------------

    Molecular point group: c1
  Charge       = 0
  Multiplicity = 1
  Basis Set: AUG-CC-PVTZ
    Blend: AUG-CC-PVTZ
  Basis Set: (AUG-CC-PVTZ AUX)
    Blend: AUG-CC-PVTZ-JKFIT
  @DF-RHF Final Energy:   -56.22026227920279
    Total Energy =                        -56.2202622792027995
  Basis Set: (AUG-CC-PVTZ AUX)
    Blend: AUG-CC-PVTZ-RI
	 Reference Energy          =     -56.2202622792027924 [Eh]
	 Singles Energy            =      -0.0000000000000000 [Eh]
	 Same-Spin Energy          =      -0.0560716373954152 [Eh]
	 Opposite-Spin Energy      =      -0.2010623816481318 [Eh]
	 Correlation Energy        =      -0.2571340190435470 [Eh]
	 Total Energy              =     -56.4773962982463402 [Eh]
	 SCS Total Energy          =     -56.4802276829790202 [Eh]
    Molecular point group: c1
  Basis Set: AUG-CC-PVQZ
    Blend: AUG-CC-PVQZ
  Basis Set: (AUG-CC-PVQZ AUX)
    Blend: AUG-CC-PVQZ-JKFIT
  @DF-RHF Final Energy:   -56.22391378507147
    Total Energy =                        -56.2239137850714741
  Basis Set: (AUG-CC-PVQZ AUX)
  @DF-RHF Final Energy:   -56.22027817104519
    Total Energy =                        -56.2202781710451944
  @DF-RHF Final Energy:   -56.22391927664654
    Total Energy =                        -56.2239192766465408
  @DF-RHF Final Energy:   -76.06000315254576
    Total Energy =                        -76.0600031525457609
  @DF-RHF Final Energy:   -76.06535890899511
    Total Energy =                        -76.0653589089951083
  @DF-RHF Final Energy:   -76.05999172013634
    Total Energy =                        -76.0599917201363382
  @DF-RHF Final Energy:   -76.06535386051769
    Total Energy =                        -76.0653538605176891
  Multiplicity = 1
  @DF-RHF Final Energy:  -132.28364199496980
    Total Energy =                       -132.2836419949697984
	 Singles Energy            =      -0.0000000000000000 [Eh]
	 Same-Spin Energy          =      -0.1247428045009850 [Eh]
	 Opposite-Spin Energy      =      -0.4168825698979196 [Eh]
	 Correlation Energy        =      -0.5416253743989046 [Eh]
	 Total Energy              =    -132.8252673693687029 [Eh]
	 SCS Total Energy          =    -132.8254820136809542 [Eh]
    Molecular point group: c1

    Geometry (in Angstrom), charge = 0, multiplicity = 1:

       Center              X                  Y                   Z               Mass
    ------------   -----------------  -----------------  -----------------  -----------------
         O            2.100100499362     0.081775847743    -0.000080629654    15.994914619570
         H            2.464530499362    -0.804064152257    -0.000040629654     1.007825032230
         H            1.141660499362    -0.063344152257    -0.000410629654     1.007825032230
         N           -2.118619500638    -0.039724152257     0.000079370346    14.003074004430
         H           -2.589929500638    -0.394074152257     0.822009370346     1.007825032230
         H           -2.309819500638     0.953715847743    -0.025800629654     1.007825032230
         H           -2.599719500638    -0.438134152257    -0.795580629654     1.007825032230

  Charge       = 0
  Multiplicity = 1
  Basis Set: AUG-CC-PVQZ
    Blend: AUG-CC-PVQZ
  Basis Set: (AUG-CC-PVQZ AUX)
    Blend: AUG-CC-PVQZ-JKFIT

    Orbital Energies [Eh]
    ---------------------

    Doubly Occupied:

       1A    -20.550822     2A    -15.550601     3A     -1.335156
       4A     -1.153398     5A     -0.697711     6A     -0.638226
       7A     -0.637516     8A     -0.570932     9A     -0.495490
      10A     -0.443080

  @DF-RHF Final Energy:  -132.29263403640914

   => Energetics <=

    Nuclear Repulsion Energy =             33.4984120608725746
    One-Electron Energy =                -247.4362218156299207
    Two-Electron Energy =                  81.6451757183481988
    Total Energy =                       -132.2926340364091402

  Dipole Moment: [D]
     X:    -2.8203      Y:    -1.3734      Z:     0.0001     Total:     3.1369

  Basis Set: (AUG-CC-PVQZ AUX)
    Blend: AUG-CC-PVQZ-RI
	 Reference Energy          =    -132.2926340364091402 [Eh]
	 Singles Energy            =      -0.0000000000000000 [Eh]
	 Same-Spin Energy          =      -0.1323767828490455 [Eh]
	 Opposite-Spin Energy      =      -0.4693889176321334 [Eh]
	 Correlation Energy        =      -0.6017657004811789 [Eh]
	 Total Energy              =    -132.8943997368903069 [Eh]

	 ================> DF-SCS-MP2 Energies <==================
	-----------------------------------------------------------
	 SCS Same-Spin Scale       =       0.3333333333333333 [-]
	 SCS Opposite-Spin Scale   =       1.2000000000000000 [-]
	 SCS Same-Spin Energy      =      -0.0441255942830152 [Eh]
	 SCS Opposite-Spin Energy  =      -0.5632667011585600 [Eh]
	 SCS Correlation Energy    =      -0.6073922954415751 [Eh]
	 SCS Total Energy          =    -132.9000263318507109 [Eh]
	-----------------------------------------------------------

*** Psi4 exiting successfully. Buy a developer a beer!
