                               Psi4 1.4a2.dev224

  ==> Input File <==

--------------------------------------------------------------------------
#Generated by lconvert.py for cbs job

memory 40 GB

molecule  {
0 1
  O        1.5849360     0.1046930     0.0000050
  H        1.9493730    -0.7811500     0.0000520
  H        0.6265030    -0.0404250    -0.0003230
--
0 1
  N       -0.7998723    -0.0300930    -0.0001081
  H       -1.2711823    -0.3844440     0.8218239
  H       -0.9910703     0.9633500    -0.0259901
  H       -1.2809663    -0.4285020    -0.7957671
units angstrom
no_reorient
symmetry c1
}

set {
scf_type DF
mp2_type DF
e_convergence 7
reference rhf
}

energy('mp2/aug-cc-pv[tq]z', bsse_type='cp')
--------------------------------------------------------------------------

    Molecular point group: c1
  Charge       = 0
  Multiplicity = 1
  Basis Set: AUG-CC-PVTZ
    Blend: AUG-CC-PVTZ
  Basis Set: (AUG-CC-PVTZ AUX)
    Blend: AUG-CC-PVTZ-JKFIT
  @DF-RHF Final Energy:   -56.22026229479299
    Total Energy =                        -56.2202622947929882
  Basis Set: (AUG-CC-PVTZ AUX)
    Blend: AUG-CC-PVTZ-RI
	 Reference Energy          =     -56.2202622947929882 [Eh]
	 Singles Energy            =      -0.0000000000000000 [Eh]
	 Same-Spin Energy          =      -0.0560716359272775 [Eh]
	 Opposite-Spin Energy      =      -0.2010623783725546 [Eh]
	 Correlation Energy        =      -0.2571340142998321 [Eh]
	 Total Energy              =     -56.4773963090928177 [Eh]
	 SCS Total Energy          =     -56.4802276941491428 [Eh]
    Molecular point group: c1
  Basis Set: AUG-CC-PVQZ
    Blend: AUG-CC-PVQZ
  Basis Set: (AUG-CC-PVQZ AUX)
    Blend: AUG-CC-PVQZ-JKFIT
  @DF-RHF Final Energy:   -56.22391379986544
    Total Energy =                        -56.2239137998654428
  Basis Set: (AUG-CC-PVQZ AUX)
  @DF-RHF Final Energy:   -56.22034301040375
    Total Energy =                        -56.2203430104037523
  @DF-RHF Final Energy:   -56.22394197920009
    Total Energy =                        -56.2239419792000916
  @DF-RHF Final Energy:   -76.06011159411231
    Total Energy =                        -76.0601115941123140
  @DF-RHF Final Energy:   -76.06538601430901
    Total Energy =                        -76.0653860143090128
  @DF-RHF Final Energy:   -76.05999197302222
    Total Energy =                        -76.0599919730222211
  @DF-RHF Final Energy:   -76.06535411665789
    Total Energy =                        -76.0653541166579004
  @DF-RHF Final Energy:  -132.26535333133330
    Total Energy =                       -132.2653533313333014
  @DF-RHF Final Energy:  -132.27427549422117
    Total Energy =                       -132.2742754942211718
*** Psi4 exiting successfully. Buy a developer a beer!
                               Psi4 1.4a2.dev224
  @DF-RHF Final Energy:   -56.22026229478433
    Total Energy =                        -56.2202622947843338
  @DF-RHF Final Energy:   -56.22391379987747
    Total Energy =                        -56.2239137998774723
  @DF-RHF Final Energy:   -56.22033457022633
    Total Energy =                        -56.2203345702263277
  @DF-RHF Final Energy:   -56.22393890016749
    Total Energy =                        -56.2239389001674894
  @DF-RHF Final Energy:   -76.06008556578340
    Total Energy =                        -76.0600855657833819
  @DF-RHF Final Energy:   -76.06538193087751
    Total Energy =                        -76.0653819308775070
  @DF-RHF Final Energy:   -76.05999197302162
    Total Energy =                        -76.0599919730216243
  @DF-RHF Final Energy:   -76.06535411663282
    Total Energy =                        -76.0653541166328182
  @DF-RHF Final Energy:  -132.28005838081486
    Total Energy =                       -132.2800583808148644
  @DF-RHF Final Energy:  -132.28896926153197
    Total Energy =                       -132.2889692615319746
*** Psi4 exiting successfully. Buy a developer a beer!
                               Psi4 1.4a2.dev224
                               Psi4 1.4a2.dev224
                               Psi4 1.4a2.dev224
                               Psi4 1.4a2.dev224
                               Psi4 1.4a2.dev224
                               Psi4 1.4a2.dev224
                               Psi4 1.4a2.dev224
  @DF-RHF Final Energy:   -56.22026227920279
    Total Energy =                        -56.2202622792027995
  @DF-RHF Final Energy:   -56.22391378507147
    Total Energy =                        -56.2239137850714741
  @DF-RHF Final Energy:   -56.22027817104519
    Total Energy =                        -56.2202781710451944
  @DF-RHF Final Energy:   -56.22391927664654
    Total Energy =                        -56.2239192766465408
  @DF-RHF Final Energy:   -76.06000315254576
    Total Energy =                        -76.0600031525457609
  @DF-RHF Final Energy:   -76.06535890899511
    Total Energy =                        -76.0653589089951083
  @DF-RHF Final Energy:   -76.05999172013634
    Total Energy =                        -76.0599917201363382
  @DF-RHF Final Energy:   -76.06535386051769
    Total Energy =                        -76.0653538605176891
  @DF-RHF Final Energy:  -132.28364199496980
    Total Energy =                       -132.2836419949697984
  @DF-RHF Final Energy:  -132.29263403640914
    Total Energy =                       -132.2926340364091402
*** Psi4 exiting successfully. Buy a developer a beer!
                               Psi4 1.4a2.dev224
  @DF-RHF Final Energy:   -56.22026246876803
    Total Energy =                        -56.2202624687680412
  @DF-RHF Final Energy:   -56.22391398254877
    Total Energy =                        -56.2239139825487726
  @DF-RHF Final Energy:   -56.22027339432245
    Total Energy =                        -56.2202733943224544
  @DF-RHF Final Energy:   -56.22391795111258
    Total Energy =                        -56.2239179511125684
  @DF-RHF Final Energy:   -76.05999961143827
    Total Energy =                        -76.0599996114382577
  @DF-RHF Final Energy:   -76.06535624549801
    Total Energy =                        -76.0653562454980090
  @DF-RHF Final Energy:   -76.05999172013736
    Total Energy =                        -76.0599917201373472
  @DF-RHF Final Energy:   -76.06535386051880
    Total Energy =                        -76.0653538605187975
  Multiplicity = 1
  @DF-RHF Final Energy:  -132.28227473639453
    Total Energy =                       -132.2822747363945268
	 Singles Energy            =      -0.0000000000000000 [Eh]
	 Same-Spin Energy          =      -0.1246111533227006 [Eh]
	 Opposite-Spin Energy      =      -0.4166651204203753 [Eh]
	 Correlation Energy        =      -0.5412762737430760 [Eh]
	 Total Energy              =    -132.8235510101376065 [Eh]
	 SCS Total Energy          =    -132.8238099320065544 [Eh]
    Molecular point group: c1

    Geometry (in Angstrom), charge = 0, multiplicity = 1:

       Center              X                  Y                   Z               Mass
    ------------   -----------------  -----------------  -----------------  -----------------
         O            2.397170618731     0.079623055907    -0.000124365831    15.994914619570
         H            2.761600618731    -0.806216944093    -0.000084365831     1.007825032230
         H            1.438730618731    -0.065496944093    -0.000454365831     1.007825032230
         N           -2.432859381269    -0.037446944093     0.000125634169    14.003074004430
         H           -2.904169381269    -0.391796944093     0.822055634169     1.007825032230
         H           -2.624049381269     0.955993055907    -0.025754365831     1.007825032230
         H           -2.913949381269    -0.435856944093    -0.795534365831     1.007825032230

  Charge       = 0
  Multiplicity = 1
  Basis Set: AUG-CC-PVQZ
    Blend: AUG-CC-PVQZ
  Basis Set: (AUG-CC-PVQZ AUX)
    Blend: AUG-CC-PVQZ-JKFIT

    Orbital Energies [Eh]
    ---------------------

    Doubly Occupied:

       1A    -20.555271     2A    -15.547615     3A     -1.339423
       4A     -1.150518     5A     -0.702002     6A     -0.635416
       7A     -0.634721     8A     -0.574908     9A     -0.499648
      10A     -0.439485

  @DF-RHF Final Energy:  -132.29127355456586

   => Energetics <=

    Nuclear Repulsion Energy =             31.9412461390176112
    One-Electron Energy =                -244.3070241571381302
    Two-Electron Energy =                  80.0745044635546463
    Total Energy =                       -132.2912735545658620

  Dipole Moment: [D]
     X:    -2.7368      Y:    -1.3799      Z:     0.0001     Total:     3.0650

  Basis Set: (AUG-CC-PVQZ AUX)
    Blend: AUG-CC-PVQZ-RI
	 Reference Energy          =    -132.2912735545658620 [Eh]
	 Singles Energy            =      -0.0000000000000000 [Eh]
	 Same-Spin Energy          =      -0.1322532802105637 [Eh]
	 Opposite-Spin Energy      =      -0.4692814371485587 [Eh]
	 Correlation Energy        =      -0.6015347173591223 [Eh]
	 Total Energy              =    -132.8928082719249915 [Eh]

	 ================> DF-SCS-MP2 Energies <==================
	-----------------------------------------------------------
	 SCS Same-Spin Scale       =       0.3333333333333333 [-]
	 SCS Opposite-Spin Scale   =       1.2000000000000000 [-]
	 SCS Same-Spin Energy      =      -0.0440844267368546 [Eh]
	 SCS Opposite-Spin Energy  =      -0.5631377245782704 [Eh]
	 SCS Correlation Energy    =      -0.6072221513151249 [Eh]
	 SCS Total Energy          =    -132.8984957058809755 [Eh]
	-----------------------------------------------------------

*** Psi4 exiting successfully. Buy a developer a beer!
