                               Psi4 1.4a2.dev224

  ==> Input File <==

--------------------------------------------------------------------------
#Generated by lconvert.py for cbs job

memory 40 GB

molecule  {
0 1
  O        1.5849360     0.1046930     0.0000050
  H        1.9493730    -0.7811500     0.0000520
  H        0.6265030    -0.0404250    -0.0003230
--
0 1
  N       -1.3092921    -0.0264030    -0.0000314
  H       -1.7806020    -0.3807540     0.8219007
  H       -1.5004901     0.9670400    -0.0259134
  H       -1.7903860    -0.4248120    -0.7956903
units angstrom
no_reorient
symmetry c1
}

set {
scf_type DF
mp2_type DF
e_convergence 7
reference rhf
}

energy('mp2/aug-cc-pv[tq]z', bsse_type='cp')
--------------------------------------------------------------------------

    Molecular point group: c1
  Charge       = 0
  Multiplicity = 1
  Basis Set: AUG-CC-PVTZ
    Blend: AUG-CC-PVTZ
  Basis Set: (AUG-CC-PVTZ AUX)
    Blend: AUG-CC-PVTZ-JKFIT
  @DF-RHF Final Energy:   -56.22026229706880
    Total Energy =                        -56.2202622970687997
  Basis Set: (AUG-CC-PVTZ AUX)
    Blend: AUG-CC-PVTZ-RI
	 Reference Energy          =     -56.2202622970687997 [Eh]
	 Singles Energy            =      -0.0000000000000000 [Eh]
	 Same-Spin Energy          =      -0.0560716355998032 [Eh]
	 Opposite-Spin Energy      =      -0.2010623768446028 [Eh]
	 Correlation Energy        =      -0.2571340124444060 [Eh]
	 Total Energy              =     -56.4773963095132032 [Eh]
	 SCS Total Energy          =     -56.4802276944822594 [Eh]
    Molecular point group: c1
  Basis Set: AUG-CC-PVQZ
    Blend: AUG-CC-PVQZ
  Basis Set: (AUG-CC-PVQZ AUX)
    Blend: AUG-CC-PVQZ-JKFIT
  @DF-RHF Final Energy:   -56.22391380228490
    Total Energy =                        -56.2239138022849048
  Basis Set: (AUG-CC-PVQZ AUX)
  @DF-RHF Final Energy:   -56.22030877857540
    Total Energy =                        -56.2203087785754008
  @DF-RHF Final Energy:   -56.22393353298224
    Total Energy =                        -56.2239335329822367
  @DF-RHF Final Energy:   -76.06005354167478
    Total Energy =                        -76.0600535416747618
  @DF-RHF Final Energy:   -76.06537562600346
    Total Energy =                        -76.0653756260034584
  @DF-RHF Final Energy:   -76.05999197302101
    Total Energy =                        -76.0599919730210132
  @DF-RHF Final Energy:   -76.06535411665266
    Total Energy =                        -76.0653541166526566
  Multiplicity = 1
  @DF-RHF Final Energy:  -132.28716086124979
    Total Energy =                       -132.2871608612497880
	 Singles Energy            =      -0.0000000000000000 [Eh]
	 Same-Spin Energy          =      -0.1266417064940774 [Eh]
	 Opposite-Spin Energy      =      -0.4190412490263937 [Eh]
	 Correlation Energy        =      -0.5456829555204711 [Eh]
	 Total Energy              =    -132.8328438167702643 [Eh]
	 SCS Total Energy          =    -132.8322242622461431 [Eh]
    Molecular point group: c1

    Geometry (in Angstrom), charge = 0, multiplicity = 1:

       Center              X                  Y                   Z               Mass
    ------------   -----------------  -----------------  -----------------  -----------------
         O            1.456453055072     0.086439038625     0.000014519006    15.994914619570
         H            1.820890055072    -0.799403961375     0.000061519006     1.007825032230
         H            0.498020055072    -0.058678961375    -0.000313480994     1.007825032230
         N           -1.437775044928    -0.044656961375    -0.000021880994    14.003074004430
         H           -1.909084944928    -0.399007961375     0.821910219006     1.007825032230
         H           -1.628973044928     0.948786038625    -0.025903880994     1.007825032230
         H           -1.918868944928    -0.443065961375    -0.795680780994     1.007825032230

  Charge       = 0
  Multiplicity = 1
  Basis Set: AUG-CC-PVQZ
    Blend: AUG-CC-PVQZ
  Basis Set: (AUG-CC-PVQZ AUX)
    Blend: AUG-CC-PVQZ-JKFIT

    Orbital Energies [Eh]
    ---------------------

    Doubly Occupied:

       1A    -20.520313     2A    -15.564316     3A     -1.309917
       4A     -1.170122     5A     -0.679737     6A     -0.653477
       7A     -0.651395     8A     -0.552527     9A     -0.469283
      10A     -0.457537

  @DF-RHF Final Energy:  -132.29612139896534

   => Energetics <=

    Nuclear Repulsion Energy =             39.1383728996069493
    One-Electron Energy =                -258.8117386358599674
    Two-Electron Energy =                  87.3772443372876779
    Total Energy =                       -132.2961213989653402

  Dipole Moment: [D]
     X:    -3.3839      Y:    -1.3580      Z:     0.0001     Total:     3.6462

  Basis Set: (AUG-CC-PVQZ AUX)
    Blend: AUG-CC-PVQZ-RI
	 Reference Energy          =    -132.2961213989653402 [Eh]
	 Singles Energy            =      -0.0000000000000000 [Eh]
	 Same-Spin Energy          =      -0.1342901136493140 [Eh]
	 Opposite-Spin Energy      =      -0.4711935773971635 [Eh]
	 Correlation Energy        =      -0.6054836910464775 [Eh]
	 Total Energy              =    -132.9016050900118273 [Eh]

	 ================> DF-SCS-MP2 Energies <==================
	-----------------------------------------------------------
	 SCS Same-Spin Scale       =       0.3333333333333333 [-]
	 SCS Opposite-Spin Scale   =       1.2000000000000000 [-]
	 SCS Same-Spin Energy      =      -0.0447633712164380 [Eh]
	 SCS Opposite-Spin Energy  =      -0.5654322928765961 [Eh]
	 SCS Correlation Energy    =      -0.6101956640930342 [Eh]
	 SCS Total Energy          =    -132.9063170630583670 [Eh]
	-----------------------------------------------------------

*** Psi4 exiting successfully. Buy a developer a beer!
