                               Psi4 1.4a2.dev224

  ==> Input File <==

--------------------------------------------------------------------------
#Generated by lconvert.py for cbs job

memory 20 GB

molecule  {
0 1
  O       1.584940    0.104690    0.000010
  H       1.949370   -0.781150    0.000050
  H       0.626500   -0.040430   -0.000320
--
0 1
  N      -2.022480   -0.021240    0.000080
  H      -2.493790   -0.375590    0.822010
  H      -2.213680    0.972210   -0.025810
  H      -2.503570   -0.419650   -0.795580
units angstrom
no_reorient
symmetry c1
}

set {
scf_type DF
mp2_type DF
e_convergence 7
reference rhf
}

energy('mp2/aug-cc-pv[tq]z', bsse_type='cp')
--------------------------------------------------------------------------

    Molecular point group: c1
  Charge       = 0
  Multiplicity = 1
  Basis Set: AUG-CC-PVTZ
    Blend: AUG-CC-PVTZ
  Basis Set: (AUG-CC-PVTZ AUX)
    Blend: AUG-CC-PVTZ-JKFIT
  @DF-RHF Final Energy:   -56.22026221020996
    Total Energy =                        -56.2202622102099596
  Basis Set: (AUG-CC-PVTZ AUX)
    Blend: AUG-CC-PVTZ-RI
	 Reference Energy          =     -56.2202622102099596 [Eh]
	 Singles Energy            =      -0.0000000000000000 [Eh]
	 Same-Spin Energy          =      -0.0560716485605679 [Eh]
	 Opposite-Spin Energy      =      -0.2010624418335600 [Eh]
	 Correlation Energy        =      -0.2571340903941279 [Eh]
	 Total Energy              =     -56.4773963006040844 [Eh]
	 SCS Total Energy          =     -56.4802276899304232 [Eh]
    Molecular point group: c1
  Basis Set: AUG-CC-PVQZ
    Blend: AUG-CC-PVQZ
  Basis Set: (AUG-CC-PVQZ AUX)
    Blend: AUG-CC-PVQZ-JKFIT
  @DF-RHF Final Energy:   -56.22391370961351
    Total Energy =                        -56.2239137096135124
  Basis Set: (AUG-CC-PVQZ AUX)
  @DF-RHF Final Energy:   -56.22028333092963
    Total Energy =                        -56.2202833309296324
  @DF-RHF Final Energy:   -56.22392363830134
    Total Energy =                        -56.2239236383013434
  @DF-RHF Final Energy:   -76.06001707056049
    Total Energy =                        -76.0600170705604910
  @DF-RHF Final Energy:   -76.06536361612899
    Total Energy =                        -76.0653636161289910
  @DF-RHF Final Energy:   -76.05999172013111
    Total Energy =                        -76.0599917201311087
  @DF-RHF Final Energy:   -76.06535386051159
    Total Energy =                        -76.0653538605115784
  Multiplicity = 1
  @DF-RHF Final Energy:  -132.28601520317821
    Total Energy =                       -132.2860152031782093
	 Singles Energy            =      -0.0000000000000000 [Eh]
	 Same-Spin Energy          =      -0.1251269786320571 [Eh]
	 Opposite-Spin Energy      =      -0.4174116444402892 [Eh]
	 Correlation Energy        =      -0.5425386230723463 [Eh]
	 Total Energy              =    -132.8285538262505554 [Eh]
	 SCS Total Energy          =    -132.8286181693839012 [Eh]
    Molecular point group: c1

    Geometry (in Angstrom), charge = 0, multiplicity = 1:

       Center              X                  Y                   Z               Mass
    ------------   -----------------  -----------------  -----------------  -----------------
         O            1.803034376633     0.083928351934    -0.000036605832    15.994914619570
         H            2.167464376633    -0.801911648066     0.000003394168     1.007825032230
         H            0.844594376633    -0.061191648066    -0.000366605832     1.007825032230
         N           -1.804385623367    -0.042001648066     0.000033394168    14.003074004430
         H           -2.275695623367    -0.396351648066     0.821963394168     1.007825032230
         H           -1.995585623367     0.951448351934    -0.025856605832     1.007825032230
         H           -2.285475623367    -0.440411648066    -0.795626605832     1.007825032230

  Charge       = 0
  Multiplicity = 1
  Basis Set: AUG-CC-PVQZ
    Blend: AUG-CC-PVQZ
  Basis Set: (AUG-CC-PVQZ AUX)
    Blend: AUG-CC-PVQZ-JKFIT

    Orbital Energies [Eh]
    ---------------------

    Doubly Occupied:

       1A    -20.542633     2A    -15.555421     3A     -1.327632
       4A     -1.158328     5A     -0.690579     6A     -0.642928
       7A     -0.642174     8A     -0.564291     9A     -0.488057
      10A     -0.449230

  @DF-RHF Final Energy:  -132.29500698943758

   => Energetics <=

    Nuclear Repulsion Energy =             35.5829800795578350
    One-Electron Energy =                -251.6334231199863609
    Two-Electron Energy =                  83.7554360509909372
    Total Energy =                       -132.2950069894375815

  Dipole Moment: [D]
     X:    -2.9791      Y:    -1.3650      Z:     0.0001     Total:     3.2770

  Basis Set: (AUG-CC-PVQZ AUX)
    Blend: AUG-CC-PVQZ-RI
	 Reference Energy          =    -132.2950069894375815 [Eh]
	 Singles Energy            =      -0.0000000000000000 [Eh]
	 Same-Spin Energy          =      -0.1327526152135179 [Eh]
	 Opposite-Spin Energy      =      -0.4697559278552211 [Eh]
	 Correlation Energy        =      -0.6025085430687391 [Eh]
	 Total Energy              =    -132.8975155325063326 [Eh]

	 ================> DF-SCS-MP2 Energies <==================
	-----------------------------------------------------------
	 SCS Same-Spin Scale       =       0.3333333333333333 [-]
	 SCS Opposite-Spin Scale   =       1.2000000000000000 [-]
	 SCS Same-Spin Energy      =      -0.0442508717378393 [Eh]
	 SCS Opposite-Spin Energy  =      -0.5637071134262653 [Eh]
	 SCS Correlation Energy    =      -0.6079579851641046 [Eh]
	 SCS Total Energy          =    -132.9029649746016730 [Eh]
	-----------------------------------------------------------

*** Psi4 exiting successfully. Buy a developer a beer!
