                               Psi4 1.4a2.dev224

  ==> Input File <==

--------------------------------------------------------------------------
#Generated by lconvert.py for cbs job

memory 40 GB

molecule  {
0 1
  O        1.5849360     0.1046930     0.0000050
  H        1.9493730    -0.7811500     0.0000520
  H        0.6265030    -0.0404250    -0.0003230
--
0 1
  N       -1.4111760    -0.0256650    -0.0000160
  H       -1.8824860    -0.3800160     0.8219160
  H       -1.6023740     0.9677780    -0.0258980
  H       -1.8922700    -0.4240740    -0.7956750
units angstrom
no_reorient
symmetry c1
}

set {
scf_type DF
mp2_type DF
e_convergence 7
reference rhf
}

energy('mp2/aug-cc-pv[tq]z', bsse_type='cp')
--------------------------------------------------------------------------

    Molecular point group: c1
  Charge       = 0
  Multiplicity = 1
  Basis Set: AUG-CC-PVTZ
    Blend: AUG-CC-PVTZ
  Basis Set: (AUG-CC-PVTZ AUX)
    Blend: AUG-CC-PVTZ-JKFIT
  @DF-RHF Final Energy:   -56.22026229477519
    Total Energy =                        -56.2202622947751891
  Basis Set: (AUG-CC-PVTZ AUX)
    Blend: AUG-CC-PVTZ-RI
	 Reference Energy          =     -56.2202622947751891 [Eh]
	 Singles Energy            =      -0.0000000000000000 [Eh]
	 Same-Spin Energy          =      -0.0560716359273005 [Eh]
	 Opposite-Spin Energy      =      -0.2010623783725935 [Eh]
	 Correlation Energy        =      -0.2571340142998940 [Eh]
	 Total Energy              =     -56.4773963090750826 [Eh]
	 SCS Total Energy          =     -56.4802276941314005 [Eh]
    Molecular point group: c1
  Basis Set: AUG-CC-PVQZ
    Blend: AUG-CC-PVQZ
  Basis Set: (AUG-CC-PVQZ AUX)
    Blend: AUG-CC-PVQZ-JKFIT
  @DF-RHF Final Energy:   -56.22391379988360
    Total Energy =                        -56.2239137998836043
  Basis Set: (AUG-CC-PVQZ AUX)
  @DF-RHF Final Energy:   -56.22030098933725
    Total Energy =                        -56.2203009893372467
  @DF-RHF Final Energy:   -56.22393117682329
    Total Energy =                        -56.2239311768232923
  @DF-RHF Final Energy:   -76.06004517069516
    Total Energy =                        -76.0600451706951617
  @DF-RHF Final Energy:   -76.06537328741797
    Total Energy =                        -76.0653732874179696
  @DF-RHF Final Energy:   -76.05999197301863
    Total Energy =                        -76.0599919730186400
  @DF-RHF Final Energy:   -76.06535411664352
    Total Energy =                        -76.0653541166435332
  Multiplicity = 1
  @DF-RHF Final Energy:  -132.28771365785346
    Total Energy =                       -132.2877136578534589
	 Singles Energy            =      -0.0000000000000000 [Eh]
	 Same-Spin Energy          =      -0.1262901712289556 [Eh]
	 Opposite-Spin Energy      =      -0.4187003523067754 [Eh]
	 Correlation Energy        =      -0.5449905235357310 [Eh]
	 Total Energy              =    -132.8327041813892038 [Eh]
	 SCS Total Energy          =    -132.8322508043645769 [Eh]
    Molecular point group: c1

    Geometry (in Angstrom), charge = 0, multiplicity = 1:

       Center              X                  Y                   Z               Mass
    ------------   -----------------  -----------------  -----------------  -----------------
         O            1.505964308715     0.086080401971     0.000007041013    15.994914619570
         H            1.870401308715    -0.799762598029     0.000054041013     1.007825032230
         H            0.547531308715    -0.059037598029    -0.000320958987     1.007825032230
         N           -1.490147691285    -0.044277598029    -0.000013958987    14.003074004430
         H           -1.961457691285    -0.398628598029     0.821918041013     1.007825032230
         H           -1.681345691285     0.949165401971    -0.025895958987     1.007825032230
         H           -1.971241691285    -0.442686598029    -0.795672958987     1.007825032230

  Charge       = 0
  Multiplicity = 1
  Basis Set: AUG-CC-PVQZ
    Blend: AUG-CC-PVQZ
  Basis Set: (AUG-CC-PVQZ AUX)
    Blend: AUG-CC-PVQZ-JKFIT

    Orbital Energies [Eh]
    ---------------------

    Doubly Occupied:

       1A    -20.525039     2A    -15.562796     3A     -1.313315
       4A     -1.167718     5A     -0.680765     6A     -0.651394
       7A     -0.649880     8A     -0.554214     9A     -0.473093
      10A     -0.457053

  @DF-RHF Final Energy:  -132.29669033073716

   => Energetics <=

    Nuclear Repulsion Energy =             38.5250674438792586
    One-Electron Energy =                -257.5729802952457703
    Two-Electron Energy =                  86.7512225206293408
    Total Energy =                       -132.2966903307371638

  Dipole Moment: [D]
     X:    -3.3018      Y:    -1.3583      Z:     0.0001     Total:     3.5702

  Basis Set: (AUG-CC-PVQZ AUX)
    Blend: AUG-CC-PVQZ-RI
	 Reference Energy          =    -132.2966903307371638 [Eh]
	 Singles Energy            =      -0.0000000000000000 [Eh]
	 Same-Spin Energy          =      -0.1339288622522509 [Eh]
	 Opposite-Spin Energy      =      -0.4708523129052868 [Eh]
	 Correlation Energy        =      -0.6047811751575378 [Eh]
	 Total Energy              =    -132.9014715058947047 [Eh]

	 ================> DF-SCS-MP2 Energies <==================
	-----------------------------------------------------------
	 SCS Same-Spin Scale       =       0.3333333333333333 [-]
	 SCS Opposite-Spin Scale   =       1.2000000000000000 [-]
	 SCS Same-Spin Energy      =      -0.0446429540840836 [Eh]
	 SCS Opposite-Spin Energy  =      -0.5650227754863442 [Eh]
	 SCS Correlation Energy    =      -0.6096657295704278 [Eh]
	 SCS Total Energy          =    -132.9063560603075871 [Eh]
	-----------------------------------------------------------

*** Psi4 exiting successfully. Buy a developer a beer!
