                               Psi4 1.4a2.dev224

  ==> Input File <==

--------------------------------------------------------------------------
#Generated by lconvert.py for cbs job

memory 40 GB

molecule  {
0 1
  O        1.5849360     0.1046930     0.0000050
  H        1.9493730    -0.7811500     0.0000520
  H        0.6265030    -0.0404250    -0.0003230
--
0 1
  N       -1.2074081    -0.0271410    -0.0000467
  H       -1.6787181    -0.3814920     0.8218853
  H       -1.3986061     0.9663020    -0.0259287
  H       -1.6885021    -0.4255500    -0.7957057
units angstrom
no_reorient
symmetry c1
}

set {
scf_type DF
mp2_type DF
e_convergence 7
reference rhf
}

energy('mp2/aug-cc-pv[tq]z', bsse_type='cp')
--------------------------------------------------------------------------

    Molecular point group: c1
  Charge       = 0
  Multiplicity = 1
  Basis Set: AUG-CC-PVTZ
    Blend: AUG-CC-PVTZ
  Basis Set: (AUG-CC-PVTZ AUX)
    Blend: AUG-CC-PVTZ-JKFIT
  @DF-RHF Final Energy:   -56.22026229478631
    Total Energy =                        -56.2202622947863091
  Basis Set: (AUG-CC-PVTZ AUX)
    Blend: AUG-CC-PVTZ-RI
	 Reference Energy          =     -56.2202622947863091 [Eh]
	 Singles Energy            =      -0.0000000000000000 [Eh]
	 Same-Spin Energy          =      -0.0560716359273156 [Eh]
	 Opposite-Spin Energy      =      -0.2010623783725960 [Eh]
	 Correlation Energy        =      -0.2571340142999116 [Eh]
	 Total Energy              =     -56.4773963090862239 [Eh]
	 SCS Total Energy          =     -56.4802276941425276 [Eh]
    Molecular point group: c1
  Basis Set: AUG-CC-PVQZ
    Blend: AUG-CC-PVQZ
  Basis Set: (AUG-CC-PVQZ AUX)
    Blend: AUG-CC-PVQZ-JKFIT
  @DF-RHF Final Energy:   -56.22391379986802
    Total Energy =                        -56.2239137998680221
  Basis Set: (AUG-CC-PVQZ AUX)
  @DF-RHF Final Energy:   -56.22031721516832
    Total Energy =                        -56.2203172151683219
  @DF-RHF Final Energy:   -56.22393557749511
    Total Energy =                        -56.2239355774951122
  @DF-RHF Final Energy:   -76.06006332287515
    Total Energy =                        -76.0600633228751519
  @DF-RHF Final Energy:   -76.06537789819657
    Total Energy =                        -76.0653778981965729
  @DF-RHF Final Energy:   -76.05999197303001
    Total Energy =                        -76.0599919730300087
  @DF-RHF Final Energy:   -76.06535411665193
    Total Energy =                        -76.0653541166519460
  Multiplicity = 1
  @DF-RHF Final Energy:  -132.28594469701238
    Total Energy =                       -132.2859446970123827
	 Singles Energy            =      -0.0000000000000000 [Eh]
	 Same-Spin Energy          =      -0.1270620137780983 [Eh]
	 Opposite-Spin Energy      =      -0.4194423704676937 [Eh]
	 Correlation Energy        =      -0.5465043842457921 [Eh]
	 Total Energy              =    -132.8324490812581757 [Eh]
	 SCS Total Energy          =    -132.8316295461663117 [Eh]
    Molecular point group: c1

    Geometry (in Angstrom), charge = 0, multiplicity = 1:

       Center              X                  Y                   Z               Mass
    ------------   -----------------  -----------------  -----------------  -----------------
         O            1.406941764339     0.086797675278     0.000021959909    15.994914619570
         H            1.771378764339    -0.799045324722     0.000068959909     1.007825032230
         H            0.448508764339    -0.058320324722    -0.000306040091     1.007825032230
         N           -1.385402335661    -0.045036324722    -0.000029740091    14.003074004430
         H           -1.856712335661    -0.399387324722     0.821902259909     1.007825032230
         H           -1.576600335661     0.948406675278    -0.025911740091     1.007825032230
         H           -1.866496335661    -0.443445324722    -0.795688740091     1.007825032230

  Charge       = 0
  Multiplicity = 1
  Basis Set: AUG-CC-PVQZ
    Blend: AUG-CC-PVQZ
  Basis Set: (AUG-CC-PVQZ AUX)
    Blend: AUG-CC-PVQZ-JKFIT

    Orbital Energies [Eh]
    ---------------------

    Doubly Occupied:

       1A    -20.514808     2A    -15.565935     3A     -1.306206
       4A     -1.172901     5A     -0.679506     6A     -0.655863
       7A     -0.652849     8A     -0.551022     9A     -0.464940
      10A     -0.457206

  @DF-RHF Final Energy:  -132.29488518627016

   => Energetics <=

    Nuclear Repulsion Energy =             39.7976353907028795
    One-Electron Energy =                -260.1425668446029817
    Two-Electron Energy =                  88.0500462676299378
    Total Energy =                       -132.2948851862701645

  Dipole Moment: [D]
     X:    -3.4778      Y:    -1.3582      Z:     0.0001     Total:     3.7336

  Basis Set: (AUG-CC-PVQZ AUX)
    Blend: AUG-CC-PVQZ-RI
	 Reference Energy          =    -132.2948851862701645 [Eh]
	 Singles Energy            =      -0.0000000000000000 [Eh]
	 Same-Spin Energy          =      -0.1347229551509981 [Eh]
	 Opposite-Spin Energy      =      -0.4716027912474238 [Eh]
	 Correlation Energy        =      -0.6063257463984220 [Eh]
	 Total Energy              =    -132.9012109326685902 [Eh]

	 ================> DF-SCS-MP2 Energies <==================
	-----------------------------------------------------------
	 SCS Same-Spin Scale       =       0.3333333333333333 [-]
	 SCS Opposite-Spin Scale   =       1.2000000000000000 [-]
	 SCS Same-Spin Energy      =      -0.0449076517169994 [Eh]
	 SCS Opposite-Spin Energy  =      -0.5659233494969085 [Eh]
	 SCS Correlation Energy    =      -0.6108310012139079 [Eh]
	 SCS Total Energy          =    -132.9057161874840745 [Eh]
	-----------------------------------------------------------

*** Psi4 exiting successfully. Buy a developer a beer!
