                               Psi4 1.4a2.dev224

  ==> Input File <==

--------------------------------------------------------------------------
#Generated by lconvert.py for cbs job

memory 40 GB

molecule  {
0 1
  O        1.5849360     0.1046930     0.0000050
  H        1.9493730    -0.7811500     0.0000520
  H        0.6265030    -0.0404250    -0.0003230
--
0 1
  N       -0.7998723    -0.0300930    -0.0001081
  H       -1.2711823    -0.3844440     0.8218239
  H       -0.9910703     0.9633500    -0.0259901
  H       -1.2809663    -0.4285020    -0.7957671
units angstrom
no_reorient
symmetry c1
}

set {
scf_type DF
mp2_type DF
e_convergence 7
reference rhf
}

energy('mp2/aug-cc-pv[tq]z', bsse_type='cp')
--------------------------------------------------------------------------

    Molecular point group: c1
  Charge       = 0
  Multiplicity = 1
  Basis Set: AUG-CC-PVTZ
    Blend: AUG-CC-PVTZ
  Basis Set: (AUG-CC-PVTZ AUX)
    Blend: AUG-CC-PVTZ-JKFIT
  @DF-RHF Final Energy:   -56.22026229479299
    Total Energy =                        -56.2202622947929882
  Basis Set: (AUG-CC-PVTZ AUX)
    Blend: AUG-CC-PVTZ-RI
	 Reference Energy          =     -56.2202622947929882 [Eh]
	 Singles Energy            =      -0.0000000000000000 [Eh]
	 Same-Spin Energy          =      -0.0560716359272775 [Eh]
	 Opposite-Spin Energy      =      -0.2010623783725546 [Eh]
	 Correlation Energy        =      -0.2571340142998321 [Eh]
	 Total Energy              =     -56.4773963090928177 [Eh]
	 SCS Total Energy          =     -56.4802276941491428 [Eh]
    Molecular point group: c1
  Basis Set: AUG-CC-PVQZ
    Blend: AUG-CC-PVQZ
  Basis Set: (AUG-CC-PVQZ AUX)
    Blend: AUG-CC-PVQZ-JKFIT
  @DF-RHF Final Energy:   -56.22391379986544
    Total Energy =                        -56.2239137998654428
  Basis Set: (AUG-CC-PVQZ AUX)
  @DF-RHF Final Energy:   -56.22034301040375
    Total Energy =                        -56.2203430104037523
  @DF-RHF Final Energy:   -56.22394197920009
    Total Energy =                        -56.2239419792000916
  @DF-RHF Final Energy:   -76.06011159411231
    Total Energy =                        -76.0601115941123140
  @DF-RHF Final Energy:   -76.06538601430901
    Total Energy =                        -76.0653860143090128
  @DF-RHF Final Energy:   -76.05999197302222
    Total Energy =                        -76.0599919730222211
  @DF-RHF Final Energy:   -76.06535411665789
    Total Energy =                        -76.0653541166579004
  Multiplicity = 1
  @DF-RHF Final Energy:  -132.26535333133330
    Total Energy =                       -132.2653533313333014
	 Singles Energy            =      -0.0000000000000000 [Eh]
	 Same-Spin Energy          =      -0.1296519806003754 [Eh]
	 Opposite-Spin Energy      =      -0.4219677833636287 [Eh]
	 Correlation Energy        =      -0.5516197639640041 [Eh]
	 Total Energy              =    -132.8169730952972998 [Eh]
	 SCS Total Energy          =    -132.8149319982364602 [Eh]
    Molecular point group: c1

    Geometry (in Angstrom), charge = 0, multiplicity = 1:

       Center              X                  Y                   Z               Mass
    ------------   -----------------  -----------------  -----------------  -----------------
         O            1.208896675588     0.088232221893     0.000051797701    15.994914619570
         H            1.573333675588    -0.797610778107     0.000098797701     1.007825032230
         H            0.250463675588    -0.056885778107    -0.000276202299     1.007825032230
         N           -1.175911624412    -0.046553778107    -0.000061302299    14.003074004430
         H           -1.647221624412    -0.400904778107     0.821870697701     1.007825032230
         H           -1.367109624412     0.946889221893    -0.025943302299     1.007825032230
         H           -1.657005624412    -0.444962778107    -0.795720302299     1.007825032230

  Charge       = 0
  Multiplicity = 1
  Basis Set: AUG-CC-PVQZ
    Blend: AUG-CC-PVQZ
  Basis Set: (AUG-CC-PVQZ AUX)
    Blend: AUG-CC-PVQZ-JKFIT

    Orbital Energies [Eh]
    ---------------------

    Doubly Occupied:

       1A    -20.482121     2A    -15.573612     3A     -1.290998
       4A     -1.188397     5A     -0.695506     6A     -0.670025
       7A     -0.660065     8A     -0.545958     9A     -0.440959
      10A     -0.439509

  @DF-RHF Final Energy:  -132.27427549422117

   => Energetics <=

    Nuclear Repulsion Energy =             43.0230711857973844
    One-Electron Energy =                -266.6203883816237408
    Two-Electron Energy =                  91.3230417016051916
    Total Energy =                       -132.2742754942211718

  Dipole Moment: [D]
     X:    -4.0073      Y:    -1.3649      Z:     0.0001     Total:     4.2334

  Basis Set: (AUG-CC-PVQZ AUX)
    Blend: AUG-CC-PVQZ-RI
	 Reference Energy          =    -132.2742754942211718 [Eh]
	 Singles Energy            =      -0.0000000000000000 [Eh]
	 Same-Spin Energy          =      -0.1373788340996945 [Eh]
	 Opposite-Spin Energy      =      -0.4741140865368052 [Eh]
	 Correlation Energy        =      -0.6114929206364996 [Eh]
	 Total Energy              =    -132.8857684148576652 [Eh]

	 ================> DF-SCS-MP2 Energies <==================
	-----------------------------------------------------------
	 SCS Same-Spin Scale       =       0.3333333333333333 [-]
	 SCS Opposite-Spin Scale   =       1.2000000000000000 [-]
	 SCS Same-Spin Energy      =      -0.0457929446998982 [Eh]
	 SCS Opposite-Spin Energy  =      -0.5689369038441662 [Eh]
	 SCS Correlation Energy    =      -0.6147298485440643 [Eh]
	 SCS Total Energy          =    -132.8890053427652447 [Eh]
	-----------------------------------------------------------

*** Psi4 exiting successfully. Buy a developer a beer!
