                               Psi4 1.4a2.dev224

  ==> Input File <==

--------------------------------------------------------------------------
#Generated by lconvert.py for cbs job

memory 20 GB

molecule  {
0 1
  C      -2.024830    0.000030   -0.000010
  H      -2.390900   -0.618790   -0.813960
  H      -2.391450   -0.395610    0.942610
  H      -2.391760    1.014030   -0.128930
  H      -0.938770    0.000470    0.000290
--
0 1
  N       3.616720   -0.000150   -0.000180
  H       4.009760    0.376070   -0.853010
  H       4.009810    0.549830    0.752370
  H       4.008380   -0.927430    0.100180
units angstrom
no_reorient
symmetry c1
}

set {
scf_type DF
mp2_type DF
e_convergence 7
reference rhf
}

energy('mp2/aug-cc-pv[tq]z', bsse_type='cp')
--------------------------------------------------------------------------

    Molecular point group: c1
  Charge       = 0
  Multiplicity = 1
  Basis Set: AUG-CC-PVTZ
    Blend: AUG-CC-PVTZ
  Basis Set: (AUG-CC-PVTZ AUX)
    Blend: AUG-CC-PVTZ-JKFIT
  @DF-RHF Final Energy:   -56.22023112993661
    Total Energy =                        -56.2202311299366073
  Basis Set: (AUG-CC-PVTZ AUX)
    Blend: AUG-CC-PVTZ-RI
	 Reference Energy          =     -56.2202311299366073 [Eh]
	 Singles Energy            =      -0.0000000000000000 [Eh]
	 Same-Spin Energy          =      -0.0560746862466399 [Eh]
	 Opposite-Spin Energy      =      -0.2010718188197789 [Eh]
	 Correlation Energy        =      -0.2571465050664187 [Eh]
	 Total Energy              =     -56.4773776350030232 [Eh]
	 SCS Total Energy          =     -56.4802088746025532 [Eh]
    Molecular point group: c1
  Basis Set: AUG-CC-PVQZ
    Blend: AUG-CC-PVQZ
  Basis Set: (AUG-CC-PVQZ AUX)
    Blend: AUG-CC-PVQZ-JKFIT
  @DF-RHF Final Energy:   -56.22388310437045
    Total Energy =                        -56.2238831043704508
  Basis Set: (AUG-CC-PVQZ AUX)
  @DF-RHF Final Energy:   -56.22024090286136
    Total Energy =                        -56.2202409028613630
  @DF-RHF Final Energy:   -56.22388661976267
    Total Energy =                        -56.2238866197626663
  @DF-RHF Final Energy:   -40.21365579501251
    Total Energy =                        -40.2136557950125066
  @DF-RHF Final Energy:   -40.21628477405477
    Total Energy =                        -40.2162847740547704
  @DF-RHF Final Energy:   -40.21365372201123
    Total Energy =                        -40.2136537220112302
  @DF-RHF Final Energy:   -40.21628410193004
    Total Energy =                        -40.2162841019300359
  Multiplicity = 1
  @DF-RHF Final Energy:   -96.43402088757722
    Total Energy =                        -96.4340208875772191
	 Singles Energy            =      -0.0000000000000000 [Eh]
	 Same-Spin Energy          =      -0.0953509793344250 [Eh]
	 Opposite-Spin Energy      =      -0.3812745992886464 [Eh]
	 Correlation Energy        =      -0.4766255786230713 [Eh]
	 Total Energy              =     -96.9106464662002907 [Eh]
	 SCS Total Energy          =     -96.9233340665017380 [Eh]
    Molecular point group: c1

    Geometry (in Angstrom), charge = 0, multiplicity = 1:

       Center              X                  Y                   Z               Mass
    ------------   -----------------  -----------------  -----------------  -----------------
         C           -2.941191592414     0.000126244945     0.000083595762    12.000000000000
         H           -3.307261592414    -0.618693755055    -0.813866404238     1.007825032230
         H           -3.307811592414    -0.395513755055     0.942703595762     1.007825032230
         H           -3.308121592414     1.014126244945    -0.128836404238     1.007825032230
         H           -1.855131592414     0.000566244945     0.000383595762     1.007825032230
         N            2.700358407586    -0.000053755055    -0.000086404238    14.003074004430
         H            3.093398407586     0.376166244945    -0.852916404238     1.007825032230
         H            3.093448407586     0.549926244945     0.752463595762     1.007825032230
         H            3.092018407586    -0.927333755055     0.100273595762     1.007825032230

  Charge       = 0
  Multiplicity = 1
  Basis Set: AUG-CC-PVQZ
    Blend: AUG-CC-PVQZ
  Basis Set: (AUG-CC-PVQZ AUX)
    Blend: AUG-CC-PVQZ-JKFIT

    Orbital Energies [Eh]
    ---------------------

    Doubly Occupied:

       1A    -15.541035     2A    -11.197073     3A     -1.144439
       4A     -0.936712     5A     -0.628346     6A     -0.628322
       7A     -0.538704     8A     -0.538355     9A     -0.538348
      10A     -0.432704

  @DF-RHF Final Energy:   -96.44029541361341

   => Energetics <=

    Nuclear Repulsion Energy =             34.6318738819519965
    One-Electron Energy =                -197.8962583544179097
    Two-Electron Energy =                  66.8240890588524934
    Total Energy =                        -96.4402954136134127

  Dipole Moment: [D]
     X:     1.7235      Y:    -0.0016      Z:     0.0001     Total:     1.7235

  Basis Set: (AUG-CC-PVQZ AUX)
    Blend: AUG-CC-PVQZ-RI
	 Reference Energy          =     -96.4402954136134127 [Eh]
	 Singles Energy            =      -0.0000000000000000 [Eh]
	 Same-Spin Energy          =      -0.1010582085580314 [Eh]
	 Opposite-Spin Energy      =      -0.4235221714903851 [Eh]
	 Correlation Energy        =      -0.5245803800484166 [Eh]
	 Total Energy              =     -96.9648757936618324 [Eh]

	 ================> DF-SCS-MP2 Energies <==================
	-----------------------------------------------------------
	 SCS Same-Spin Scale       =       0.3333333333333333 [-]
	 SCS Opposite-Spin Scale   =       1.2000000000000000 [-]
	 SCS Same-Spin Energy      =      -0.0336860695193438 [Eh]
	 SCS Opposite-Spin Energy  =      -0.5082266057884620 [Eh]
	 SCS Correlation Energy    =      -0.5419126753078058 [Eh]
	 SCS Total Energy          =     -96.9822080889212117 [Eh]
	-----------------------------------------------------------

*** Psi4 exiting successfully. Buy a developer a beer!
