                               Psi4 1.4a2.dev224

  ==> Input File <==

--------------------------------------------------------------------------
#Generated by lconvert.py for cbs job

memory 40 GB

molecule  {
0 1
  C       -2.0248320     0.0000260    -0.0000050
  H       -2.3909010    -0.6187910    -0.8139580
  H       -2.3914520    -0.3956150     0.9426100
  H       -2.3917560     1.0140310    -0.1289270
  H       -0.9387720     0.0004680     0.0002870
--
0 1
  N        1.6236909     0.0001233     0.0000224
  H        2.0167279     0.3763363    -0.8528016
  H        2.0167819     0.5500953     0.7525744
  H        2.0153509    -0.9271597     0.1003824
units angstrom
no_reorient
symmetry c1
}

set {
scf_type DF
mp2_type DF
e_convergence 7
reference rhf
}

energy('mp2/aug-cc-pv[tq]z', bsse_type='cp')
--------------------------------------------------------------------------

    Molecular point group: c1
  Charge       = 0
  Multiplicity = 1
  Basis Set: AUG-CC-PVTZ
    Blend: AUG-CC-PVTZ
  Basis Set: (AUG-CC-PVTZ AUX)
    Blend: AUG-CC-PVTZ-JKFIT
  @DF-RHF Final Energy:   -56.22023127991410
    Total Energy =                        -56.2202312799141026
  Basis Set: (AUG-CC-PVTZ AUX)
    Blend: AUG-CC-PVTZ-RI
	 Reference Energy          =     -56.2202312799141026 [Eh]
	 Singles Energy            =      -0.0000000000000000 [Eh]
	 Same-Spin Energy          =      -0.0560746624076518 [Eh]
	 Opposite-Spin Energy      =      -0.2010717005514435 [Eh]
	 Correlation Energy        =      -0.2571463629590953 [Eh]
	 Total Energy              =     -56.4773776428732006 [Eh]
	 SCS Total Energy          =     -56.4802088747117210 [Eh]
    Molecular point group: c1
  Basis Set: AUG-CC-PVQZ
    Blend: AUG-CC-PVQZ
  Basis Set: (AUG-CC-PVQZ AUX)
    Blend: AUG-CC-PVQZ-JKFIT
  @DF-RHF Final Energy:   -56.22388326463955
    Total Energy =                        -56.2238832646395537
  Basis Set: (AUG-CC-PVQZ AUX)
  @DF-RHF Final Energy:   -56.22025592095606
    Total Energy =                        -56.2202559209560633
  @DF-RHF Final Energy:   -56.22389555637762
    Total Energy =                        -56.2238955563776273
  @DF-RHF Final Energy:   -40.21366953976490
    Total Energy =                        -40.2136695397649007
  @DF-RHF Final Energy:   -40.21628991872639
    Total Energy =                        -40.2162899187263889
  @DF-RHF Final Energy:   -40.21365373483773
    Total Energy =                        -40.2136537348377274
  @DF-RHF Final Energy:   -40.21628411542306
    Total Energy =                        -40.2162841154230648
  Multiplicity = 1
  @DF-RHF Final Energy:   -96.43309867702408
    Total Energy =                        -96.4330986770240770
	 Singles Energy            =      -0.0000000000000000 [Eh]
	 Same-Spin Energy          =      -0.0962513512058042 [Eh]
	 Opposite-Spin Energy      =      -0.3825401503518285 [Eh]
	 Correlation Energy        =      -0.4787915015576327 [Eh]
	 Total Energy              =     -96.9118901785817144 [Eh]
	 SCS Total Energy          =     -96.9242306411815377 [Eh]
    Molecular point group: c1

    Geometry (in Angstrom), charge = 0, multiplicity = 1:

       Center              X                  Y                   Z               Mass
    ------------   -----------------  -----------------  -----------------  -----------------
         C           -1.914676875660    -0.000016304910    -0.000017770861    12.000000000000
         H           -2.280745875660    -0.618833304910    -0.813970770861     1.007825032230
         H           -2.281296875660    -0.395657304910     0.942597229139     1.007825032230
         H           -2.281600875660     1.013988695090    -0.128939770861     1.007825032230
         H           -0.828616875660     0.000425695090     0.000274229139     1.007825032230
         N            1.733846024340     0.000080995090     0.000009629139    14.003074004430
         H            2.126883024340     0.376293995090    -0.852814370861     1.007825032230
         H            2.126937024340     0.550052995090     0.752561629139     1.007825032230
         H            2.125506024340    -0.927202004910     0.100369629139     1.007825032230

  Charge       = 0
  Multiplicity = 1
  Basis Set: AUG-CC-PVQZ
    Blend: AUG-CC-PVQZ
  Basis Set: (AUG-CC-PVQZ AUX)
    Blend: AUG-CC-PVQZ-JKFIT

    Orbital Energies [Eh]
    ---------------------

    Doubly Occupied:

       1A    -15.542825     2A    -11.182498     3A     -1.147419
       4A     -0.924120     5A     -0.631073     6A     -0.631053
       7A     -0.527534     8A     -0.526743     9A     -0.526737
      10A     -0.433161

  @DF-RHF Final Energy:   -96.43936785911654

   => Energetics <=

    Nuclear Repulsion Energy =             39.5137633990769999
    One-Electron Energy =                -207.7599371709686693
    Two-Electron Energy =                  71.8068059127751326
    Total Energy =                        -96.4393678591165440

  Dipole Moment: [D]
     X:     1.9912      Y:    -0.0014      Z:     0.0001     Total:     1.9912

  Basis Set: (AUG-CC-PVQZ AUX)
    Blend: AUG-CC-PVQZ-RI
	 Reference Energy          =     -96.4393678591165440 [Eh]
	 Singles Energy            =      -0.0000000000000000 [Eh]
	 Same-Spin Energy          =      -0.1019428059784766 [Eh]
	 Opposite-Spin Energy      =      -0.4244919094993543 [Eh]
	 Correlation Energy        =      -0.5264347154778309 [Eh]
	 Total Energy              =     -96.9658025745943775 [Eh]

	 ================> DF-SCS-MP2 Energies <==================
	-----------------------------------------------------------
	 SCS Same-Spin Scale       =       0.3333333333333333 [-]
	 SCS Opposite-Spin Scale   =       1.2000000000000000 [-]
	 SCS Same-Spin Energy      =      -0.0339809353261589 [Eh]
	 SCS Opposite-Spin Energy  =      -0.5093902913992252 [Eh]
	 SCS Correlation Energy    =      -0.5433712267253841 [Eh]
	 SCS Total Energy          =     -96.9827390858419278 [Eh]
	-----------------------------------------------------------

*** Psi4 exiting successfully. Buy a developer a beer!
