                               Psi4 1.4a2.dev224

  ==> Input File <==

--------------------------------------------------------------------------
#Generated by lconvert.py for cbs job

memory 40 GB

molecule  {
0 1
  C       -2.0248320     0.0000260    -0.0000050
  H       -2.3909010    -0.6187910    -0.8139580
  H       -2.3914520    -0.3956150     0.9426100
  H       -2.3917560     1.0140310    -0.1289270
  H       -0.9387720     0.0004680     0.0002870
--
0 1
  N        1.3389728     0.0001616     0.0000518
  H        1.7320098     0.3763746    -0.8527722
  H        1.7320638     0.5501336     0.7526038
  H        1.7306328    -0.9271214     0.1004118
units angstrom
no_reorient
symmetry c1
}

set {
scf_type DF
mp2_type DF
e_convergence 7
reference rhf
}

energy('mp2/aug-cc-pv[tq]z', bsse_type='cp')
--------------------------------------------------------------------------

    Molecular point group: c1
  Charge       = 0
  Multiplicity = 1
  Basis Set: AUG-CC-PVTZ
    Blend: AUG-CC-PVTZ
  Basis Set: (AUG-CC-PVTZ AUX)
    Blend: AUG-CC-PVTZ-JKFIT
  @DF-RHF Final Energy:   -56.22023127991310
    Total Energy =                        -56.2202312799130937
  Basis Set: (AUG-CC-PVTZ AUX)
    Blend: AUG-CC-PVTZ-RI
	 Reference Energy          =     -56.2202312799131008 [Eh]
	 Singles Energy            =      -0.0000000000000000 [Eh]
	 Same-Spin Energy          =      -0.0560746624076757 [Eh]
	 Opposite-Spin Energy      =      -0.2010717005514886 [Eh]
	 Correlation Energy        =      -0.2571463629591643 [Eh]
	 Total Energy              =     -56.4773776428722627 [Eh]
	 SCS Total Energy          =     -56.4802088747107760 [Eh]
    Molecular point group: c1
  Basis Set: AUG-CC-PVQZ
    Blend: AUG-CC-PVQZ
  Basis Set: (AUG-CC-PVQZ AUX)
    Blend: AUG-CC-PVQZ-JKFIT
  @DF-RHF Final Energy:   -56.22388326464142
    Total Energy =                        -56.2238832646414153
  Basis Set: (AUG-CC-PVQZ AUX)
  @DF-RHF Final Energy:   -56.22026246293656
    Total Energy =                        -56.2202624629365602
  @DF-RHF Final Energy:   -56.22389963660609
    Total Energy =                        -56.2238996366060917
  @DF-RHF Final Energy:   -40.21367366199807
    Total Energy =                        -40.2136736619980653
  @DF-RHF Final Energy:   -40.21629176004270
    Total Energy =                        -40.2162917600427008
  @DF-RHF Final Energy:   -40.21365373484398
    Total Energy =                        -40.2136537348439802
  @DF-RHF Final Energy:   -40.21628411542420
    Total Energy =                        -40.2162841154242017
  Multiplicity = 1
  @DF-RHF Final Energy:   -96.43062165436551
    Total Energy =                        -96.4306216543655097
	 Singles Energy            =      -0.0000000000000000 [Eh]
	 Same-Spin Energy          =      -0.0968410171534906 [Eh]
	 Opposite-Spin Energy      =      -0.3832800347718391 [Eh]
	 Correlation Energy        =      -0.4801210519253298 [Eh]
	 Total Energy              =     -96.9107427062908329 [Eh]
	 SCS Total Energy          =     -96.9228380351428740 [Eh]
    Molecular point group: c1

    Geometry (in Angstrom), charge = 0, multiplicity = 1:

       Center              X                  Y                   Z               Mass
    ------------   -----------------  -----------------  -----------------  -----------------
         C           -1.768031923779    -0.000036031446    -0.000032913424    12.000000000000
         H           -2.134100923779    -0.618853031446    -0.813985913424     1.007825032230
         H           -2.134651923779    -0.395677031446     0.942582086576     1.007825032230
         H           -2.134955923779     1.013968968554    -0.128954913424     1.007825032230
         H           -0.681971923779     0.000405968554     0.000259086576     1.007825032230
         N            1.595772876221     0.000099568554     0.000023886576    14.003074004430
         H            1.988809876221     0.376312568554    -0.852800113424     1.007825032230
         H            1.988863876221     0.550071568554     0.752575886576     1.007825032230
         H            1.987432876221    -0.927183431446     0.100383886576     1.007825032230

  Charge       = 0
  Multiplicity = 1
  Basis Set: AUG-CC-PVQZ
    Blend: AUG-CC-PVQZ
  Basis Set: (AUG-CC-PVQZ AUX)
    Blend: AUG-CC-PVQZ-JKFIT

    Orbital Energies [Eh]
    ---------------------

    Doubly Occupied:

       1A    -15.543167     2A    -11.176345     3A     -1.149196
       4A     -0.919817     5A     -0.632541     6A     -0.632521
       7A     -0.528861     8A     -0.522566     9A     -0.522561
      10A     -0.429348

  @DF-RHF Final Energy:   -96.43689634056004

   => Energetics <=

    Nuclear Repulsion Energy =             40.6789383273984910
    One-Electron Energy =                -210.1178236554156626
    Two-Electron Energy =                  73.0019889874571248
    Total Energy =                        -96.4368963405600397

  Dipole Moment: [D]
     X:     2.1128      Y:    -0.0014      Z:     0.0001     Total:     2.1128

  Basis Set: (AUG-CC-PVQZ AUX)
    Blend: AUG-CC-PVQZ-RI
	 Reference Energy          =     -96.4368963405600397 [Eh]
	 Singles Energy            =      -0.0000000000000000 [Eh]
	 Same-Spin Energy          =      -0.1025323883768119 [Eh]
	 Opposite-Spin Energy      =      -0.4251110504084549 [Eh]
	 Correlation Energy        =      -0.5276434387852668 [Eh]
	 Total Energy              =     -96.9645397793453014 [Eh]

	 ================> DF-SCS-MP2 Energies <==================
	-----------------------------------------------------------
	 SCS Same-Spin Scale       =       0.3333333333333333 [-]
	 SCS Opposite-Spin Scale   =       1.2000000000000000 [-]
	 SCS Same-Spin Energy      =      -0.0341774627922706 [Eh]
	 SCS Opposite-Spin Energy  =      -0.5101332604901458 [Eh]
	 SCS Correlation Energy    =      -0.5443107232824165 [Eh]
	 SCS Total Energy          =     -96.9812070638424615 [Eh]
	-----------------------------------------------------------

*** Psi4 exiting successfully. Buy a developer a beer!
