                               Psi4 1.4a2.dev224

  ==> Input File <==

--------------------------------------------------------------------------
#Generated by lconvert.py for cbs job

memory 40 GB

molecule  {
0 1
  C       -2.0248320     0.0000260    -0.0000050
  H       -2.3909010    -0.6187910    -0.8139580
  H       -2.3914520    -0.3956150     0.9426100
  H       -2.3917560     1.0140310    -0.1289270
  H       -0.9387720     0.0004680     0.0002870
--
0 1
  N        2.0507680     0.0000659    -0.0000217
  H        2.4438050     0.3762788    -0.8528457
  H        2.4438590     0.5500379     0.7525303
  H        2.4424281    -0.9272172     0.1003383
units angstrom
no_reorient
symmetry c1
}

set {
scf_type DF
mp2_type DF
e_convergence 7
reference rhf
}

energy('mp2/aug-cc-pv[tq]z', bsse_type='cp')
--------------------------------------------------------------------------

    Molecular point group: c1
  Charge       = 0
  Multiplicity = 1
  Basis Set: AUG-CC-PVTZ
    Blend: AUG-CC-PVTZ
  Basis Set: (AUG-CC-PVTZ AUX)
    Blend: AUG-CC-PVTZ-JKFIT
  @DF-RHF Final Energy:   -56.22023127794409
    Total Energy =                        -56.2202312779440945
  Basis Set: (AUG-CC-PVTZ AUX)
    Blend: AUG-CC-PVTZ-RI
	 Reference Energy          =     -56.2202312779440945 [Eh]
	 Singles Energy            =      -0.0000000000000000 [Eh]
	 Same-Spin Energy          =      -0.0560746627033262 [Eh]
	 Opposite-Spin Energy      =      -0.2010717019638190 [Eh]
	 Correlation Energy        =      -0.2571463646671452 [Eh]
	 Total Energy              =     -56.4773776426112377 [Eh]
	 SCS Total Energy          =     -56.4802088745351227 [Eh]
    Molecular point group: c1
  Basis Set: AUG-CC-PVQZ
    Blend: AUG-CC-PVQZ
  Basis Set: (AUG-CC-PVQZ AUX)
    Blend: AUG-CC-PVQZ-JKFIT
  @DF-RHF Final Energy:   -56.22388326252967
    Total Energy =                        -56.2238832625296681
  Basis Set: (AUG-CC-PVQZ AUX)
  @DF-RHF Final Energy:   -56.22025306509062
    Total Energy =                        -56.2202530650906169
  @DF-RHF Final Energy:   -56.22389071816536
    Total Energy =                        -56.2238907181653573
  @DF-RHF Final Energy:   -40.21366381784637
    Total Energy =                        -40.2136638178463670
  @DF-RHF Final Energy:   -40.21628744125775
    Total Energy =                        -40.2162874412577480
  @DF-RHF Final Energy:   -40.21365373484505
    Total Energy =                        -40.2136537348450460
  @DF-RHF Final Energy:   -40.21628411541305
    Total Energy =                        -40.2162841154130462
  Multiplicity = 1
  @DF-RHF Final Energy:   -96.43413104599819
    Total Energy =                        -96.4341310459981855
	 Singles Energy            =      -0.0000000000000000 [Eh]
	 Same-Spin Energy          =      -0.0957716579994436 [Eh]
	 Opposite-Spin Energy      =      -0.3818595175750905 [Eh]
	 Correlation Energy        =      -0.4776311755745342 [Eh]
	 Total Energy              =     -96.9117622215727152 [Eh]
	 SCS Total Energy          =     -96.9242863530881067 [Eh]
    Molecular point group: c1

    Geometry (in Angstrom), charge = 0, multiplicity = 1:

       Center              X                  Y                   Z               Mass
    ------------   -----------------  -----------------  -----------------  -----------------
         C           -2.134644280777     0.000013265237     0.000004942982    12.000000000000
         H           -2.500713280777    -0.618803734763    -0.813948057018     1.007825032230
         H           -2.501264280777    -0.395627734763     0.942619942982     1.007825032230
         H           -2.501568280777     1.014018265237    -0.128917057018     1.007825032230
         H           -1.048584280777     0.000455265237     0.000296942982     1.007825032230
         N            1.940955719223     0.000053165237    -0.000011757018    14.003074004430
         H            2.333992719223     0.376266065237    -0.852835757018     1.007825032230
         H            2.334046719223     0.550025165237     0.752540242982     1.007825032230
         H            2.332615819223    -0.927229934763     0.100348242982     1.007825032230

  Charge       = 0
  Multiplicity = 1
  Basis Set: AUG-CC-PVQZ
    Blend: AUG-CC-PVQZ
  Basis Set: (AUG-CC-PVQZ AUX)
    Blend: AUG-CC-PVQZ-JKFIT

    Orbital Energies [Eh]
    ---------------------

    Doubly Occupied:

       1A    -15.542314     2A    -11.188313     3A     -1.146053
       4A     -0.928734     5A     -0.629874     6A     -0.629855
       7A     -0.531048     8A     -0.531043     9A     -0.529963
      10A     -0.434099

  @DF-RHF Final Energy:   -96.44039336522914

   => Energetics <=

    Nuclear Repulsion Energy =             38.0705633814992268
    One-Electron Energy =                -204.8393190796691670
    Two-Electron Energy =                  70.3283623329407988
    Total Energy =                        -96.4403933652291414

  Dipole Moment: [D]
     X:     1.8790      Y:    -0.0015      Z:     0.0001     Total:     1.8790

  Basis Set: (AUG-CC-PVQZ AUX)
    Blend: AUG-CC-PVQZ-RI
	 Reference Energy          =     -96.4403933652291414 [Eh]
	 Singles Energy            =      -0.0000000000000000 [Eh]
	 Same-Spin Energy          =      -0.1014710676148618 [Eh]
	 Opposite-Spin Energy      =      -0.4239796293848880 [Eh]
	 Correlation Energy        =      -0.5254506969997498 [Eh]
	 Total Energy              =     -96.9658440622288964 [Eh]

	 ================> DF-SCS-MP2 Energies <==================
	-----------------------------------------------------------
	 SCS Same-Spin Scale       =       0.3333333333333333 [-]
	 SCS Opposite-Spin Scale   =       1.2000000000000000 [-]
	 SCS Same-Spin Energy      =      -0.0338236892049539 [Eh]
	 SCS Opposite-Spin Energy  =      -0.5087755552618656 [Eh]
	 SCS Correlation Energy    =      -0.5425992444668195 [Eh]
	 SCS Total Energy          =     -96.9829926096959554 [Eh]
	-----------------------------------------------------------

*** Psi4 exiting successfully. Buy a developer a beer!
