                               Psi4 1.4a2.dev224

  ==> Input File <==

--------------------------------------------------------------------------
#Generated by lconvert.py for cbs job

memory 40 GB

molecule  {
0 1
  C       -2.0248320     0.0000260    -0.0000050
  H       -2.3909010    -0.6187910    -0.8139580
  H       -2.3914520    -0.3956150     0.9426100
  H       -2.3917560     1.0140310    -0.1289270
  H       -0.9387720     0.0004680     0.0002870
--
0 1
  N        2.1931271     0.0000467    -0.0000364
  H        2.5861641     0.3762597    -0.8528604
  H        2.5862181     0.5500187     0.7525156
  H        2.5847871    -0.9272363     0.1003236
units angstrom
no_reorient
symmetry c1
}

set {
scf_type DF
mp2_type DF
e_convergence 7
reference rhf
}

energy('mp2/aug-cc-pv[tq]z', bsse_type='cp')
--------------------------------------------------------------------------

    Molecular point group: c1
  Charge       = 0
  Multiplicity = 1
  Basis Set: AUG-CC-PVTZ
    Blend: AUG-CC-PVTZ
  Basis Set: (AUG-CC-PVTZ AUX)
    Blend: AUG-CC-PVTZ-JKFIT
  @DF-RHF Final Energy:   -56.22023127991701
    Total Energy =                        -56.2202312799170159
  Basis Set: (AUG-CC-PVTZ AUX)
    Blend: AUG-CC-PVTZ-RI
	 Reference Energy          =     -56.2202312799170087 [Eh]
	 Singles Energy            =      -0.0000000000000000 [Eh]
	 Same-Spin Energy          =      -0.0560746624076227 [Eh]
	 Opposite-Spin Energy      =      -0.2010717005514053 [Eh]
	 Correlation Energy        =      -0.2571463629590280 [Eh]
	 Total Energy              =     -56.4773776428760357 [Eh]
	 SCS Total Energy          =     -56.4802088747145703 [Eh]
    Molecular point group: c1
  Basis Set: AUG-CC-PVQZ
    Blend: AUG-CC-PVQZ
  Basis Set: (AUG-CC-PVQZ AUX)
    Blend: AUG-CC-PVQZ-JKFIT
  @DF-RHF Final Energy:   -56.22388326463067
    Total Energy =                        -56.2238832646306719
  Basis Set: (AUG-CC-PVQZ AUX)
  @DF-RHF Final Energy:   -56.22025100266127
    Total Energy =                        -56.2202510026612714
  @DF-RHF Final Energy:   -56.22388978088477
    Total Energy =                        -56.2238897808847753
  @DF-RHF Final Energy:   -40.21366218056998
    Total Energy =                        -40.2136621805699690
  @DF-RHF Final Energy:   -40.21628684125846
    Total Energy =                        -40.2162868412584587
  @DF-RHF Final Energy:   -40.21365373484652
    Total Energy =                        -40.2136537348465239
  @DF-RHF Final Energy:   -40.21628411543928
    Total Energy =                        -40.2162841154392794
  Multiplicity = 1
  @DF-RHF Final Energy:   -96.43420566660049
    Total Energy =                        -96.4342056666004908
	 Singles Energy            =      -0.0000000000000000 [Eh]
	 Same-Spin Energy          =      -0.0956787045277868 [Eh]
	 Opposite-Spin Energy      =      -0.3817294865227334 [Eh]
	 Correlation Energy        =      -0.4774081910505202 [Eh]
	 Total Energy              =     -96.9116138576510053 [Eh]
	 SCS Total Energy          =     -96.9241739519370356 [Eh]
    Molecular point group: c1

    Geometry (in Angstrom), charge = 0, multiplicity = 1:

       Center              X                  Y                   Z               Mass
    ------------   -----------------  -----------------  -----------------  -----------------
         C           -2.207966779422     0.000023148160     0.000012514264    12.000000000000
         H           -2.574035779422    -0.618793851840    -0.813940485736     1.007825032230
         H           -2.574586779422    -0.395617851840     0.942627514264     1.007825032230
         H           -2.574890779422     1.014028148160    -0.128909485736     1.007825032230
         H           -1.121906779422     0.000465148160     0.000304514264     1.007825032230
         N            2.009992320578     0.000043848160    -0.000018885736    14.003074004430
         H            2.403029320578     0.376256848160    -0.852842885736     1.007825032230
         H            2.403083320578     0.550015848160     0.752533114264     1.007825032230
         H            2.401652320578    -0.927239151840     0.100341114264     1.007825032230

  Charge       = 0
  Multiplicity = 1
  Basis Set: AUG-CC-PVQZ
    Blend: AUG-CC-PVQZ
  Basis Set: (AUG-CC-PVQZ AUX)
    Blend: AUG-CC-PVQZ-JKFIT

    Orbital Energies [Eh]
    ---------------------

    Doubly Occupied:

       1A    -15.542145     2A    -11.189697     3A     -1.145762
       4A     -0.929918     5A     -0.629607     6A     -0.629588
       7A     -0.532135     8A     -0.532129     9A     -0.531039
      10A     -0.434002

  @DF-RHF Final Energy:   -96.44046882297521

   => Energetics <=

    Nuclear Repulsion Energy =             37.6539627309057963
    One-Electron Energy =                -203.9968157126118058
    Two-Electron Energy =                  69.9023841587308112
    Total Energy =                        -96.4404688229752054

  Dipole Moment: [D]
     X:     1.8528      Y:    -0.0015      Z:     0.0001     Total:     1.8528

  Basis Set: (AUG-CC-PVQZ AUX)
    Blend: AUG-CC-PVQZ-RI
	 Reference Energy          =     -96.4404688229752054 [Eh]
	 Singles Energy            =      -0.0000000000000000 [Eh]
	 Same-Spin Energy          =      -0.1013776944338298 [Eh]
	 Opposite-Spin Energy      =      -0.4238747188730099 [Eh]
	 Correlation Energy        =      -0.5252524133068397 [Eh]
	 Total Energy              =     -96.9657212362820502 [Eh]

	 ================> DF-SCS-MP2 Energies <==================
	-----------------------------------------------------------
	 SCS Same-Spin Scale       =       0.3333333333333333 [-]
	 SCS Opposite-Spin Scale   =       1.2000000000000000 [-]
	 SCS Same-Spin Energy      =      -0.0337925648112766 [Eh]
	 SCS Opposite-Spin Energy  =      -0.5086496626476118 [Eh]
	 SCS Correlation Energy    =      -0.5424422274588884 [Eh]
	 SCS Total Energy          =     -96.9829110504340974 [Eh]
	-----------------------------------------------------------

*** Psi4 exiting successfully. Buy a developer a beer!
