                               Psi4 1.4a2.dev224

  ==> Input File <==

--------------------------------------------------------------------------
#Generated by lconvert.py for cbs job

memory 20 GB

molecule  {
0 1
  C      -2.024830    0.000030   -0.000010
  H      -2.390900   -0.618790   -0.813960
  H      -2.391450   -0.395610    0.942610
  H      -2.391760    1.014030   -0.128930
  H      -0.938770    0.000470    0.000290
--
0 1
  N       2.762560   -0.000030   -0.000100
  H       3.155600    0.376180   -0.852920
  H       3.155650    0.549940    0.752460
  H       3.154220   -0.927310    0.100270
units angstrom
no_reorient
symmetry c1
}

set {
scf_type DF
mp2_type DF
e_convergence 7
reference rhf
}

energy('mp2/aug-cc-pv[tq]z', bsse_type='cp')
--------------------------------------------------------------------------

    Molecular point group: c1
  Charge       = 0
  Multiplicity = 1
  Basis Set: AUG-CC-PVTZ
    Blend: AUG-CC-PVTZ
  Basis Set: (AUG-CC-PVTZ AUX)
    Blend: AUG-CC-PVTZ-JKFIT
  @DF-RHF Final Energy:   -56.22023128104382
    Total Energy =                        -56.2202312810438158
  Basis Set: (AUG-CC-PVTZ AUX)
    Blend: AUG-CC-PVTZ-RI
	 Reference Energy          =     -56.2202312810438158 [Eh]
	 Singles Energy            =      -0.0000000000000000 [Eh]
	 Same-Spin Energy          =      -0.0560746617011764 [Eh]
	 Opposite-Spin Energy      =      -0.2010716955571236 [Eh]
	 Correlation Energy        =      -0.2571463572583000 [Eh]
	 Total Energy              =     -56.4773776383021158 [Eh]
	 SCS Total Energy          =     -56.4802088696127598 [Eh]
    Molecular point group: c1
  Basis Set: AUG-CC-PVQZ
    Blend: AUG-CC-PVQZ
  Basis Set: (AUG-CC-PVQZ AUX)
    Blend: AUG-CC-PVQZ-JKFIT
  @DF-RHF Final Energy:   -56.22388326659030
    Total Energy =                        -56.2238832665902990
  Basis Set: (AUG-CC-PVQZ AUX)
  @DF-RHF Final Energy:   -56.22024587957827
    Total Energy =                        -56.2202458795782718
  @DF-RHF Final Energy:   -56.22388849185754
    Total Energy =                        -56.2238884918575437
  @DF-RHF Final Energy:   -40.21365782966635
    Total Energy =                        -40.2136578296663529
  @DF-RHF Final Energy:   -40.21628560485507
    Total Energy =                        -40.2162856048550665
  @DF-RHF Final Energy:   -40.21365372201599
    Total Energy =                        -40.2136537220159909
  @DF-RHF Final Energy:   -40.21628410192231
    Total Energy =                        -40.2162841019223123
  Multiplicity = 1
  @DF-RHF Final Energy:   -96.43417283791392
    Total Energy =                        -96.4341728379139198
	 Singles Energy            =      -0.0000000000000000 [Eh]
	 Same-Spin Energy          =      -0.0954656682108587 [Eh]
	 Opposite-Spin Energy      =      -0.3814381426774506 [Eh]
	 Correlation Energy        =      -0.4769038108883092 [Eh]
	 Total Energy              =     -96.9110766488022222 [Eh]
	 SCS Total Energy          =     -96.9237204985304857 [Eh]
    Molecular point group: c1

    Geometry (in Angstrom), charge = 0, multiplicity = 1:

       Center              X                  Y                   Z               Mass
    ------------   -----------------  -----------------  -----------------  -----------------
         C           -2.501253800969     0.000065048303     0.000041476909    12.000000000000
         H           -2.867323800969    -0.618754951697    -0.813908523091     1.007825032230
         H           -2.867873800969    -0.395574951697     0.942661476909     1.007825032230
         H           -2.868183800969     1.014065048303    -0.128878523091     1.007825032230
         H           -1.415193800969     0.000505048303     0.000341476909     1.007825032230
         N            2.286136199031     0.000005048303    -0.000048523091    14.003074004430
         H            2.679176199031     0.376215048303    -0.852868523091     1.007825032230
         H            2.679226199031     0.549975048303     0.752511476909     1.007825032230
         H            2.677796199031    -0.927274951697     0.100321476909     1.007825032230

  Charge       = 0
  Multiplicity = 1
  Basis Set: AUG-CC-PVQZ
    Blend: AUG-CC-PVQZ
  Basis Set: (AUG-CC-PVQZ AUX)
    Blend: AUG-CC-PVQZ-JKFIT

    Orbital Energies [Eh]
    ---------------------

    Doubly Occupied:

       1A    -15.541561     2A    -11.193664     3A     -1.144991
       4A     -0.933484     5A     -0.628880     6A     -0.628860
       7A     -0.535392     8A     -0.535385     9A     -0.534896
      10A     -0.433349

  @DF-RHF Final Energy:   -96.44044171506293

   => Energetics <=

    Nuclear Repulsion Energy =             36.2326442149064007
    One-Electron Energy =                -201.1252481882086727
    Two-Electron Energy =                  68.4521622582393405
    Total Energy =                        -96.4404417150629314

  Dipole Moment: [D]
     X:     1.7801      Y:    -0.0015      Z:     0.0001     Total:     1.7801

  Basis Set: (AUG-CC-PVQZ AUX)
    Blend: AUG-CC-PVQZ-RI
	 Reference Energy          =     -96.4404417150629314 [Eh]
	 Singles Energy            =      -0.0000000000000000 [Eh]
	 Same-Spin Energy          =      -0.1011656176202136 [Eh]
	 Opposite-Spin Energy      =      -0.4236372313390879 [Eh]
	 Correlation Energy        =      -0.5248028489593015 [Eh]
	 Total Energy              =     -96.9652445640222282 [Eh]

	 ================> DF-SCS-MP2 Energies <==================
	-----------------------------------------------------------
	 SCS Same-Spin Scale       =       0.3333333333333333 [-]
	 SCS Opposite-Spin Scale   =       1.2000000000000000 [-]
	 SCS Same-Spin Energy      =      -0.0337218725400712 [Eh]
	 SCS Opposite-Spin Energy  =      -0.5083646776069054 [Eh]
	 SCS Correlation Energy    =      -0.5420865501469766 [Eh]
	 SCS Total Energy          =     -96.9825282652099077 [Eh]
	-----------------------------------------------------------

*** Psi4 exiting successfully. Buy a developer a beer!
