                               Psi4 1.4a2.dev224

  ==> Input File <==

--------------------------------------------------------------------------
#Generated by lconvert.py for cbs job

memory 40 GB

molecule  {
0 1
  C       -2.0248320     0.0000260    -0.0000050
  H       -2.3909010    -0.6187910    -0.8139580
  H       -2.3914520    -0.3956150     0.9426100
  H       -2.3917560     1.0140310    -0.1289270
  H       -0.9387720     0.0004680     0.0002870
--
0 1
  N        1.7660499     0.0001041     0.0000077
  H        2.1590869     0.3763171    -0.8528163
  H        2.1591409     0.5500761     0.7525597
  H        2.1577100    -0.9271788     0.1003677
units angstrom
no_reorient
symmetry c1
}

set {
scf_type DF
mp2_type DF
e_convergence 7
reference rhf
}

energy('mp2/aug-cc-pv[tq]z', bsse_type='cp')
--------------------------------------------------------------------------

    Molecular point group: c1
  Charge       = 0
  Multiplicity = 1
  Basis Set: AUG-CC-PVTZ
    Blend: AUG-CC-PVTZ
  Basis Set: (AUG-CC-PVTZ AUX)
    Blend: AUG-CC-PVTZ-JKFIT
  @DF-RHF Final Energy:   -56.22023128033609
    Total Energy =                        -56.2202312803360869
  Basis Set: (AUG-CC-PVTZ AUX)
    Blend: AUG-CC-PVTZ-RI
	 Reference Energy          =     -56.2202312803360869 [Eh]
	 Singles Energy            =      -0.0000000000000000 [Eh]
	 Same-Spin Energy          =      -0.0560746623114369 [Eh]
	 Opposite-Spin Energy      =      -0.2010716999957462 [Eh]
	 Correlation Energy        =      -0.2571463623071831 [Eh]
	 Total Energy              =     -56.4773776426432690 [Eh]
	 SCS Total Energy          =     -56.4802088744347941 [Eh]
    Molecular point group: c1
  Basis Set: AUG-CC-PVQZ
    Blend: AUG-CC-PVQZ
  Basis Set: (AUG-CC-PVQZ AUX)
    Blend: AUG-CC-PVQZ-JKFIT
  @DF-RHF Final Energy:   -56.22388326513211
    Total Energy =                        -56.2238832651321090
  Basis Set: (AUG-CC-PVQZ AUX)
  @DF-RHF Final Energy:   -56.22025509651193
    Total Energy =                        -56.2202550965119343
  @DF-RHF Final Energy:   -56.22389388713897
    Total Energy =                        -56.2238938871389706
  @DF-RHF Final Energy:   -40.21366754672820
    Total Energy =                        -40.2136675467281961
  @DF-RHF Final Energy:   -40.21628901607980
    Total Energy =                        -40.2162890160797986
  @DF-RHF Final Energy:   -40.21365373484823
    Total Energy =                        -40.2136537348482292
  @DF-RHF Final Energy:   -40.21628411545065
    Total Energy =                        -40.2162841154506481
  Multiplicity = 1
  @DF-RHF Final Energy:   -96.43365286864496
    Total Energy =                        -96.4336528686449554
	 Singles Energy            =      -0.0000000000000000 [Eh]
	 Same-Spin Energy          =      -0.0960492752938187 [Eh]
	 Opposite-Spin Energy      =      -0.3822583740507201 [Eh]
	 Correlation Energy        =      -0.4783076493445387 [Eh]
	 Total Energy              =     -96.9119605179894990 [Eh]
	 SCS Total Energy          =     -96.9243793426037570 [Eh]
    Molecular point group: c1

    Geometry (in Angstrom), charge = 0, multiplicity = 1:

       Center              X                  Y                   Z               Mass
    ------------   -----------------  -----------------  -----------------  -----------------
         C           -1.987999328896    -0.000006418939    -0.000010199580    12.000000000000
         H           -2.354068328896    -0.618823418939    -0.813963199580     1.007825032230
         H           -2.354619328896    -0.395647418939     0.942604800420     1.007825032230
         H           -2.354923328896     1.013998581061    -0.128932199580     1.007825032230
         H           -0.901939328896     0.000435581061     0.000281800420     1.007825032230
         N            1.802882571104     0.000071681061     0.000002500420    14.003074004430
         H            2.195919571104     0.376284681061    -0.852821499580     1.007825032230
         H            2.195973571104     0.550043681061     0.752554500420     1.007825032230
         H            2.194542671104    -0.927211218939     0.100362500420     1.007825032230

  Charge       = 0
  Multiplicity = 1
  Basis Set: AUG-CC-PVQZ
    Blend: AUG-CC-PVQZ
  Basis Set: (AUG-CC-PVQZ AUX)
    Blend: AUG-CC-PVQZ-JKFIT

    Orbital Energies [Eh]
    ---------------------

    Doubly Occupied:

       1A    -15.542657     2A    -11.184784     3A     -1.146851
       4A     -0.925865     5A     -0.630584     6A     -0.630565
       7A     -0.528388     8A     -0.528382     9A     -0.528059
      10A     -0.433824

  @DF-RHF Final Energy:   -96.43991870738490

   => Energetics <=

    Nuclear Repulsion Energy =             38.9967745390577747
    One-Electron Energy =                -206.7134675923527993
    Two-Electron Energy =                  71.2767743459101126
    Total Energy =                        -96.4399187073849049

  Dipole Moment: [D]
     X:     1.9468      Y:    -0.0015      Z:     0.0001     Total:     1.9468

  Basis Set: (AUG-CC-PVQZ AUX)
    Blend: AUG-CC-PVQZ-RI
	 Reference Energy          =     -96.4399187073849049 [Eh]
	 Singles Energy            =      -0.0000000000000000 [Eh]
	 Same-Spin Energy          =      -0.1017445816380922 [Eh]
	 Opposite-Spin Energy      =      -0.4242805193648120 [Eh]
	 Correlation Energy        =      -0.5260251010029042 [Eh]
	 Total Energy              =     -96.9659438083878058 [Eh]

	 ================> DF-SCS-MP2 Energies <==================
	-----------------------------------------------------------
	 SCS Same-Spin Scale       =       0.3333333333333333 [-]
	 SCS Opposite-Spin Scale   =       1.2000000000000000 [-]
	 SCS Same-Spin Energy      =      -0.0339148605460307 [Eh]
	 SCS Opposite-Spin Energy  =      -0.5091366232377744 [Eh]
	 SCS Correlation Energy    =      -0.5430514837838052 [Eh]
	 SCS Total Energy          =     -96.9829701911687039 [Eh]
	-----------------------------------------------------------

*** Psi4 exiting successfully. Buy a developer a beer!
