                               Psi4 1.4a2.dev224

  ==> Input File <==

--------------------------------------------------------------------------
#Generated by lconvert.py for cbs job

memory 40 GB

molecule  {
0 1
  C       -2.0248320     0.0000260    -0.0000050
  H       -2.3909010    -0.6187910    -0.8139580
  H       -2.3914520    -0.3956150     0.9426100
  H       -2.3917560     1.0140310    -0.1289270
  H       -0.9387720     0.0004680     0.0002870
--
0 1
  N        1.0542547     0.0001999     0.0000812
  H        1.4472917     0.3764129    -0.8527428
  H        1.4473457     0.5501719     0.7526332
  H        1.4459147    -0.9270831     0.1004412
units angstrom
no_reorient
symmetry c1
}

set {
scf_type DF
mp2_type DF
e_convergence 7
reference rhf
}

energy('mp2/aug-cc-pv[tq]z', bsse_type='cp')
--------------------------------------------------------------------------

    Molecular point group: c1
  Charge       = 0
  Multiplicity = 1
  Basis Set: AUG-CC-PVTZ
    Blend: AUG-CC-PVTZ
  Basis Set: (AUG-CC-PVTZ AUX)
    Blend: AUG-CC-PVTZ-JKFIT
  @DF-RHF Final Energy:   -56.22023127991775
    Total Energy =                        -56.2202312799177548
  Basis Set: (AUG-CC-PVTZ AUX)
    Blend: AUG-CC-PVTZ-RI
	 Reference Energy          =     -56.2202312799177548 [Eh]
	 Singles Energy            =      -0.0000000000000000 [Eh]
	 Same-Spin Energy          =      -0.0560746624076694 [Eh]
	 Opposite-Spin Energy      =      -0.2010717005514995 [Eh]
	 Correlation Energy        =      -0.2571463629591689 [Eh]
	 Total Energy              =     -56.4773776428769239 [Eh]
	 SCS Total Energy          =     -56.4802088747154443 [Eh]
    Molecular point group: c1
  Basis Set: AUG-CC-PVQZ
    Blend: AUG-CC-PVQZ
  Basis Set: (AUG-CC-PVQZ AUX)
    Blend: AUG-CC-PVQZ-JKFIT
  @DF-RHF Final Energy:   -56.22388326464731
    Total Energy =                        -56.2238832646472986
  Basis Set: (AUG-CC-PVQZ AUX)
  @DF-RHF Final Energy:   -56.22028253184256
    Total Energy =                        -56.2202825318425639
  @DF-RHF Final Energy:   -56.22390529934463
    Total Energy =                        -56.2239052993446222
  @DF-RHF Final Energy:   -40.21367779649699
    Total Energy =                        -40.2136777964969809
  @DF-RHF Final Energy:   -40.21629385834632
    Total Energy =                        -40.2162938583463188
  @DF-RHF Final Energy:   -40.21365373485821
    Total Energy =                        -40.2136537348582053
  @DF-RHF Final Energy:   -40.21628411541340
    Total Energy =                        -40.2162841154134014
  @DF-RHF Final Energy:   -96.42423161491372
    Total Energy =                        -96.4242316149137224
  @DF-RHF Final Energy:   -96.43049490929241
    Total Energy =                        -96.4304949092924062
*** Psi4 exiting successfully. Buy a developer a beer!
                               Psi4 1.4a2.dev224
  @DF-RHF Final Energy:   -56.22023127991310
    Total Energy =                        -56.2202312799130937
  @DF-RHF Final Energy:   -56.22388326464142
    Total Energy =                        -56.2238832646414153
  @DF-RHF Final Energy:   -56.22026246293656
    Total Energy =                        -56.2202624629365602
  @DF-RHF Final Energy:   -56.22389963660609
    Total Energy =                        -56.2238996366060917
  @DF-RHF Final Energy:   -40.21367366199807
    Total Energy =                        -40.2136736619980653
  @DF-RHF Final Energy:   -40.21629176004270
    Total Energy =                        -40.2162917600427008
  @DF-RHF Final Energy:   -40.21365373484398
    Total Energy =                        -40.2136537348439802
  @DF-RHF Final Energy:   -40.21628411542420
    Total Energy =                        -40.2162841154242017
  @DF-RHF Final Energy:   -96.43062165436551
    Total Energy =                        -96.4306216543655097
  @DF-RHF Final Energy:   -96.43689634056004
    Total Energy =                        -96.4368963405600397
*** Psi4 exiting successfully. Buy a developer a beer!
                               Psi4 1.4a2.dev224
                               Psi4 1.4a2.dev224
                               Psi4 1.4a2.dev224
                               Psi4 1.4a2.dev224
                               Psi4 1.4a2.dev224
                               Psi4 1.4a2.dev224
                               Psi4 1.4a2.dev224
  @DF-RHF Final Energy:   -56.22023112993661
    Total Energy =                        -56.2202311299366073
  @DF-RHF Final Energy:   -56.22388310437045
    Total Energy =                        -56.2238831043704508
  @DF-RHF Final Energy:   -56.22024090286136
    Total Energy =                        -56.2202409028613630
  @DF-RHF Final Energy:   -56.22388661976267
    Total Energy =                        -56.2238866197626663
  @DF-RHF Final Energy:   -40.21365579501251
    Total Energy =                        -40.2136557950125066
  @DF-RHF Final Energy:   -40.21628477405477
    Total Energy =                        -40.2162847740547704
  @DF-RHF Final Energy:   -40.21365372201123
    Total Energy =                        -40.2136537220112302
  @DF-RHF Final Energy:   -40.21628410193004
    Total Energy =                        -40.2162841019300359
  @DF-RHF Final Energy:   -96.43402088757722
    Total Energy =                        -96.4340208875772191
  @DF-RHF Final Energy:   -96.44029541361341
    Total Energy =                        -96.4402954136134127
*** Psi4 exiting successfully. Buy a developer a beer!
                               Psi4 1.4a2.dev224
  @DF-RHF Final Energy:   -56.22023128109483
    Total Energy =                        -56.2202312810948328
  @DF-RHF Final Energy:   -56.22388326657077
    Total Energy =                        -56.2238832665707733
  @DF-RHF Final Energy:   -56.22023456101643
    Total Energy =                        -56.2202345610164329
  @DF-RHF Final Energy:   -56.22388498821529
    Total Energy =                        -56.2238849882152891
  @DF-RHF Final Energy:   -40.21365465568574
    Total Energy =                        -40.2136546556857368
  @DF-RHF Final Energy:   -40.21628443464786
    Total Energy =                        -40.2162844346478607
  @DF-RHF Final Energy:   -40.21365372199569
    Total Energy =                        -40.2136537219956907
  @DF-RHF Final Energy:   -40.21628410191456
    Total Energy =                        -40.2162841019145603
  Multiplicity = 1
  @DF-RHF Final Energy:   -96.43394584573092
    Total Energy =                        -96.4339458457309178
	 Singles Energy            =      -0.0000000000000000 [Eh]
	 Same-Spin Energy          =      -0.0953144368105547 [Eh]
	 Opposite-Spin Energy      =      -0.3811981404747872 [Eh]
	 Correlation Energy        =      -0.4765125772853419 [Eh]
	 Total Energy              =     -96.9104584230162658 [Eh]
	 SCS Total Energy          =     -96.9231550932375114 [Eh]
    Molecular point group: c1

    Geometry (in Angstrom), charge = 0, multiplicity = 1:

       Center              X                  Y                   Z               Mass
    ------------   -----------------  -----------------  -----------------  -----------------
         C           -3.381124233329     0.000183510525     0.000129950545    12.000000000000
         H           -3.747194233329    -0.618636489475    -0.813820049455     1.007825032230
         H           -3.747744233329    -0.395456489475     0.942749950545     1.007825032230
         H           -3.748054233329     1.014183510525    -0.128790049455     1.007825032230
         H           -2.295064233329     0.000623510525     0.000429950545     1.007825032230
         N            3.114575766671    -0.000106489475    -0.000130049455    14.003074004430
         H            3.507615766671     0.376103510525    -0.852960049455     1.007825032230
         H            3.507665766671     0.549863510525     0.752419950545     1.007825032230
         H            3.506235766671    -0.927386489475     0.100229950545     1.007825032230

  Charge       = 0
  Multiplicity = 1
  Basis Set: AUG-CC-PVQZ
    Blend: AUG-CC-PVQZ
  Basis Set: (AUG-CC-PVQZ AUX)
    Blend: AUG-CC-PVQZ-JKFIT

    Orbital Energies [Eh]
    ---------------------

    Doubly Occupied:

       1A    -15.540792     2A    -11.199058     3A     -1.144205
       4A     -0.938639     5A     -0.628112     6A     -0.628093
       7A     -0.540950     8A     -0.540147     9A     -0.540140
      10A     -0.432426

  @DF-RHF Final Energy:   -96.44022619365961

   => Energetics <=

    Nuclear Repulsion Energy =             33.4463718951354423
    One-Electron Energy =                -195.5080703471060701
    Two-Electron Energy =                  65.6214722583110301
    Total Energy =                        -96.4402261936596119

  Dipole Moment: [D]
     X:     1.6955      Y:    -0.0016      Z:     0.0001     Total:     1.6955

  Basis Set: (AUG-CC-PVQZ AUX)
    Blend: AUG-CC-PVQZ-RI
	 Reference Energy          =     -96.4402261936596119 [Eh]
	 Singles Energy            =      -0.0000000000000000 [Eh]
	 Same-Spin Energy          =      -0.1010251062081285 [Eh]
	 Opposite-Spin Energy      =      -0.4234854218131454 [Eh]
	 Correlation Energy        =      -0.5245105280212738 [Eh]
	 Total Energy              =     -96.9647367216808789 [Eh]

	 ================> DF-SCS-MP2 Energies <==================
	-----------------------------------------------------------
	 SCS Same-Spin Scale       =       0.3333333333333333 [-]
	 SCS Opposite-Spin Scale   =       1.2000000000000000 [-]
	 SCS Same-Spin Energy      =      -0.0336750354027095 [Eh]
	 SCS Opposite-Spin Energy  =      -0.5081825061757744 [Eh]
	 SCS Correlation Energy    =      -0.5418575415784840 [Eh]
	 SCS Total Energy          =     -96.9820837352380920 [Eh]
	-----------------------------------------------------------

*** Psi4 exiting successfully. Buy a developer a beer!
