                               Psi4 1.4a2.dev224

  ==> Input File <==

--------------------------------------------------------------------------
#Generated by lconvert.py for cbs job

memory 40 GB

molecule  {
0 1
  C       -2.0248320     0.0000260    -0.0000050
  H       -2.3909010    -0.6187910    -0.8139580
  H       -2.3914520    -0.3956150     0.9426100
  H       -2.3917560     1.0140310    -0.1289270
  H       -0.9387720     0.0004680     0.0002870
--
0 1
  N        1.9084090     0.0000850    -0.0000070
  H        2.3014460     0.3762980    -0.8528310
  H        2.3015000     0.5500570     0.7525450
  H        2.3000690    -0.9271980     0.1003530
units angstrom
no_reorient
symmetry c1
}

set {
scf_type DF
mp2_type DF
e_convergence 7
reference rhf
}

energy('mp2/aug-cc-pv[tq]z', bsse_type='cp')
--------------------------------------------------------------------------

    Molecular point group: c1
  Charge       = 0
  Multiplicity = 1
  Basis Set: AUG-CC-PVTZ
    Blend: AUG-CC-PVTZ
  Basis Set: (AUG-CC-PVTZ AUX)
    Blend: AUG-CC-PVTZ-JKFIT
  @DF-RHF Final Energy:   -56.22023127990597
    Total Energy =                        -56.2202312799059740
  Basis Set: (AUG-CC-PVTZ AUX)
    Blend: AUG-CC-PVTZ-RI
	 Reference Energy          =     -56.2202312799059740 [Eh]
	 Singles Energy            =      -0.0000000000000000 [Eh]
	 Same-Spin Energy          =      -0.0560746624076747 [Eh]
	 Opposite-Spin Energy      =      -0.2010717005514729 [Eh]
	 Correlation Energy        =      -0.2571463629591476 [Eh]
	 Total Energy              =     -56.4773776428651217 [Eh]
	 SCS Total Energy          =     -56.4802088747036350 [Eh]
    Molecular point group: c1
  Basis Set: AUG-CC-PVQZ
    Blend: AUG-CC-PVQZ
  Basis Set: (AUG-CC-PVQZ AUX)
    Blend: AUG-CC-PVQZ-JKFIT
  @DF-RHF Final Energy:   -56.22388326464937
    Total Energy =                        -56.2238832646493734
  Basis Set: (AUG-CC-PVQZ AUX)
  @DF-RHF Final Energy:   -56.22025441440137
    Total Energy =                        -56.2202544144013672
  @DF-RHF Final Energy:   -56.22389220681105
    Total Energy =                        -56.2238922068110512
  @DF-RHF Final Energy:   -40.21366562352208
    Total Energy =                        -40.2136656235220897
  @DF-RHF Final Energy:   -40.21628817490193
    Total Energy =                        -40.2162881749019334
  @DF-RHF Final Energy:   -40.21365373484750
    Total Energy =                        -40.2136537348474974
  @DF-RHF Final Energy:   -40.21628411541354
    Total Energy =                        -40.2162841154135435
  Multiplicity = 1
  @DF-RHF Final Energy:   -96.43396640148524
    Total Energy =                        -96.4339664014852360
	 Singles Energy            =      -0.0000000000000000 [Eh]
	 Same-Spin Energy          =      -0.0958924412161557 [Eh]
	 Opposite-Spin Energy      =      -0.3820327622928429 [Eh]
	 Correlation Energy        =      -0.4779252035089986 [Eh]
	 Total Energy              =     -96.9118916049942385 [Eh]
	 SCS Total Energy          =     -96.9243698633086979 [Eh]
    Molecular point group: c1

    Geometry (in Angstrom), charge = 0, multiplicity = 1:

       Center              X                  Y                   Z               Mass
    ------------   -----------------  -----------------  -----------------  -----------------
         C           -2.061321827541     0.000003421625    -0.000002628299    12.000000000000
         H           -2.427390827541    -0.618813578375    -0.813955628299     1.007825032230
         H           -2.427941827541    -0.395637578375     0.942612371701     1.007825032230
         H           -2.428245827541     1.014008421625    -0.128924628299     1.007825032230
         H           -0.975261827541     0.000445421625     0.000289371701     1.007825032230
         N            1.871919172459     0.000062421625    -0.000004628299    14.003074004430
         H            2.264956172459     0.376275421625    -0.852828628299     1.007825032230
         H            2.265010172459     0.550034421625     0.752547371701     1.007825032230
         H            2.263579172459    -0.927220578375     0.100355371701     1.007825032230

  Charge       = 0
  Multiplicity = 1
  Basis Set: AUG-CC-PVQZ
    Blend: AUG-CC-PVQZ
  Basis Set: (AUG-CC-PVQZ AUX)
    Blend: AUG-CC-PVQZ-JKFIT

    Orbital Energies [Eh]
    ---------------------

    Doubly Occupied:

       1A    -15.542486     2A    -11.186696     3A     -1.146408
       4A     -0.927392     5A     -0.630194     6A     -0.630174
       7A     -0.529810     8A     -0.529805     9A     -0.528932
      10A     -0.434077

  @DF-RHF Final Energy:   -96.44022970019584

   => Energetics <=

    Nuclear Repulsion Energy =             38.5170306466198440
    One-Electron Energy =                -205.7425749743748327
    Two-Electron Energy =                  70.7853146275591456
    Total Energy =                        -96.4402297001958431

  Dipole Moment: [D]
     X:     1.9099      Y:    -0.0015      Z:     0.0001     Total:     1.9099

  Basis Set: (AUG-CC-PVQZ AUX)
    Blend: AUG-CC-PVQZ-RI
	 Reference Energy          =     -96.4402297001958431 [Eh]
	 Singles Energy            =      -0.0000000000000000 [Eh]
	 Same-Spin Energy          =      -0.1015907401610132 [Eh]
	 Opposite-Spin Energy      =      -0.4241126539816836 [Eh]
	 Correlation Energy        =      -0.5257033941426967 [Eh]
	 Total Energy              =     -96.9659330943385385 [Eh]

	 ================> DF-SCS-MP2 Energies <==================
	-----------------------------------------------------------
	 SCS Same-Spin Scale       =       0.3333333333333333 [-]
	 SCS Opposite-Spin Scale   =       1.2000000000000000 [-]
	 SCS Same-Spin Energy      =      -0.0338635800536711 [Eh]
	 SCS Opposite-Spin Energy  =      -0.5089351847780204 [Eh]
	 SCS Correlation Energy    =      -0.5427987648316914 [Eh]
	 SCS Total Energy          =     -96.9830284650275303 [Eh]
	-----------------------------------------------------------

*** Psi4 exiting successfully. Buy a developer a beer!
