                               Psi4 1.4a2.dev224

  ==> Input File <==

--------------------------------------------------------------------------
#Generated by lconvert.py for cbs job

memory 40 GB

molecule  {
0 1
  C        1.4332690     0.6735240     0.0000730
  H        2.3145860     1.2986820    -0.0008990
  H        0.4727190     1.1682030     0.0010680
  C        1.5272490    -0.6552880     0.0000450
  H        0.6458790    -1.2802970     0.0010180
  H        2.4874960    -1.1507030    -0.0009510
--
0 1
  C       -1.7474469     0.0300799     0.1688266
  H       -2.0380179     1.0761309     0.1686936
  H       -1.1574439    -0.1813261    -0.7177104
  H       -1.1583899    -0.1813611     1.0559866
  H       -2.6376119    -0.5910741     0.1683476
units angstrom
no_reorient
symmetry c1
}

set {
scf_type DF
mp2_type DF
e_convergence 7
reference rhf
}

energy('mp2/aug-cc-pv[tq]z', bsse_type='cp')
--------------------------------------------------------------------------

    Molecular point group: c1
  Charge       = 0
  Multiplicity = 1
  Basis Set: AUG-CC-PVTZ
    Blend: AUG-CC-PVTZ
  Basis Set: (AUG-CC-PVTZ AUX)
    Blend: AUG-CC-PVTZ-JKFIT
  @DF-RHF Final Energy:   -40.21366982181110
    Total Energy =                        -40.2136698218110951
  Basis Set: (AUG-CC-PVTZ AUX)
    Blend: AUG-CC-PVTZ-RI
	 Reference Energy          =     -40.2136698218111022 [Eh]
	 Singles Energy            =      -0.0000000000000000 [Eh]
	 Same-Spin Energy          =      -0.0392190595434202 [Eh]
	 Opposite-Spin Energy      =      -0.1800608194493982 [Eh]
	 Correlation Energy        =      -0.2192798789928184 [Eh]
	 Total Energy              =     -40.4329497008039240 [Eh]
	 SCS Total Energy          =     -40.4428158249981848 [Eh]
    Molecular point group: c1
  Basis Set: AUG-CC-PVQZ
    Blend: AUG-CC-PVQZ
  Basis Set: (AUG-CC-PVQZ AUX)
    Blend: AUG-CC-PVQZ-JKFIT
  @DF-RHF Final Energy:   -40.21630136708891
    Total Energy =                        -40.2163013670889171
  Basis Set: (AUG-CC-PVQZ AUX)
  @DF-RHF Final Energy:   -40.21369565193885
    Total Energy =                        -40.2136956519388491
  @DF-RHF Final Energy:   -40.21631730060128
    Total Energy =                        -40.2163173006012826
  @DF-RHF Final Energy:   -78.06477415440929
    Total Energy =                        -78.0647741544092924
  @DF-RHF Final Energy:   -78.06946545586197
    Total Energy =                        -78.0694654558619732
  @DF-RHF Final Energy:   -78.06473669586585
    Total Energy =                        -78.0647366958658324
  @DF-RHF Final Energy:   -78.06945096192904
    Total Energy =                        -78.0694509619290216
  Multiplicity = 1
  @DF-RHF Final Energy:  -118.27212158297614
    Total Energy =                       -118.2721215829761405
	 Singles Energy            =      -0.0000000000000000 [Eh]
	 Same-Spin Energy          =      -0.1185392247980885 [Eh]
	 Opposite-Spin Energy      =      -0.4826794611342921 [Eh]
	 Correlation Energy        =      -0.6012186859323805 [Eh]
	 Total Energy              =    -118.8733402689085210 [Eh]
	 SCS Total Energy          =    -118.8908500112699897 [Eh]
    Molecular point group: c1

    Geometry (in Angstrom), charge = 0, multiplicity = 1:

       Center              X                  Y                   Z               Mass
    ------------   -----------------  -----------------  -----------------  -----------------
         C            1.127393027975     0.656745967314    -0.061388983888    12.000000000000
         H            2.008710027975     1.281903967314    -0.062360983888     1.007825032230
         H            0.166843027975     1.151424967314    -0.060393983888     1.007825032230
         C            1.221373027975    -0.672066032686    -0.061416983888    12.000000000000
         H            0.340003027975    -1.297075032686    -0.060443983888     1.007825032230
         H            2.181620027975    -1.167481032686    -0.062412983888     1.007825032230
         C           -2.053322872025     0.013301867314     0.107364616112    12.000000000000
         H           -2.343893872025     1.059352867314     0.107231616112     1.007825032230
         H           -1.463319872025    -0.198104132686    -0.779172383888     1.007825032230
         H           -1.464265872025    -0.198139132686     0.994524616112     1.007825032230
         H           -2.943487872025    -0.607852132686     0.106885616112     1.007825032230

  Charge       = 0
  Multiplicity = 1
  Basis Set: AUG-CC-PVQZ
    Blend: AUG-CC-PVQZ
  Basis Set: (AUG-CC-PVQZ AUX)
    Blend: AUG-CC-PVQZ-JKFIT

    Orbital Energies [Eh]
    ---------------------

    Doubly Occupied:

       1A    -11.227370     2A    -11.225618     3A    -11.204281
       4A     -1.034264     5A     -0.946997     6A     -0.792280
       7A     -0.648655     8A     -0.587290     9A     -0.550597
      10A     -0.548870    11A     -0.541054    12A     -0.505480
      13A     -0.375607

  @DF-RHF Final Energy:  -118.27944286185243

   => Energetics <=

    Nuclear Repulsion Energy =             72.5654409069885702
    One-Electron Energy =                -301.3130404076846389
    Two-Electron Energy =                 110.4681566388436522
    Total Energy =                       -118.2794428618524307

  Dipole Moment: [D]
     X:    -0.0466      Y:     0.0011      Z:     0.0145     Total:     0.0488

  Basis Set: (AUG-CC-PVQZ AUX)
    Blend: AUG-CC-PVQZ-RI
	 Reference Energy          =    -118.2794428618524307 [Eh]
	 Singles Energy            =      -0.0000000000000000 [Eh]
	 Same-Spin Energy          =      -0.1257494382176563 [Eh]
	 Opposite-Spin Energy      =      -0.5359916214452141 [Eh]
	 Correlation Energy        =      -0.6617410596628703 [Eh]
	 Total Energy              =    -118.9411839215153037 [Eh]

	 ================> DF-SCS-MP2 Energies <==================
	-----------------------------------------------------------
	 SCS Same-Spin Scale       =       0.3333333333333333 [-]
	 SCS Opposite-Spin Scale   =       1.2000000000000000 [-]
	 SCS Same-Spin Energy      =      -0.0419164794058854 [Eh]
	 SCS Opposite-Spin Energy  =      -0.6431899457342568 [Eh]
	 SCS Correlation Energy    =      -0.6851064251401422 [Eh]
	 SCS Total Energy          =    -118.9645492869925789 [Eh]
	-----------------------------------------------------------

*** Psi4 exiting successfully. Buy a developer a beer!
