                               Psi4 1.4a2.dev224

  ==> Input File <==

--------------------------------------------------------------------------
#Generated by lconvert.py for cbs job

memory 40 GB

molecule  {
0 1
  C        1.4332690     0.6735240     0.0000730
  H        2.3145860     1.2986820    -0.0008990
  H        0.4727190     1.1682030     0.0010680
  C        1.5272490    -0.6552880     0.0000450
  H        0.6458790    -1.2802970     0.0010180
  H        2.4874960    -1.1507030    -0.0009510
--
0 1
  C       -1.4120311     0.0542946     0.2601001
  H       -1.7026021     1.1003456     0.2599671
  H       -0.8220281    -0.1571114    -0.6264369
  H       -0.8229741    -0.1571464     1.1472601
  H       -2.3021961    -0.5668594     0.2596211
units angstrom
no_reorient
symmetry c1
}

set {
scf_type DF
mp2_type DF
e_convergence 7
reference rhf
}

energy('mp2/aug-cc-pv[tq]z', bsse_type='cp')
--------------------------------------------------------------------------

    Molecular point group: c1
  Charge       = 0
  Multiplicity = 1
  Basis Set: AUG-CC-PVTZ
    Blend: AUG-CC-PVTZ
  Basis Set: (AUG-CC-PVTZ AUX)
    Blend: AUG-CC-PVTZ-JKFIT
  @DF-RHF Final Energy:   -40.21366982182847
    Total Energy =                        -40.2136698218284749
  Basis Set: (AUG-CC-PVTZ AUX)
    Blend: AUG-CC-PVTZ-RI
	 Reference Energy          =     -40.2136698218284749 [Eh]
	 Singles Energy            =      -0.0000000000000000 [Eh]
	 Same-Spin Energy          =      -0.0392190595435031 [Eh]
	 Opposite-Spin Energy      =      -0.1800608194497917 [Eh]
	 Correlation Energy        =      -0.2192798789932947 [Eh]
	 Total Energy              =     -40.4329497008217729 [Eh]
	 SCS Total Energy          =     -40.4428158250160621 [Eh]
    Molecular point group: c1
  Basis Set: AUG-CC-PVQZ
    Blend: AUG-CC-PVQZ
  Basis Set: (AUG-CC-PVQZ AUX)
    Blend: AUG-CC-PVQZ-JKFIT
  @DF-RHF Final Energy:   -40.21630136706894
    Total Energy =                        -40.2163013670689367
  Basis Set: (AUG-CC-PVQZ AUX)
  @DF-RHF Final Energy:   -40.21370267508878
    Total Energy =                        -40.2137026750887827
  @DF-RHF Final Energy:   -40.21632244211844
    Total Energy =                        -40.2163224421184395
  @DF-RHF Final Energy:   -78.06478920794054
    Total Energy =                        -78.0647892079405210
  @DF-RHF Final Energy:   -78.06947042594824
    Total Energy =                        -78.0694704259482393
  @DF-RHF Final Energy:   -78.06473669584152
    Total Energy =                        -78.0647366958415034
  @DF-RHF Final Energy:   -78.06945096209759
    Total Energy =                        -78.0694509620975907
  Multiplicity = 1
  @DF-RHF Final Energy:  -118.25993409190909
    Total Energy =                       -118.2599340919090878
	 Singles Energy            =      -0.0000000000000000 [Eh]
	 Same-Spin Energy          =      -0.1204402810331020 [Eh]
	 Opposite-Spin Energy      =      -0.4851979434988750 [Eh]
	 Correlation Energy        =      -0.6056382245319770 [Eh]
	 Total Energy              =    -118.8655723164410603 [Eh]
	 SCS Total Energy          =    -118.8823183844521054 [Eh]
    Molecular point group: c1

    Geometry (in Angstrom), charge = 0, multiplicity = 1:

       Center              X                  Y                   Z               Mass
    ------------   -----------------  -----------------  -----------------  -----------------
         C            1.005358664902     0.647935930663    -0.094597030253    12.000000000000
         H            1.886675664902     1.273093930663    -0.095569030253     1.007825032230
         H            0.044808664902     1.142614930663    -0.093602030253     1.007825032230
         C            1.099338664902    -0.680876069337    -0.094625030253    12.000000000000
         H            0.217968664902    -1.305885069337    -0.093652030253     1.007825032230
         H            2.059585664902    -1.176291069337    -0.095621030253     1.007825032230
         C           -1.839941435098     0.028706530663     0.165430069747    12.000000000000
         H           -2.130512435098     1.074757530663     0.165297069747     1.007825032230
         H           -1.249938435098    -0.182699469337    -0.721106930253     1.007825032230
         H           -1.250884435098    -0.182734469337     1.052590069747     1.007825032230
         H           -2.730106435098    -0.592447469337     0.164951069747     1.007825032230

  Charge       = 0
  Multiplicity = 1
  Basis Set: AUG-CC-PVQZ
    Blend: AUG-CC-PVQZ
  Basis Set: (AUG-CC-PVQZ AUX)
    Blend: AUG-CC-PVQZ-JKFIT

    Orbital Energies [Eh]
    ---------------------

    Doubly Occupied:

       1A    -11.225334     2A    -11.223447     3A    -11.201615
       4A     -1.036841     5A     -0.947124     6A     -0.792515
       7A     -0.654644     8A     -0.587043     9A     -0.555251
      10A     -0.550431    11A     -0.530688    12A     -0.500898
      13A     -0.374202

  @DF-RHF Final Energy:  -118.26725356407132

   => Energetics <=

    Nuclear Repulsion Energy =             75.2726523907249003
    One-Electron Energy =                -306.7197478584430996
    Two-Electron Energy =                 113.1798419036468886
    Total Energy =                       -118.2672535640713249

  Dipole Moment: [D]
     X:    -0.0441      Y:     0.0047      Z:     0.0294     Total:     0.0532

  Basis Set: (AUG-CC-PVQZ AUX)
    Blend: AUG-CC-PVQZ-RI
	 Reference Energy          =    -118.2672535640713249 [Eh]
	 Singles Energy            =      -0.0000000000000000 [Eh]
	 Same-Spin Energy          =      -0.1276825103793963 [Eh]
	 Opposite-Spin Energy      =      -0.5384724728606005 [Eh]
	 Correlation Energy        =      -0.6661549832399969 [Eh]
	 Total Energy              =    -118.9334085473113163 [Eh]

	 ================> DF-SCS-MP2 Energies <==================
	-----------------------------------------------------------
	 SCS Same-Spin Scale       =       0.3333333333333333 [-]
	 SCS Opposite-Spin Scale   =       1.2000000000000000 [-]
	 SCS Same-Spin Energy      =      -0.0425608367931321 [Eh]
	 SCS Opposite-Spin Energy  =      -0.6461669674327206 [Eh]
	 SCS Correlation Energy    =      -0.6887278042258527 [Eh]
	 SCS Total Energy          =    -118.9559813682971736 [Eh]
	-----------------------------------------------------------

*** Psi4 exiting successfully. Buy a developer a beer!
