                               Psi4 1.4a2.dev224

  ==> Input File <==

--------------------------------------------------------------------------
#Generated by lconvert.py for cbs job

memory 40 GB

molecule  {
0 1
  C        1.4332690     0.6735240     0.0000730
  H        2.3145860     1.2986820    -0.0008990
  H        0.4727190     1.1682030     0.0010680
  C        1.5272490    -0.6552880     0.0000450
  H        0.6458790    -1.2802970     0.0010180
  H        2.4874960    -1.1507030    -0.0009510
--
0 1
  C       -1.4120311     0.0542946     0.2601001
  H       -1.7026021     1.1003456     0.2599671
  H       -0.8220281    -0.1571114    -0.6264369
  H       -0.8229741    -0.1571464     1.1472601
  H       -2.3021961    -0.5668594     0.2596211
units angstrom
no_reorient
symmetry c1
}

set {
scf_type DF
mp2_type DF
e_convergence 7
reference rhf
}

energy('mp2/aug-cc-pv[tq]z', bsse_type='cp')
--------------------------------------------------------------------------

    Molecular point group: c1
  Charge       = 0
  Multiplicity = 1
  Basis Set: AUG-CC-PVTZ
    Blend: AUG-CC-PVTZ
  Basis Set: (AUG-CC-PVTZ AUX)
    Blend: AUG-CC-PVTZ-JKFIT
  @DF-RHF Final Energy:   -40.21366982182847
    Total Energy =                        -40.2136698218284749
  Basis Set: (AUG-CC-PVTZ AUX)
    Blend: AUG-CC-PVTZ-RI
	 Reference Energy          =     -40.2136698218284749 [Eh]
	 Singles Energy            =      -0.0000000000000000 [Eh]
	 Same-Spin Energy          =      -0.0392190595435031 [Eh]
	 Opposite-Spin Energy      =      -0.1800608194497917 [Eh]
	 Correlation Energy        =      -0.2192798789932947 [Eh]
	 Total Energy              =     -40.4329497008217729 [Eh]
	 SCS Total Energy          =     -40.4428158250160621 [Eh]
    Molecular point group: c1
  Basis Set: AUG-CC-PVQZ
    Blend: AUG-CC-PVQZ
  Basis Set: (AUG-CC-PVQZ AUX)
    Blend: AUG-CC-PVQZ-JKFIT
  @DF-RHF Final Energy:   -40.21630136706894
    Total Energy =                        -40.2163013670689367
  Basis Set: (AUG-CC-PVQZ AUX)
  @DF-RHF Final Energy:   -40.21370267508878
    Total Energy =                        -40.2137026750887827
  @DF-RHF Final Energy:   -40.21632244211844
    Total Energy =                        -40.2163224421184395
  @DF-RHF Final Energy:   -78.06478920794054
    Total Energy =                        -78.0647892079405210
  @DF-RHF Final Energy:   -78.06947042594824
    Total Energy =                        -78.0694704259482393
  @DF-RHF Final Energy:   -78.06473669584152
    Total Energy =                        -78.0647366958415034
  @DF-RHF Final Energy:   -78.06945096209759
    Total Energy =                        -78.0694509620975907
  @DF-RHF Final Energy:  -118.25993409190909
    Total Energy =                       -118.2599340919090878
  @DF-RHF Final Energy:  -118.26725356407132
    Total Energy =                       -118.2672535640713249
*** Psi4 exiting successfully. Buy a developer a beer!
                               Psi4 1.4a2.dev224
  @DF-RHF Final Energy:   -40.21366982181110
    Total Energy =                        -40.2136698218110951
  @DF-RHF Final Energy:   -40.21630136708891
    Total Energy =                        -40.2163013670889171
  @DF-RHF Final Energy:   -40.21369565193885
    Total Energy =                        -40.2136956519388491
  @DF-RHF Final Energy:   -40.21631730060128
    Total Energy =                        -40.2163173006012826
  @DF-RHF Final Energy:   -78.06477415440929
    Total Energy =                        -78.0647741544092924
  @DF-RHF Final Energy:   -78.06946545586197
    Total Energy =                        -78.0694654558619732
  @DF-RHF Final Energy:   -78.06473669586585
    Total Energy =                        -78.0647366958658324
  @DF-RHF Final Energy:   -78.06945096192904
    Total Energy =                        -78.0694509619290216
  @DF-RHF Final Energy:  -118.27212158297614
    Total Energy =                       -118.2721215829761405
  @DF-RHF Final Energy:  -118.27944286185243
    Total Energy =                       -118.2794428618524307
*** Psi4 exiting successfully. Buy a developer a beer!
                               Psi4 1.4a2.dev224
                               Psi4 1.4a2.dev224
                               Psi4 1.4a2.dev224
                               Psi4 1.4a2.dev224
                               Psi4 1.4a2.dev224
                               Psi4 1.4a2.dev224
                               Psi4 1.4a2.dev224
  @DF-RHF Final Energy:   -40.21366984598809
    Total Energy =                        -40.2136698459880932
  @DF-RHF Final Energy:   -40.21630139424668
    Total Energy =                        -40.2163013942466847
  @DF-RHF Final Energy:   -40.21367271187243
    Total Energy =                        -40.2136727118724266
  @DF-RHF Final Energy:   -40.21630310697913
    Total Energy =                        -40.2163031069791401
  @DF-RHF Final Energy:   -78.06474059167371
    Total Energy =                        -78.0647405916737114
  @DF-RHF Final Energy:   -78.06945240107778
    Total Energy =                        -78.0694524010777826
  @DF-RHF Final Energy:   -78.06473672741447
    Total Energy =                        -78.0647367274144699
  @DF-RHF Final Energy:   -78.06945099430310
    Total Energy =                        -78.0694509943030965
  @DF-RHF Final Energy:  -118.27842937088931
    Total Energy =                       -118.2784293708893131
  @DF-RHF Final Energy:  -118.28577147145971
    Total Energy =                       -118.2857714714597108
*** Psi4 exiting successfully. Buy a developer a beer!
                               Psi4 1.4a2.dev224
  @DF-RHF Final Energy:   -40.21366981131990
    Total Energy =                        -40.2136698113199031
  @DF-RHF Final Energy:   -40.21630135538680
    Total Energy =                        -40.2163013553868041
  @DF-RHF Final Energy:   -40.21367031837387
    Total Energy =                        -40.2136703183738717
  @DF-RHF Final Energy:   -40.21630206509065
    Total Energy =                        -40.2163020650906518
  @DF-RHF Final Energy:   -78.06473793667595
    Total Energy =                        -78.0647379366759537
  @DF-RHF Final Energy:   -78.06945152733603
    Total Energy =                        -78.0694515273360281
  @DF-RHF Final Energy:   -78.06473672740817
    Total Energy =                        -78.0647367274081745
  @DF-RHF Final Energy:   -78.06945099422099
    Total Energy =                        -78.0694509942209720
  Multiplicity = 1
  @DF-RHF Final Energy:  -118.27841386014799
    Total Energy =                       -118.2784138601479924
	 Singles Energy            =      -0.0000000000000000 [Eh]
	 Same-Spin Energy          =      -0.1158005229741524 [Eh]
	 Opposite-Spin Energy      =      -0.4786733699773973 [Eh]
	 Correlation Energy        =      -0.5944738929515497 [Eh]
	 Total Energy              =    -118.8728877530995476 [Eh]
	 SCS Total Energy          =    -118.8914220784455864 [Eh]
    Molecular point group: c1

    Geometry (in Angstrom), charge = 0, multiplicity = 1:

       Center              X                  Y                   Z               Mass
    ------------   -----------------  -----------------  -----------------  -----------------
         C            2.458561479885     0.752845532447     0.300846325337    12.000000000000
         H            3.339881479885     1.378005532447     0.299876325337     1.007825032230
         H            1.498011479885     1.247525532447     0.301846325337     1.007825032230
         C            2.552541479885    -0.575964467553     0.300826325337    12.000000000000
         H            1.671171479885    -1.200974467553     0.301796325337     1.007825032230
         H            3.512791479885    -1.071374467553     0.299826325337     1.007825032230
         C           -4.380918520115    -0.154734467553    -0.526023674663    12.000000000000
         H           -4.671488520115     0.891315532447    -0.526153674663     1.007825032230
         H           -3.790918520115    -0.366134467553    -1.412563674663     1.007825032230
         H           -3.791858520115    -0.366174467553     0.361136325337     1.007825032230
         H           -5.271088520115    -0.775884467553    -0.526503674663     1.007825032230

  Charge       = 0
  Multiplicity = 1
  Basis Set: AUG-CC-PVQZ
    Blend: AUG-CC-PVQZ
  Basis Set: (AUG-CC-PVQZ AUX)
    Blend: AUG-CC-PVQZ-JKFIT

    Orbital Energies [Eh]
    ---------------------

    Doubly Occupied:

       1A    -11.230021     2A    -11.228293     3A    -11.204669
       4A     -1.034618     5A     -0.944578     6A     -0.793387
       7A     -0.645246     8A     -0.587816     9A     -0.546437
      10A     -0.546380    11A     -0.546103    12A     -0.508868
      13A     -0.377362

  @DF-RHF Final Energy:  -118.28575917929004

   => Energetics <=

    Nuclear Repulsion Energy =             59.0782868369449474
    One-Electron Energy =                -274.3405369476490705
    Two-Electron Energy =                  96.9764909314140766
    Total Energy =                       -118.2857591792900394

  Dipole Moment: [D]
     X:    -0.0053      Y:     0.0007      Z:    -0.0025     Total:     0.0059

  Basis Set: (AUG-CC-PVQZ AUX)
    Blend: AUG-CC-PVQZ-RI
	 Reference Energy          =    -118.2857591792900394 [Eh]
	 Singles Energy            =      -0.0000000000000000 [Eh]
	 Same-Spin Energy          =      -0.1230144333573161 [Eh]
	 Opposite-Spin Energy      =      -0.5325646997446436 [Eh]
	 Correlation Energy        =      -0.6555791331019597 [Eh]
	 Total Energy              =    -118.9413383123920056 [Eh]

	 ================> DF-SCS-MP2 Energies <==================
	-----------------------------------------------------------
	 SCS Same-Spin Scale       =       0.3333333333333333 [-]
	 SCS Opposite-Spin Scale   =       1.2000000000000000 [-]
	 SCS Same-Spin Energy      =      -0.0410048111191054 [Eh]
	 SCS Opposite-Spin Energy  =      -0.6390776396935723 [Eh]
	 SCS Correlation Energy    =      -0.6800824508126777 [Eh]
	 SCS Total Energy          =    -118.9658416301027160 [Eh]
	-----------------------------------------------------------

*** Psi4 exiting successfully. Buy a developer a beer!
