                               Psi4 1.4a2.dev224

  ==> Input File <==

--------------------------------------------------------------------------
#Generated by lconvert.py for cbs job

memory 20 GB

molecule  {
0 1
  C       1.433270    0.673520    0.000070
  H       2.314590    1.298680   -0.000900
  H       0.472720    1.168200    0.001070
  C       1.527250   -0.655290    0.000050
  H       0.645880   -1.280300    0.001020
  H       2.487500   -1.150700   -0.000950
--
0 1
  C      -3.393720   -0.088770   -0.279160
  H      -3.684290    0.957280   -0.279290
  H      -2.803710   -0.300180   -1.165690
  H      -2.804660   -0.300210    0.608000
  H      -4.283880   -0.709920   -0.279640
units angstrom
no_reorient
symmetry c1
}

set {
scf_type DF
mp2_type DF
e_convergence 7
reference rhf
}

energy('mp2/aug-cc-pv[tq]z', bsse_type='cp')
--------------------------------------------------------------------------

    Molecular point group: c1
  Charge       = 0
  Multiplicity = 1
  Basis Set: AUG-CC-PVTZ
    Blend: AUG-CC-PVTZ
  Basis Set: (AUG-CC-PVTZ AUX)
    Blend: AUG-CC-PVTZ-JKFIT
  @DF-RHF Final Energy:   -40.21366985675346
    Total Energy =                        -40.2136698567534694
  Basis Set: (AUG-CC-PVTZ AUX)
    Blend: AUG-CC-PVTZ-RI
	 Reference Energy          =     -40.2136698567534623 [Eh]
	 Singles Energy            =      -0.0000000000000000 [Eh]
	 Same-Spin Energy          =      -0.0392190713858758 [Eh]
	 Opposite-Spin Energy      =      -0.1800607870638143 [Eh]
	 Correlation Energy        =      -0.2192798584496901 [Eh]
	 Total Energy              =     -40.4329497152031507 [Eh]
	 SCS Total Energy          =     -40.4428158250253347 [Eh]
    Molecular point group: c1
  Basis Set: AUG-CC-PVQZ
    Blend: AUG-CC-PVQZ
  Basis Set: (AUG-CC-PVQZ AUX)
    Blend: AUG-CC-PVQZ-JKFIT
  @DF-RHF Final Energy:   -40.21630140724901
    Total Energy =                        -40.2163014072490057
  Basis Set: (AUG-CC-PVQZ AUX)
  @DF-RHF Final Energy:   -40.21367717692833
    Total Energy =                        -40.2136771769283285
  @DF-RHF Final Energy:   -40.21630616429371
    Total Energy =                        -40.2163061642937123
  @DF-RHF Final Energy:   -78.06474699151030
    Total Energy =                        -78.0647469915103045
  @DF-RHF Final Energy:   -78.06945398959859
    Total Energy =                        -78.0694539895985713
  @DF-RHF Final Energy:   -78.06473672733561
    Total Energy =                        -78.0647367273355997
  @DF-RHF Final Energy:   -78.06945099431887
    Total Energy =                        -78.0694509943188848
  Multiplicity = 1
  @DF-RHF Final Energy:  -118.27845691362681
    Total Energy =                       -118.2784569136268118
	 Singles Energy            =      -0.0000000000000000 [Eh]
	 Same-Spin Energy          =      -0.1160163412259881 [Eh]
	 Opposite-Spin Energy      =      -0.4791506553293279 [Eh]
	 Correlation Energy        =      -0.5951669965553160 [Eh]
	 Total Energy              =    -118.8736239101821326 [Eh]
	 SCS Total Energy          =    -118.8921098137639945 [Eh]
    Molecular point group: c1

    Geometry (in Angstrom), charge = 0, multiplicity = 1:

       Center              X                  Y                   Z               Mass
    ------------   -----------------  -----------------  -----------------  -----------------
         C            1.726356590383     0.699984886370     0.101598182252    12.000000000000
         H            2.607676590383     1.325144886370     0.100628182252     1.007825032230
         H            0.765806590383     1.194664886370     0.102598182252     1.007825032230
         C            1.820336590383    -0.628825113630     0.101578182252    12.000000000000
         H            0.938966590383    -1.253835113630     0.102548182252     1.007825032230
         H            2.780586590383    -1.124235113630     0.100578182252     1.007825032230
         C           -3.100633409617    -0.062305113630    -0.177631817748    12.000000000000
         H           -3.391203409617     0.983744886370    -0.177761817748     1.007825032230
         H           -2.510623409617    -0.273715113630    -1.064161817748     1.007825032230
         H           -2.511573409617    -0.273745113630     0.709528182252     1.007825032230
         H           -3.990793409617    -0.683455113630    -0.178111817748     1.007825032230

  Charge       = 0
  Multiplicity = 1
  Basis Set: AUG-CC-PVQZ
    Blend: AUG-CC-PVQZ
  Basis Set: (AUG-CC-PVQZ AUX)
    Blend: AUG-CC-PVQZ-JKFIT

    Orbital Energies [Eh]
    ---------------------

    Doubly Occupied:

       1A    -11.229806     2A    -11.228078     3A    -11.205406
       4A     -1.034417     5A     -0.945391     6A     -0.793183
       7A     -0.645051     8A     -0.587626     9A     -0.547238
      10A     -0.547139    11A     -0.546902    12A     -0.508641
      13A     -0.377181

  @DF-RHF Final Energy:  -118.28579242535599

   => Energetics <=

    Nuclear Repulsion Energy =             64.1268218711942666
    One-Electron Energy =                -284.4331149289047289
    Two-Electron Energy =                 102.0205006323544694
    Total Energy =                       -118.2857924253559929

  Dipole Moment: [D]
     X:    -0.0184      Y:     0.0014      Z:    -0.0050     Total:     0.0191

  Basis Set: (AUG-CC-PVQZ AUX)
    Blend: AUG-CC-PVQZ-RI
	 Reference Energy          =    -118.2857924253559929 [Eh]
	 Singles Energy            =      -0.0000000000000000 [Eh]
	 Same-Spin Energy          =      -0.1232214438687511 [Eh]
	 Opposite-Spin Energy      =      -0.5328348076969252 [Eh]
	 Correlation Energy        =      -0.6560562515656763 [Eh]
	 Total Energy              =    -118.9418486769216656 [Eh]

	 ================> DF-SCS-MP2 Energies <==================
	-----------------------------------------------------------
	 SCS Same-Spin Scale       =       0.3333333333333333 [-]
	 SCS Opposite-Spin Scale   =       1.2000000000000000 [-]
	 SCS Same-Spin Energy      =      -0.0410738146229170 [Eh]
	 SCS Opposite-Spin Energy  =      -0.6394017692363102 [Eh]
	 SCS Correlation Energy    =      -0.6804755838592272 [Eh]
	 SCS Total Energy          =    -118.9662680092152272 [Eh]
	-----------------------------------------------------------

*** Psi4 exiting successfully. Buy a developer a beer!
