                               Psi4 1.4a2.dev224

  ==> Input File <==

--------------------------------------------------------------------------
#Generated by lconvert.py for cbs job

memory 40 GB

molecule  {
0 1
  C        1.4332690     0.6735240     0.0000730
  H        2.3145860     1.2986820    -0.0008990
  H        0.4727190     1.1682030     0.0010680
  C        1.5272490    -0.6552880     0.0000450
  H        0.6458790    -1.2802970     0.0010180
  H        2.4874960    -1.1507030    -0.0009510
--
0 1
  C       -2.3682110    -0.0147350    -0.0000960
  H       -2.6587820     1.0313160    -0.0002290
  H       -1.7782080    -0.2261410    -0.8866330
  H       -1.7791540    -0.2261760     0.8870640
  H       -3.2583760    -0.6358890    -0.0005750
units angstrom
no_reorient
symmetry c1
}

set {
scf_type DF
mp2_type DF
e_convergence 7
reference rhf
}

energy('mp2/aug-cc-pv[tq]z', bsse_type='cp')
--------------------------------------------------------------------------

    Molecular point group: c1
  Charge       = 0
  Multiplicity = 1
  Basis Set: AUG-CC-PVTZ
    Blend: AUG-CC-PVTZ
  Basis Set: (AUG-CC-PVTZ AUX)
    Blend: AUG-CC-PVTZ-JKFIT
  @DF-RHF Final Energy:   -40.21366982179814
    Total Energy =                        -40.2136698217981419
  Basis Set: (AUG-CC-PVTZ AUX)
    Blend: AUG-CC-PVTZ-RI
	 Reference Energy          =     -40.2136698217981419 [Eh]
	 Singles Energy            =      -0.0000000000000000 [Eh]
	 Same-Spin Energy          =      -0.0392190595434302 [Eh]
	 Opposite-Spin Energy      =      -0.1800608194491739 [Eh]
	 Correlation Energy        =      -0.2192798789926041 [Eh]
	 Total Energy              =     -40.4329497007907435 [Eh]
	 SCS Total Energy          =     -40.4428158249849616 [Eh]
    Molecular point group: c1
  Basis Set: AUG-CC-PVQZ
    Blend: AUG-CC-PVQZ
  Basis Set: (AUG-CC-PVQZ AUX)
    Blend: AUG-CC-PVQZ-JKFIT
  @DF-RHF Final Energy:   -40.21630136707208
    Total Energy =                        -40.2163013670720844
  Basis Set: (AUG-CC-PVQZ AUX)
  @DF-RHF Final Energy:   -40.21368733920122
    Total Energy =                        -40.2136873392012220
  @DF-RHF Final Energy:   -40.21631183928893
    Total Energy =                        -40.2163118392889274
  @DF-RHF Final Energy:   -78.06475873109093
    Total Energy =                        -78.0647587310909330
  @DF-RHF Final Energy:   -78.06945874856149
    Total Energy =                        -78.0694587485614875
  @DF-RHF Final Energy:   -78.06473669579589
    Total Energy =                        -78.0647366957958866
  @DF-RHF Final Energy:   -78.06945096205217
    Total Energy =                        -78.0694509620521728
  Multiplicity = 1
  @DF-RHF Final Energy:  -118.27777342047659
    Total Energy =                       -118.2777734204765920
	 Singles Energy            =      -0.0000000000000000 [Eh]
	 Same-Spin Energy          =      -0.1168332116990295 [Eh]
	 Opposite-Spin Energy      =      -0.4803919186778359 [Eh]
	 Correlation Energy        =      -0.5972251303768654 [Eh]
	 Total Energy              =    -118.8749985508534621 [Eh]
	 SCS Total Energy          =    -118.8931881267896671 [Eh]
    Molecular point group: c1

    Geometry (in Angstrom), charge = 0, multiplicity = 1:

       Center              X                  Y                   Z               Mass
    ------------   -----------------  -----------------  -----------------  -----------------
         C            1.353245690735     0.673050976731     0.000070142067    12.000000000000
         H            2.234562690735     1.298208976731    -0.000901857933     1.007825032230
         H            0.392695690735     1.167729976731     0.001065142067     1.007825032230
         C            1.447225690735    -0.655761023269     0.000042142067    12.000000000000
         H            0.565855690735    -1.280770023269     0.001015142067     1.007825032230
         H            2.407472690735    -1.151176023269    -0.000953857933     1.007825032230
         C           -2.448234309265    -0.015208023269    -0.000098857933    12.000000000000
         H           -2.738805309265     1.030842976731    -0.000231857933     1.007825032230
         H           -1.858231309265    -0.226614023269    -0.886635857933     1.007825032230
         H           -1.859177309265    -0.226649023269     0.887061142067     1.007825032230
         H           -3.338399309265    -0.636362023269    -0.000577857933     1.007825032230

  Charge       = 0
  Multiplicity = 1
  Basis Set: AUG-CC-PVQZ
    Blend: AUG-CC-PVQZ
  Basis Set: (AUG-CC-PVQZ AUX)
    Blend: AUG-CC-PVQZ-JKFIT

    Orbital Energies [Eh]
    ---------------------

    Doubly Occupied:

       1A    -11.229095     2A    -11.227366     3A    -11.205730
       4A     -1.033991     5A     -0.946297     6A     -0.792716
       7A     -0.645271     8A     -0.587377     9A     -0.548005
      10A     -0.547948    11A     -0.546934    12A     -0.507927
      13A     -0.376688

  @DF-RHF Final Energy:  -118.28509886332961

   => Energetics <=

    Nuclear Repulsion Energy =             68.6208670550780511
    One-Electron Energy =                -293.4212421111288904
    Two-Electron Energy =                 106.5152761927212168
    Total Energy =                       -118.2850988633296083

  Dipole Moment: [D]
     X:    -0.0365      Y:     0.0010      Z:    -0.0001     Total:     0.0365

  Basis Set: (AUG-CC-PVQZ AUX)
    Blend: AUG-CC-PVQZ-RI
	 Reference Energy          =    -118.2850988633296083 [Eh]
	 Singles Energy            =      -0.0000000000000000 [Eh]
	 Same-Spin Energy          =      -0.1240255485177620 [Eh]
	 Opposite-Spin Energy      =      -0.5338366096518545 [Eh]
	 Correlation Energy        =      -0.6578621581696165 [Eh]
	 Total Energy              =    -118.9429610214992294 [Eh]

	 ================> DF-SCS-MP2 Energies <==================
	-----------------------------------------------------------
	 SCS Same-Spin Scale       =       0.3333333333333333 [-]
	 SCS Opposite-Spin Scale   =       1.2000000000000000 [-]
	 SCS Same-Spin Energy      =      -0.0413418495059207 [Eh]
	 SCS Opposite-Spin Energy  =      -0.6406039315822254 [Eh]
	 SCS Correlation Energy    =      -0.6819457810881461 [Eh]
	 SCS Total Energy          =    -118.9670446444177543 [Eh]
	-----------------------------------------------------------

*** Psi4 exiting successfully. Buy a developer a beer!
