                               Psi4 1.4a2.dev224

  ==> Input File <==

--------------------------------------------------------------------------
#Generated by lconvert.py for cbs job

memory 40 GB

molecule  {
0 1
  C        1.4332690     0.6735240     0.0000730
  H        2.3145860     1.2986820    -0.0008990
  H        0.4727190     1.1682030     0.0010680
  C        1.5272490    -0.6552880     0.0000450
  H        0.6458790    -1.2802970     0.0010180
  H        2.4874960    -1.1507030    -0.0009510
--
0 1
  C       -2.0636416     0.0072528     0.0827836
  H       -2.3542126     1.0533038     0.0826506
  H       -1.4736386    -0.2041532    -0.8037534
  H       -1.4745846    -0.2041882     0.9699436
  H       -2.9538066    -0.6139012     0.0823046
units angstrom
no_reorient
symmetry c1
}

set {
scf_type DF
mp2_type DF
e_convergence 7
reference rhf
}

energy('mp2/aug-cc-pv[tq]z', bsse_type='cp')
--------------------------------------------------------------------------

    Molecular point group: c1
  Charge       = 0
  Multiplicity = 1
  Basis Set: AUG-CC-PVTZ
    Blend: AUG-CC-PVTZ
  Basis Set: (AUG-CC-PVTZ AUX)
    Blend: AUG-CC-PVTZ-JKFIT
  @DF-RHF Final Energy:   -40.21366982181409
    Total Energy =                        -40.2136698218140936
  Basis Set: (AUG-CC-PVTZ AUX)
    Blend: AUG-CC-PVTZ-RI
	 Reference Energy          =     -40.2136698218140936 [Eh]
	 Singles Energy            =      -0.0000000000000000 [Eh]
	 Same-Spin Energy          =      -0.0392190595434525 [Eh]
	 Opposite-Spin Energy      =      -0.1800608194494646 [Eh]
	 Correlation Energy        =      -0.2192798789929170 [Eh]
	 Total Energy              =     -40.4329497008070078 [Eh]
	 SCS Total Energy          =     -40.4428158250012686 [Eh]
    Molecular point group: c1
  Basis Set: AUG-CC-PVQZ
    Blend: AUG-CC-PVQZ
  Basis Set: (AUG-CC-PVQZ AUX)
    Blend: AUG-CC-PVQZ-JKFIT
  @DF-RHF Final Energy:   -40.21630136709316
    Total Energy =                        -40.2163013670931591
  Basis Set: (AUG-CC-PVQZ AUX)
  @DF-RHF Final Energy:   -40.21369138655820
    Total Energy =                        -40.2136913865581960
  @DF-RHF Final Energy:   -40.21631363765480
    Total Energy =                        -40.2163136376547996
  @DF-RHF Final Energy:   -78.06476478389544
    Total Energy =                        -78.0647647838954413
  @DF-RHF Final Energy:   -78.06946135757600
    Total Energy =                        -78.0694613575760030
  @DF-RHF Final Energy:   -78.06473669576773
    Total Energy =                        -78.0647366957677491
  @DF-RHF Final Energy:   -78.06945096206428
    Total Energy =                        -78.0694509620642805
  Multiplicity = 1
  @DF-RHF Final Energy:  -118.27631830208053
    Total Energy =                       -118.2763183020805258
	 Singles Energy            =      -0.0000000000000000 [Eh]
	 Same-Spin Energy          =      -0.1174648895965428 [Eh]
	 Opposite-Spin Energy      =      -0.4812599424703999 [Eh]
	 Correlation Energy        =      -0.5987248320669427 [Eh]
	 Total Energy              =    -118.8750431341474751 [Eh]
	 SCS Total Energy          =    -118.8929851962438562 [Eh]
    Molecular point group: c1

    Geometry (in Angstrom), charge = 0, multiplicity = 1:

       Center              X                  Y                   Z               Mass
    ------------   -----------------  -----------------  -----------------  -----------------
         C            1.242434176369     0.665051153323    -0.030083950846    12.000000000000
         H            2.123751176369     1.290209153323    -0.031055950846     1.007825032230
         H            0.281884176369     1.159730153323    -0.029088950846     1.007825032230
         C            1.336414176369    -0.663760846677    -0.030111950846    12.000000000000
         H            0.455044176369    -1.288769846677    -0.029138950846     1.007825032230
         H            2.296661176369    -1.159175846677    -0.031107950846     1.007825032230
         C           -2.254476423631    -0.001220046677     0.052626649154    12.000000000000
         H           -2.545047423631     1.044830953323     0.052493649154     1.007825032230
         H           -1.664473423631    -0.212626046677    -0.833910350846     1.007825032230
         H           -1.665419423631    -0.212661046677     0.939786649154     1.007825032230
         H           -3.144641423631    -0.622374046677     0.052147649154     1.007825032230

  Charge       = 0
  Multiplicity = 1
  Basis Set: AUG-CC-PVQZ
    Blend: AUG-CC-PVQZ
  Basis Set: (AUG-CC-PVQZ AUX)
    Blend: AUG-CC-PVQZ-JKFIT

    Orbital Energies [Eh]
    ---------------------

    Doubly Occupied:

       1A    -11.228487     2A    -11.226754     3A    -11.205376
       4A     -1.033894     5A     -0.946638     6A     -0.792480
       7A     -0.646163     8A     -0.587340     9A     -0.548794
      10A     -0.548274    11A     -0.545350    12A     -0.507208
      13A     -0.376306

  @DF-RHF Final Energy:  -118.28364065081340

   => Energetics <=

    Nuclear Repulsion Energy =             70.4066069151829765
    One-Electron Energy =                -296.9943697642596021
    Two-Electron Energy =                 108.3041221982632294
    Total Energy =                       -118.2836406508133962

  Dipole Moment: [D]
     X:    -0.0425      Y:     0.0007      Z:     0.0053     Total:     0.0428

  Basis Set: (AUG-CC-PVQZ AUX)
    Blend: AUG-CC-PVQZ-RI
	 Reference Energy          =    -118.2836406508133962 [Eh]
	 Singles Energy            =      -0.0000000000000000 [Eh]
	 Same-Spin Energy          =      -0.1246598604997255 [Eh]
	 Opposite-Spin Energy      =      -0.5346211098264014 [Eh]
	 Correlation Energy        =      -0.6592809703261269 [Eh]
	 Total Energy              =    -118.9429216211395186 [Eh]

	 ================> DF-SCS-MP2 Energies <==================
	-----------------------------------------------------------
	 SCS Same-Spin Scale       =       0.3333333333333333 [-]
	 SCS Opposite-Spin Scale   =       1.2000000000000000 [-]
	 SCS Same-Spin Energy      =      -0.0415532868332418 [Eh]
	 SCS Opposite-Spin Energy  =      -0.6415453317916817 [Eh]
	 SCS Correlation Energy    =      -0.6830986186249235 [Eh]
	 SCS Total Energy          =    -118.9667392694383210 [Eh]
	-----------------------------------------------------------

*** Psi4 exiting successfully. Buy a developer a beer!
