                               Psi4 1.4a2.dev224

  ==> Input File <==

--------------------------------------------------------------------------
#Generated by lconvert.py for cbs job

memory 40 GB

molecule  {
0 1
  C        1.4332690     0.6735240     0.0000730
  H        2.3145860     1.2986820    -0.0008990
  H        0.4727190     1.1682030     0.0010680
  C        1.5272490    -0.6552880     0.0000450
  H        0.6458790    -1.2802970     0.0010180
  H        2.4874960    -1.1507030    -0.0009510
--
0 1
  C       -2.5485022    -0.0277508    -0.0491569
  H       -2.8390732     1.0183002    -0.0492899
  H       -1.9584992    -0.2391568    -0.9356939
  H       -1.9594452    -0.2391918     0.8380031
  H       -3.4386672    -0.6489048    -0.0496359
units angstrom
no_reorient
symmetry c1
}

set {
scf_type DF
mp2_type DF
e_convergence 7
reference rhf
}

energy('mp2/aug-cc-pv[tq]z', bsse_type='cp')
--------------------------------------------------------------------------

    Molecular point group: c1
  Charge       = 0
  Multiplicity = 1
  Basis Set: AUG-CC-PVTZ
    Blend: AUG-CC-PVTZ
  Basis Set: (AUG-CC-PVTZ AUX)
    Blend: AUG-CC-PVTZ-JKFIT
  @DF-RHF Final Energy:   -40.21366982181094
    Total Energy =                        -40.2136698218109387
  Basis Set: (AUG-CC-PVTZ AUX)
    Blend: AUG-CC-PVTZ-RI
	 Reference Energy          =     -40.2136698218109387 [Eh]
	 Singles Energy            =      -0.0000000000000000 [Eh]
	 Same-Spin Energy          =      -0.0392190595434127 [Eh]
	 Opposite-Spin Energy      =      -0.1800608194493951 [Eh]
	 Correlation Energy        =      -0.2192798789928078 [Eh]
	 Total Energy              =     -40.4329497008037464 [Eh]
	 SCS Total Energy          =     -40.4428158249980143 [Eh]
    Molecular point group: c1
  Basis Set: AUG-CC-PVQZ
    Blend: AUG-CC-PVQZ
  Basis Set: (AUG-CC-PVQZ AUX)
    Blend: AUG-CC-PVQZ-JKFIT
  @DF-RHF Final Energy:   -40.21630136706739
    Total Energy =                        -40.2163013670673877
  Basis Set: (AUG-CC-PVQZ AUX)
  @DF-RHF Final Energy:   -40.21368512908981
    Total Energy =                        -40.2136851290898107
  @DF-RHF Final Energy:   -40.21631076144407
    Total Energy =                        -40.2163107614440776
  @DF-RHF Final Energy:   -78.06475562520262
    Total Energy =                        -78.0647556252026220
  @DF-RHF Final Energy:   -78.06945793100392
    Total Energy =                        -78.0694579310039245
  @DF-RHF Final Energy:   -78.06473669583389
    Total Energy =                        -78.0647366958338864
  @DF-RHF Final Energy:   -78.06945096202607
    Total Energy =                        -78.0694509620260675
  Multiplicity = 1
  @DF-RHF Final Energy:  -118.27813142446165
    Total Energy =                       -118.2781314244616482
	 Singles Energy            =      -0.0000000000000000 [Eh]
	 Same-Spin Energy          =      -0.1165798245859768 [Eh]
	 Opposite-Spin Energy      =      -0.4800244819407210 [Eh]
	 Correlation Energy        =      -0.5966043065266978 [Eh]
	 Total Energy              =    -118.8747357309883483 [Eh]
	 SCS Total Energy          =    -118.8930207443191733 [Eh]
    Molecular point group: c1

    Geometry (in Angstrom), charge = 0, multiplicity = 1:

       Center              X                  Y                   Z               Mass
    ------------   -----------------  -----------------  -----------------  -----------------
         C            1.418841055532     0.677786516509     0.017919974076    12.000000000000
         H            2.300158055532     1.302944516509     0.016947974076     1.007825032230
         H            0.458291055532     1.172465516509     0.018914974076     1.007825032230
         C            1.512821055532    -0.651025483491     0.017891974076    12.000000000000
         H            0.631451055532    -1.276034483491     0.018864974076     1.007825032230
         H            2.473068055532    -1.146440483491     0.016895974076     1.007825032230
         C           -2.562930144468    -0.023488283491    -0.031309925924    12.000000000000
         H           -2.853501144468     1.022562716509    -0.031442925924     1.007825032230
         H           -1.972927144468    -0.234894283491    -0.917846925924     1.007825032230
         H           -1.973873144468    -0.234929283491     0.855850074076     1.007825032230
         H           -3.453095144468    -0.644642283491    -0.031788925924     1.007825032230

  Charge       = 0
  Multiplicity = 1
  Basis Set: AUG-CC-PVQZ
    Blend: AUG-CC-PVQZ
  Basis Set: (AUG-CC-PVQZ AUX)
    Blend: AUG-CC-PVQZ-JKFIT

    Orbital Energies [Eh]
    ---------------------

    Doubly Occupied:

       1A    -11.229324     2A    -11.227595     3A    -11.205768
       4A     -1.034088     5A     -0.946109     6A     -0.792838
       7A     -0.645074     8A     -0.587416     9A     -0.547793
      10A     -0.547715    11A     -0.547284    12A     -0.508164
      13A     -0.376836

  @DF-RHF Final Energy:  -118.28545944772350

   => Energetics <=

    Nuclear Repulsion Energy =             67.6781337285136715
    One-Electron Energy =                -291.5351813621484212
    Two-Electron Energy =                 105.5715881859112528
    Total Energy =                       -118.2854594477234969

  Dipole Moment: [D]
     X:    -0.0328      Y:     0.0012      Z:    -0.0021     Total:     0.0329

  Basis Set: (AUG-CC-PVQZ AUX)
    Blend: AUG-CC-PVQZ-RI
	 Reference Energy          =    -118.2854594477234969 [Eh]
	 Singles Energy            =      -0.0000000000000000 [Eh]
	 Same-Spin Energy          =      -0.1237746981296541 [Eh]
	 Opposite-Spin Energy      =      -0.5335291094908634 [Eh]
	 Correlation Energy        =      -0.6573038076205175 [Eh]
	 Total Energy              =    -118.9427632553440191 [Eh]

	 ================> DF-SCS-MP2 Energies <==================
	-----------------------------------------------------------
	 SCS Same-Spin Scale       =       0.3333333333333333 [-]
	 SCS Opposite-Spin Scale   =       1.2000000000000000 [-]
	 SCS Same-Spin Energy      =      -0.0412582327098847 [Eh]
	 SCS Opposite-Spin Energy  =      -0.6402349313890361 [Eh]
	 SCS Correlation Energy    =      -0.6814931640989208 [Eh]
	 SCS Total Energy          =    -118.9669526118224212 [Eh]
	-----------------------------------------------------------

*** Psi4 exiting successfully. Buy a developer a beer!
