                               Psi4 1.4a2.dev224

  ==> Input File <==

--------------------------------------------------------------------------
#Generated by lconvert.py for cbs job

memory 20 GB

molecule  {
0 1
  C       1.433270    0.673520    0.000070
  H       2.314590    1.298680   -0.000900
  H       0.472720    1.168200    0.001070
  C       1.527250   -0.655290    0.000050
  H       0.645880   -1.280300    0.001020
  H       2.487500   -1.150700   -0.000950
--
0 1
  C      -4.399960   -0.161410   -0.552980
  H      -4.690530    0.884640   -0.553110
  H      -3.809960   -0.372820   -1.439510
  H      -3.810910   -0.372850    0.334180
  H      -5.290130   -0.782570   -0.553460
units angstrom
no_reorient
symmetry c1
}

set {
scf_type DF
mp2_type DF
e_convergence 7
reference rhf
}

energy('mp2/aug-cc-pv[tq]z', bsse_type='cp')
--------------------------------------------------------------------------

    Molecular point group: c1
  Charge       = 0
  Multiplicity = 1
  Basis Set: AUG-CC-PVTZ
    Blend: AUG-CC-PVTZ
  Basis Set: (AUG-CC-PVTZ AUX)
    Blend: AUG-CC-PVTZ-JKFIT
  @DF-RHF Final Energy:   -40.21366984598809
    Total Energy =                        -40.2136698459880932
  Basis Set: (AUG-CC-PVTZ AUX)
    Blend: AUG-CC-PVTZ-RI
	 Reference Energy          =     -40.2136698459880932 [Eh]
	 Singles Energy            =      -0.0000000000000000 [Eh]
	 Same-Spin Energy          =      -0.0392190664333296 [Eh]
	 Opposite-Spin Energy      =      -0.1800608005699480 [Eh]
	 Correlation Energy        =      -0.2192798670032775 [Eh]
	 Total Energy              =     -40.4329497129913733 [Eh]
	 SCS Total Energy          =     -40.4428158288164710 [Eh]
    Molecular point group: c1
  Basis Set: AUG-CC-PVQZ
    Blend: AUG-CC-PVQZ
  Basis Set: (AUG-CC-PVQZ AUX)
    Blend: AUG-CC-PVQZ-JKFIT
  @DF-RHF Final Energy:   -40.21630139424668
    Total Energy =                        -40.2163013942466847
  Basis Set: (AUG-CC-PVQZ AUX)
  @DF-RHF Final Energy:   -40.21367271187243
    Total Energy =                        -40.2136727118724266
  @DF-RHF Final Energy:   -40.21630310697913
    Total Energy =                        -40.2163031069791401
  @DF-RHF Final Energy:   -78.06474059167371
    Total Energy =                        -78.0647405916737114
  @DF-RHF Final Energy:   -78.06945240107778
    Total Energy =                        -78.0694524010777826
  @DF-RHF Final Energy:   -78.06473672741447
    Total Energy =                        -78.0647367274144699
  @DF-RHF Final Energy:   -78.06945099430310
    Total Energy =                        -78.0694509943030965
  Multiplicity = 1
  @DF-RHF Final Energy:  -118.27842937088931
    Total Energy =                       -118.2784293708893131
	 Singles Energy            =      -0.0000000000000000 [Eh]
	 Same-Spin Energy          =      -0.1158472679298513 [Eh]
	 Opposite-Spin Energy      =      -0.4788035400595462 [Eh]
	 Correlation Energy        =      -0.5946508079893975 [Eh]
	 Total Energy              =    -118.8730801788787090 [Eh]
	 SCS Total Energy          =    -118.8916093749373886 [Eh]
    Molecular point group: c1

    Geometry (in Angstrom), charge = 0, multiplicity = 1:

       Center              X                  Y                   Z               Mass
    ------------   -----------------  -----------------  -----------------  -----------------
         C            2.092457673435     0.726413733346     0.201222139432    12.000000000000
         H            2.973777673435     1.351573733346     0.200252139432     1.007825032230
         H            1.131907673435     1.221093733346     0.202222139432     1.007825032230
         C            2.186437673435    -0.602396266654     0.201202139432    12.000000000000
         H            1.305067673435    -1.227406266654     0.202172139432     1.007825032230
         H            3.146687673435    -1.097806266654     0.200202139432     1.007825032230
         C           -3.740772326565    -0.108516266654    -0.351827860568    12.000000000000
         H           -4.031342326565     0.937533733346    -0.351957860568     1.007825032230
         H           -3.150772326565    -0.319926266654    -1.238357860568     1.007825032230
         H           -3.151722326565    -0.319956266654     0.535332139432     1.007825032230
         H           -4.630942326565    -0.729676266654    -0.352307860568     1.007825032230

  Charge       = 0
  Multiplicity = 1
  Basis Set: AUG-CC-PVQZ
    Blend: AUG-CC-PVQZ
  Basis Set: (AUG-CC-PVQZ AUX)
    Blend: AUG-CC-PVQZ-JKFIT

    Orbital Energies [Eh]
    ---------------------

    Doubly Occupied:

       1A    -11.229965     2A    -11.228237     3A    -11.204944
       4A     -1.034564     5A     -0.944867     6A     -0.793332
       7A     -0.645189     8A     -0.587762     9A     -0.546736
      10A     -0.546657    11A     -0.546385    12A     -0.508809
      13A     -0.377313

  @DF-RHF Final Energy:  -118.28577147145971

   => Energetics <=

    Nuclear Repulsion Energy =             61.1792464921467598
    One-Electron Energy =                -278.5405185052085812
    Two-Electron Energy =                  99.0755005416020964
    Total Energy =                       -118.2857714714597108

  Dipole Moment: [D]
     X:    -0.0094      Y:     0.0010      Z:    -0.0038     Total:     0.0102

  Basis Set: (AUG-CC-PVQZ AUX)
    Blend: AUG-CC-PVQZ-RI
	 Reference Energy          =    -118.2857714714597108 [Eh]
	 Singles Energy            =      -0.0000000000000000 [Eh]
	 Same-Spin Energy          =      -0.1230572469743915 [Eh]
	 Opposite-Spin Energy      =      -0.5326216170773018 [Eh]
	 Correlation Energy        =      -0.6556788640516933 [Eh]
	 Total Energy              =    -118.9414503355114050 [Eh]

	 ================> DF-SCS-MP2 Energies <==================
	-----------------------------------------------------------
	 SCS Same-Spin Scale       =       0.3333333333333333 [-]
	 SCS Opposite-Spin Scale   =       1.2000000000000000 [-]
	 SCS Same-Spin Energy      =      -0.0410190823247972 [Eh]
	 SCS Opposite-Spin Energy  =      -0.6391459404927622 [Eh]
	 SCS Correlation Energy    =      -0.6801650228175593 [Eh]
	 SCS Total Energy          =    -118.9659364942772726 [Eh]
	-----------------------------------------------------------

*** Psi4 exiting successfully. Buy a developer a beer!
