                               Psi4 1.4a2.dev224

  ==> Input File <==

--------------------------------------------------------------------------
#Generated by lconvert.py for cbs job

memory 40 GB

molecule  {
0 1
  C        1.4332690     0.6735240     0.0000730
  H        2.3145860     1.2986820    -0.0008990
  H        0.4727190     1.1682030     0.0010680
  C        1.5272490    -0.6552880     0.0000450
  H        0.6458790    -1.2802970     0.0010180
  H        2.4874960    -1.1507030    -0.0009510
--
0 1
  C       -2.7228843    -0.0403400    -0.0966098
  H       -3.0134553     1.0057110    -0.0967428
  H       -2.1328813    -0.2517460    -0.9831468
  H       -2.1338273    -0.2517810     0.7905502
  H       -3.6130493    -0.6614940    -0.0970888
units angstrom
no_reorient
symmetry c1
}

set {
scf_type DF
mp2_type DF
e_convergence 7
reference rhf
}

energy('mp2/aug-cc-pv[tq]z', bsse_type='cp')
--------------------------------------------------------------------------

    Molecular point group: c1
  Charge       = 0
  Multiplicity = 1
  Basis Set: AUG-CC-PVTZ
    Blend: AUG-CC-PVTZ
  Basis Set: (AUG-CC-PVTZ AUX)
    Blend: AUG-CC-PVTZ-JKFIT
  @DF-RHF Final Energy:   -40.21366982182369
    Total Energy =                        -40.2136698218236859
  Basis Set: (AUG-CC-PVTZ AUX)
    Blend: AUG-CC-PVTZ-RI
	 Reference Energy          =     -40.2136698218236859 [Eh]
	 Singles Energy            =      -0.0000000000000000 [Eh]
	 Same-Spin Energy          =      -0.0392190595433892 [Eh]
	 Opposite-Spin Energy      =      -0.1800608194490959 [Eh]
	 Correlation Energy        =      -0.2192798789924850 [Eh]
	 Total Energy              =     -40.4329497008161738 [Eh]
	 SCS Total Energy          =     -40.4428158250103991 [Eh]
    Molecular point group: c1
  Basis Set: AUG-CC-PVQZ
    Blend: AUG-CC-PVQZ
  Basis Set: (AUG-CC-PVQZ AUX)
    Blend: AUG-CC-PVQZ-JKFIT
  @DF-RHF Final Energy:   -40.21630136706160
    Total Energy =                        -40.2163013670615967
  Basis Set: (AUG-CC-PVQZ AUX)
  @DF-RHF Final Energy:   -40.21368330532390
    Total Energy =                        -40.2136833053239044
  @DF-RHF Final Energy:   -40.21630957811815
    Total Energy =                        -40.2163095781181497
  @DF-RHF Final Energy:   -78.06475304871846
    Total Energy =                        -78.0647530487184582
  @DF-RHF Final Energy:   -78.06945717871440
    Total Energy =                        -78.0694571787144014
  @DF-RHF Final Energy:   -78.06473669589198
    Total Energy =                        -78.0647366958919804
  @DF-RHF Final Energy:   -78.06945096203592
    Total Energy =                        -78.0694509620359156
  Multiplicity = 1
  @DF-RHF Final Energy:  -118.27830985673307
    Total Energy =                       -118.2783098567330740
	 Singles Energy            =      -0.0000000000000000 [Eh]
	 Same-Spin Energy          =      -0.1163947583556478 [Eh]
	 Opposite-Spin Energy      =      -0.4797479419809399 [Eh]
	 Correlation Energy        =      -0.5961427003365877 [Eh]
	 Total Energy              =    -118.8744525570696595 [Eh]
	 SCS Total Energy          =    -118.8928056398954141 [Eh]
    Molecular point group: c1

    Geometry (in Angstrom), charge = 0, multiplicity = 1:

       Center              X                  Y                   Z               Mass
    ------------   -----------------  -----------------  -----------------  -----------------
         C            1.482286511902     0.682366846367     0.035184767289    12.000000000000
         H            2.363603511902     1.307524846367     0.034212767289     1.007825032230
         H            0.521736511902     1.177045846367     0.036179767289     1.007825032230
         C            1.576266511902    -0.646445153633     0.035156767289    12.000000000000
         H            0.694896511902    -1.271454153633     0.036129767289     1.007825032230
         H            2.536513511902    -1.141860153633     0.034160767289     1.007825032230
         C           -2.673866788098    -0.031497153633    -0.061498032711    12.000000000000
         H           -2.964437788098     1.014553846367    -0.061631032711     1.007825032230
         H           -2.083863788098    -0.242903153633    -0.948035032711     1.007825032230
         H           -2.084809788098    -0.242938153633     0.825661967289     1.007825032230
         H           -3.564031788098    -0.652651153633    -0.061977032711     1.007825032230

  Charge       = 0
  Multiplicity = 1
  Basis Set: AUG-CC-PVQZ
    Blend: AUG-CC-PVQZ
  Basis Set: (AUG-CC-PVQZ AUX)
    Blend: AUG-CC-PVQZ-JKFIT

    Orbital Energies [Eh]
    ---------------------

    Doubly Occupied:

       1A    -11.229484     2A    -11.227756     3A    -11.205738
       4A     -1.034177     5A     -0.945938     6A     -0.792938
       7A     -0.644999     8A     -0.587461     9A     -0.547657
      10A     -0.547494    11A     -0.547406    12A     -0.508323
      13A     -0.376945

  @DF-RHF Final Energy:  -118.28563989420748

   => Energetics <=

    Nuclear Repulsion Energy =             66.8366989058993966
    One-Electron Energy =                -289.8520472788197253
    Two-Electron Energy =                 104.7297084787128512
    Total Energy =                       -118.2856398942074776

  Dipole Moment: [D]
     X:    -0.0293      Y:     0.0013      Z:    -0.0034     Total:     0.0295

  Basis Set: (AUG-CC-PVQZ AUX)
    Blend: AUG-CC-PVQZ-RI
	 Reference Energy          =    -118.2856398942074776 [Eh]
	 Singles Energy            =      -0.0000000000000000 [Eh]
	 Same-Spin Energy          =      -0.1235929768652757 [Eh]
	 Opposite-Spin Energy      =      -0.5333054120892717 [Eh]
	 Correlation Energy        =      -0.6568983889545474 [Eh]
	 Total Energy              =    -118.9425382831620226 [Eh]

	 ================> DF-SCS-MP2 Energies <==================
	-----------------------------------------------------------
	 SCS Same-Spin Scale       =       0.3333333333333333 [-]
	 SCS Opposite-Spin Scale   =       1.2000000000000000 [-]
	 SCS Same-Spin Energy      =      -0.0411976589550919 [Eh]
	 SCS Opposite-Spin Energy  =      -0.6399664945071261 [Eh]
	 SCS Correlation Energy    =      -0.6811641534622179 [Eh]
	 SCS Total Energy          =    -118.9668040476696973 [Eh]
	-----------------------------------------------------------

*** Psi4 exiting successfully. Buy a developer a beer!
