                               Psi4 1.4a2.dev224

  ==> Input File <==

--------------------------------------------------------------------------
#Generated by lconvert.py for cbs job

memory 40 GB

molecule  {
0 1
  C        1.4332690     0.6735240     0.0000730
  H        2.3145860     1.2986820    -0.0008990
  H        0.4727190     1.1682030     0.0010680
  C        1.5272490    -0.6552880     0.0000450
  H        0.6458790    -1.2802970     0.0010180
  H        2.4874960    -1.1507030    -0.0009510
--
0 1
  C       -2.2171012    -0.0038259     0.0410241
  H       -2.5076722     1.0422251     0.0408911
  H       -1.6270982    -0.2152319    -0.8455129
  H       -1.6280442    -0.2152669     0.9281841
  H       -3.1072662    -0.6249799     0.0405451
units angstrom
no_reorient
symmetry c1
}

set {
scf_type DF
mp2_type DF
e_convergence 7
reference rhf
}

energy('mp2/aug-cc-pv[tq]z', bsse_type='cp')
--------------------------------------------------------------------------

    Molecular point group: c1
  Charge       = 0
  Multiplicity = 1
  Basis Set: AUG-CC-PVTZ
    Blend: AUG-CC-PVTZ
  Basis Set: (AUG-CC-PVTZ AUX)
    Blend: AUG-CC-PVTZ-JKFIT
  @DF-RHF Final Energy:   -40.21366982181366
    Total Energy =                        -40.2136698218136601
  Basis Set: (AUG-CC-PVTZ AUX)
    Blend: AUG-CC-PVTZ-RI
	 Reference Energy          =     -40.2136698218136601 [Eh]
	 Singles Energy            =      -0.0000000000000000 [Eh]
	 Same-Spin Energy          =      -0.0392190595434220 [Eh]
	 Opposite-Spin Energy      =      -0.1800608194493182 [Eh]
	 Correlation Energy        =      -0.2192798789927402 [Eh]
	 Total Energy              =     -40.4329497008064038 [Eh]
	 SCS Total Energy          =     -40.4428158250006504 [Eh]
    Molecular point group: c1
  Basis Set: AUG-CC-PVQZ
    Blend: AUG-CC-PVQZ
  Basis Set: (AUG-CC-PVQZ AUX)
    Blend: AUG-CC-PVQZ-JKFIT
  @DF-RHF Final Energy:   -40.21630136704679
    Total Energy =                        -40.2163013670467890
  Basis Set: (AUG-CC-PVQZ AUX)
  @DF-RHF Final Energy:   -40.21368936709823
    Total Energy =                        -40.2136893670982261
  @DF-RHF Final Energy:   -40.21631263057834
    Total Energy =                        -40.2163126305783436
  @DF-RHF Final Energy:   -78.06476156919557
    Total Energy =                        -78.0647615691955821
  @DF-RHF Final Energy:   -78.06945978992819
    Total Energy =                        -78.0694597899281888
  @DF-RHF Final Energy:   -78.06473669590555
    Total Energy =                        -78.0647366959055518
  @DF-RHF Final Energy:   -78.06945096197295
    Total Energy =                        -78.0694509619729473
  Multiplicity = 1
  @DF-RHF Final Energy:  -118.27723593570248
    Total Energy =                       -118.2772359357024783
	 Singles Energy            =      -0.0000000000000000 [Eh]
	 Same-Spin Energy          =      -0.1171087627362416 [Eh]
	 Opposite-Spin Energy      =      -0.4807773879418729 [Eh]
	 Correlation Energy        =      -0.5978861506781145 [Eh]
	 Total Energy              =    -118.8751220863805997 [Eh]
	 SCS Total Energy          =    -118.8932050554781341 [Eh]
    Molecular point group: c1

    Geometry (in Angstrom), charge = 0, multiplicity = 1:

       Center              X                  Y                   Z               Mass
    ------------   -----------------  -----------------  -----------------  -----------------
         C            1.298267397533     0.669081917819    -0.014890587908    12.000000000000
         H            2.179584397533     1.294239917819    -0.015862587908     1.007825032230
         H            0.337717397533     1.163760917819    -0.013895587908     1.007825032230
         C            1.392247397533    -0.659730082181    -0.014918587908    12.000000000000
         H            0.510877397533    -1.284739082181    -0.013945587908     1.007825032230
         H            2.352494397533    -1.155145082181    -0.015914587908     1.007825032230
         C           -2.352102802467    -0.008267982181     0.026060512092    12.000000000000
         H           -2.642673802467     1.037783017819     0.025927512092     1.007825032230
         H           -1.762099802467    -0.219673982181    -0.860476487908     1.007825032230
         H           -1.763045802467    -0.219708982181     0.913220512092     1.007825032230
         H           -3.242267802467    -0.629421982181     0.025581512092     1.007825032230

  Charge       = 0
  Multiplicity = 1
  Basis Set: AUG-CC-PVQZ
    Blend: AUG-CC-PVQZ
  Basis Set: (AUG-CC-PVQZ AUX)
    Blend: AUG-CC-PVQZ-JKFIT

    Orbital Energies [Eh]
    ---------------------

    Doubly Occupied:

       1A    -11.228836     2A    -11.227106     3A    -11.205613
       4A     -1.033922     5A     -0.946463     6A     -0.792601
       7A     -0.645595     8A     -0.587355     9A     -0.548331
      10A     -0.548095    11A     -0.546354    12A     -0.507638
      13A     -0.376524

  @DF-RHF Final Energy:  -118.28455942630518

   => Energetics <=

    Nuclear Repulsion Energy =             69.4743526793809991
    One-Electron Energy =                -295.1289593248602046
    Two-Electron Energy =                 107.3700472191740118
    Total Energy =                       -118.2845594263051794

  Dipole Moment: [D]
     X:    -0.0396      Y:     0.0008      Z:     0.0022     Total:     0.0397

  Basis Set: (AUG-CC-PVQZ AUX)
    Blend: AUG-CC-PVQZ-RI
	 Reference Energy          =    -118.2845594263051794 [Eh]
	 Singles Energy            =      -0.0000000000000000 [Eh]
	 Same-Spin Energy          =      -0.1243010053073458 [Eh]
	 Opposite-Spin Energy      =      -0.5341756801550083 [Eh]
	 Correlation Energy        =      -0.6584766854623540 [Eh]
	 Total Energy              =    -118.9430361117675403 [Eh]

	 ================> DF-SCS-MP2 Energies <==================
	-----------------------------------------------------------
	 SCS Same-Spin Scale       =       0.3333333333333333 [-]
	 SCS Opposite-Spin Scale   =       1.2000000000000000 [-]
	 SCS Same-Spin Energy      =      -0.0414336684357819 [Eh]
	 SCS Opposite-Spin Energy  =      -0.6410108161860099 [Eh]
	 SCS Correlation Energy    =      -0.6824444846217917 [Eh]
	 SCS Total Energy          =    -118.9670039109269766 [Eh]
	-----------------------------------------------------------

*** Psi4 exiting successfully. Buy a developer a beer!
