                               Psi4 1.4a2.dev224

  ==> Input File <==

--------------------------------------------------------------------------
#Generated by lconvert.py for cbs job

memory 40 GB

molecule  {
0 1
  C       -1.6354650    -0.5897110     0.0002600
  C       -1.2537280     0.6873690    -0.0002080
  H       -1.7991590    -1.1277920    -0.9224230
  H       -1.7980920    -1.1274340     0.9233410
  H       -1.0910530     1.2267530     0.9217400
  H       -1.0921080     1.2262650    -0.9226260
--
0 1
  N        1.4492741     0.0399142    -0.0003185
  H        1.8326471    -0.4302758     0.8091395
  H        0.4586141    -0.1690518    -0.0017605
  H        1.8364251    -0.4363028    -0.8044495
units angstrom
no_reorient
symmetry c1
}

set {
scf_type DF
mp2_type DF
e_convergence 7
reference rhf
}

energy('mp2/aug-cc-pv[tq]z', bsse_type='cp')
--------------------------------------------------------------------------

    Molecular point group: c1
  Charge       = 0
  Multiplicity = 1
  Basis Set: AUG-CC-PVTZ
    Blend: AUG-CC-PVTZ
  Basis Set: (AUG-CC-PVTZ AUX)
    Blend: AUG-CC-PVTZ-JKFIT
  @DF-RHF Final Energy:   -56.22022295528931
    Total Energy =                        -56.2202229552893087
  Basis Set: (AUG-CC-PVTZ AUX)
    Blend: AUG-CC-PVTZ-RI
	 Reference Energy          =     -56.2202229552893087 [Eh]
	 Singles Energy            =      -0.0000000000000000 [Eh]
	 Same-Spin Energy          =      -0.0560761858849993 [Eh]
	 Opposite-Spin Energy      =      -0.2010803755943011 [Eh]
	 Correlation Energy        =      -0.2571565614793004 [Eh]
	 Total Energy              =     -56.4773795167686075 [Eh]
	 SCS Total Energy          =     -56.4802114679641392 [Eh]
    Molecular point group: c1
  Basis Set: AUG-CC-PVQZ
    Blend: AUG-CC-PVQZ
  Basis Set: (AUG-CC-PVQZ AUX)
    Blend: AUG-CC-PVQZ-JKFIT
  @DF-RHF Final Energy:   -56.22387392941381
    Total Energy =                        -56.2238739294138057
  Basis Set: (AUG-CC-PVQZ AUX)
  @DF-RHF Final Energy:   -56.22027994934828
    Total Energy =                        -56.2202799493482814
  @DF-RHF Final Energy:   -56.22388723241955
    Total Energy =                        -56.2238872324195498
  @DF-RHF Final Energy:   -78.06481694821871
    Total Energy =                        -78.0648169482186916
  @DF-RHF Final Energy:   -78.06945106689783
    Total Energy =                        -78.0694510668978268
  @DF-RHF Final Energy:   -78.06470652707510
    Total Energy =                        -78.0647065270751028
  @DF-RHF Final Energy:   -78.06941922817948
    Total Energy =                        -78.0694192281794841
  @DF-RHF Final Energy:  -134.26770210417843
    Total Energy =                       -134.2677021041784258
  @DF-RHF Final Energy:  -134.27593594560815
    Total Energy =                       -134.2759359456081540
*** Psi4 exiting successfully. Buy a developer a beer!
                               Psi4 1.4a2.dev224
  @DF-RHF Final Energy:   -56.22022295727123
    Total Energy =                        -56.2202229572712326
  @DF-RHF Final Energy:   -56.22387393145117
    Total Energy =                        -56.2238739314511662
  @DF-RHF Final Energy:   -56.22026732670703
    Total Energy =                        -56.2202673267070310
  @DF-RHF Final Energy:   -56.22388469167136
    Total Energy =                        -56.2238846916713584
  @DF-RHF Final Energy:   -78.06480229499664
    Total Energy =                        -78.0648022949966389
  @DF-RHF Final Energy:   -78.06944581686945
    Total Energy =                        -78.0694458168694467
  @DF-RHF Final Energy:   -78.06470652709160
    Total Energy =                        -78.0647065270916016
  @DF-RHF Final Energy:   -78.06941922839309
    Total Energy =                        -78.0694192283930875
  @DF-RHF Final Energy:  -134.27924859884047
    Total Energy =                       -134.2792485988404678
  @DF-RHF Final Energy:  -134.28750635755480
    Total Energy =                       -134.2875063575547756
*** Psi4 exiting successfully. Buy a developer a beer!
                               Psi4 1.4a2.dev224
                               Psi4 1.4a2.dev224
                               Psi4 1.4a2.dev224
                               Psi4 1.4a2.dev224
                               Psi4 1.4a2.dev224
                               Psi4 1.4a2.dev224
                               Psi4 1.4a2.dev224
  @DF-RHF Final Energy:   -56.22022309742852
    Total Energy =                        -56.2202230974285158
  @DF-RHF Final Energy:   -56.22387407780998
    Total Energy =                        -56.2238740778099810
  @DF-RHF Final Energy:   -56.22022838405679
    Total Energy =                        -56.2202283840567887
  @DF-RHF Final Energy:   -56.22387579311101
    Total Energy =                        -56.2238757931110058
  @DF-RHF Final Energy:   -78.06471361099936
    Total Energy =                        -78.0647136109993482
  @DF-RHF Final Energy:   -78.06942386084489
    Total Energy =                        -78.0694238608448927
  @DF-RHF Final Energy:   -78.06470665038475
    Total Energy =                        -78.0647066503847498
  @DF-RHF Final Energy:   -78.06941935841688
    Total Energy =                        -78.0694193584168801
  @DF-RHF Final Energy:  -134.28527398474827
    Total Energy =                       -134.2852739847482724
  @DF-RHF Final Energy:  -134.29362871833504
    Total Energy =                       -134.2936287183350430
*** Psi4 exiting successfully. Buy a developer a beer!
                               Psi4 1.4a2.dev224
  @DF-RHF Final Energy:   -56.22022277938541
    Total Energy =                        -56.2202227793854092
  @DF-RHF Final Energy:   -56.22387374241620
    Total Energy =                        -56.2238737424161954
  @DF-RHF Final Energy:   -56.22022545188604
    Total Energy =                        -56.2202254518860443
  @DF-RHF Final Energy:   -56.22387467134347
    Total Energy =                        -56.2238746713434736
  @DF-RHF Final Energy:   -78.06471126654245
    Total Energy =                        -78.0647112665424459
  @DF-RHF Final Energy:   -78.06942051976505
    Total Energy =                        -78.0694205197650462
  @DF-RHF Final Energy:   -78.06470665043524
    Total Energy =                        -78.0647066504352409
  @DF-RHF Final Energy:   -78.06941935836990
    Total Energy =                        -78.0694193583698990
  Multiplicity = 1
  @DF-RHF Final Energy:  -134.28510620778553
    Total Energy =                       -134.2851062077855318
	 Singles Energy            =      -0.0000000000000000 [Eh]
	 Same-Spin Energy          =      -0.1326664526449345 [Eh]
	 Opposite-Spin Energy      =      -0.4997234348649477 [Eh]
	 Correlation Energy        =      -0.6323898875098822 [Eh]
	 Total Energy              =    -134.9174960952954052 [Eh]
	 SCS Total Energy          =    -134.9289964805051056 [Eh]
    Molecular point group: c1

    Geometry (in Angstrom), charge = 0, multiplicity = 1:

       Center              X                  Y                   Z               Mass
    ------------   -----------------  -----------------  -----------------  -----------------
         C           -2.631092892337    -0.605179694802     0.000438636405    12.000000000000
         C           -2.249362892337     0.671900305198    -0.000031363595    12.000000000000
         H           -2.794792892337    -1.143259694802    -0.922241363595     1.007825032230
         H           -2.793722892337    -1.142899694802     0.923518636405     1.007825032230
         H           -2.086682892337     1.211280305198     0.921918636405     1.007825032230
         H           -2.087742892337     1.210790305198    -0.922451363595     1.007825032230
         N            4.030567107663     0.013320305198    -0.000561363595    14.003074004430
         H            4.413947107663    -0.456869694802     0.808898636405     1.007825032230
         H            3.039907107663    -0.195649694802    -0.002001363595     1.007825032230
         H            4.417727107663    -0.462899694802    -0.804691363595     1.007825032230

  Charge       = 0
  Multiplicity = 1
  Basis Set: AUG-CC-PVQZ
    Blend: AUG-CC-PVQZ
  Basis Set: (AUG-CC-PVQZ AUX)
    Blend: AUG-CC-PVQZ-JKFIT

    Orbital Energies [Eh]
    ---------------------

    Doubly Occupied:

       1A    -15.539163     2A    -11.231627     3A    -11.229906
       4A     -1.142297     5A     -1.035767     6A     -0.795019
       7A     -0.646290     8A     -0.626513     9A     -0.626223
      10A     -0.589392    11A     -0.510180    12A     -0.430628
      13A     -0.378697

  @DF-RHF Final Energy:  -134.29346381781636

   => Energetics <=

    Nuclear Repulsion Energy =             58.4126911516791552
    One-Electron Energy =                -295.8489073399740050
    Two-Electron Energy =                 103.1427523704784903
    Total Energy =                       -134.2934638178163596

  Dipole Moment: [D]
     X:    -0.3393      Y:    -1.6002      Z:     0.0054     Total:     1.6358

  Basis Set: (AUG-CC-PVQZ AUX)
    Blend: AUG-CC-PVQZ-RI
	 Reference Energy          =    -134.2934638178163596 [Eh]
	 Singles Energy            =      -0.0000000000000000 [Eh]
	 Same-Spin Energy          =      -0.1408161604823889 [Eh]
	 Opposite-Spin Energy      =      -0.5587190809246854 [Eh]
	 Correlation Energy        =      -0.6995352414070742 [Eh]
	 Total Energy              =    -134.9929990592234219 [Eh]

	 ================> DF-SCS-MP2 Energies <==================
	-----------------------------------------------------------
	 SCS Same-Spin Scale       =       0.3333333333333333 [-]
	 SCS Opposite-Spin Scale   =       1.2000000000000000 [-]
	 SCS Same-Spin Energy      =      -0.0469387201607963 [Eh]
	 SCS Opposite-Spin Energy  =      -0.6704628971096224 [Eh]
	 SCS Correlation Energy    =      -0.7174016172704186 [Eh]
	 SCS Total Energy          =    -135.0108654350867710 [Eh]
	-----------------------------------------------------------

*** Psi4 exiting successfully. Buy a developer a beer!
