                               Psi4 1.4a2.dev224

  ==> Input File <==

--------------------------------------------------------------------------
#Generated by lconvert.py for cbs job

memory 40 GB

molecule  {
0 1
  C       -1.6354650    -0.5897110     0.0002600
  C       -1.2537280     0.6873690    -0.0002080
  H       -1.7991590    -1.1277920    -0.9224230
  H       -1.7980920    -1.1274340     0.9233410
  H       -1.0910530     1.2267530     0.9217400
  H       -1.0921080     1.2262650    -0.9226260
--
0 1
  N        2.4770897     0.0367165    -0.0004400
  H        2.8604627    -0.4334735     0.8090180
  H        1.4864297    -0.1722495    -0.0018820
  H        2.8642407    -0.4395005    -0.8045710
units angstrom
no_reorient
symmetry c1
}

set {
scf_type DF
mp2_type DF
e_convergence 7
reference rhf
}

energy('mp2/aug-cc-pv[tq]z', bsse_type='cp')
--------------------------------------------------------------------------

    Molecular point group: c1
  Charge       = 0
  Multiplicity = 1
  Basis Set: AUG-CC-PVTZ
    Blend: AUG-CC-PVTZ
  Basis Set: (AUG-CC-PVTZ AUX)
    Blend: AUG-CC-PVTZ-JKFIT
  @DF-RHF Final Energy:   -56.22022295528836
    Total Energy =                        -56.2202229552883566
  Basis Set: (AUG-CC-PVTZ AUX)
    Blend: AUG-CC-PVTZ-RI
	 Reference Energy          =     -56.2202229552883566 [Eh]
	 Singles Energy            =      -0.0000000000000000 [Eh]
	 Same-Spin Energy          =      -0.0560761858850154 [Eh]
	 Opposite-Spin Energy      =      -0.2010803755943573 [Eh]
	 Correlation Energy        =      -0.2571565614793727 [Eh]
	 Total Energy              =     -56.4773795167677264 [Eh]
	 SCS Total Energy          =     -56.4802114679632581 [Eh]
    Molecular point group: c1
  Basis Set: AUG-CC-PVQZ
    Blend: AUG-CC-PVQZ
  Basis Set: (AUG-CC-PVQZ AUX)
    Blend: AUG-CC-PVQZ-JKFIT
  @DF-RHF Final Energy:   -56.22387392940996
    Total Energy =                        -56.2238739294099616
  Basis Set: (AUG-CC-PVQZ AUX)
  @DF-RHF Final Energy:   -56.22024324565275
    Total Energy =                        -56.2202432456527461
  @DF-RHF Final Energy:   -56.22387973683959
    Total Energy =                        -56.2238797368395851
  @DF-RHF Final Energy:   -78.06475706775487
    Total Energy =                        -78.0647570677548686
  @DF-RHF Final Energy:   -78.06943506046976
    Total Energy =                        -78.0694350604697576
  @DF-RHF Final Energy:   -78.06470652708028
    Total Energy =                        -78.0647065270802756
  @DF-RHF Final Energy:   -78.06941922835594
    Total Energy =                        -78.0694192283559403
  Multiplicity = 1
  @DF-RHF Final Energy:  -134.28554875058268
    Total Energy =                       -134.2855487505826773
	 Singles Energy            =      -0.0000000000000000 [Eh]
	 Same-Spin Energy          =      -0.1335358824261808 [Eh]
	 Opposite-Spin Energy      =      -0.5011325129441574 [Eh]
	 Correlation Energy        =      -0.6346683953703383 [Eh]
	 Total Energy              =    -134.9202171459530177 [Eh]
	 SCS Total Energy          =    -134.9314197269243891 [Eh]
    Molecular point group: c1

    Geometry (in Angstrom), charge = 0, multiplicity = 1:

       Center              X                  Y                   Z               Mass
    ------------   -----------------  -----------------  -----------------  -----------------
         C           -1.667833853559    -0.608175644942     0.000324806266    12.000000000000
         C           -1.286096853559     0.668904355058    -0.000143193734    12.000000000000
         H           -1.831527853559    -1.146256644942    -0.922358193734     1.007825032230
         H           -1.830460853559    -1.145898644942     0.923405806266     1.007825032230
         H           -1.123421853559     1.208288355058     0.921804806266     1.007825032230
         H           -1.124476853559     1.207800355058    -0.922561193734     1.007825032230
         N            2.444720846441     0.018251855058    -0.000375193734    14.003074004430
         H            2.828093846441    -0.451938144942     0.809082806266     1.007825032230
         H            1.454060846441    -0.190714144942    -0.001817193734     1.007825032230
         H            2.831871846441    -0.457965144942    -0.804506193734     1.007825032230

  Charge       = 0
  Multiplicity = 1
  Basis Set: AUG-CC-PVQZ
    Blend: AUG-CC-PVQZ
  Basis Set: (AUG-CC-PVQZ AUX)
    Blend: AUG-CC-PVQZ-JKFIT

    Orbital Energies [Eh]
    ---------------------

    Doubly Occupied:

       1A    -15.532918     2A    -11.234453     3A    -11.232726
       4A     -1.136676     5A     -1.039237     6A     -0.797804
       7A     -0.649293     8A     -0.621105     9A     -0.620942
      10A     -0.592103    11A     -0.512840    12A     -0.425394
      13A     -0.382534

  @DF-RHF Final Energy:  -134.29386602277665

   => Energetics <=

    Nuclear Repulsion Energy =             66.6637112975318331
    One-Electron Energy =                -312.3591041898233698
    Two-Electron Energy =                 111.4015268695148535
    Total Energy =                       -134.2938660227766832

  Dipole Moment: [D]
     X:    -0.4790      Y:    -1.5354      Z:     0.0052     Total:     1.6084

  Basis Set: (AUG-CC-PVQZ AUX)
    Blend: AUG-CC-PVQZ-RI
	 Reference Energy          =    -134.2938660227766547 [Eh]
	 Singles Energy            =      -0.0000000000000000 [Eh]
	 Same-Spin Energy          =      -0.1416550296992991 [Eh]
	 Opposite-Spin Energy      =      -0.5597031285211980 [Eh]
	 Correlation Energy        =      -0.7013581582204971 [Eh]
	 Total Energy              =    -134.9952241809971554 [Eh]

	 ================> DF-SCS-MP2 Energies <==================
	-----------------------------------------------------------
	 SCS Same-Spin Scale       =       0.3333333333333333 [-]
	 SCS Opposite-Spin Scale   =       1.2000000000000000 [-]
	 SCS Same-Spin Energy      =      -0.0472183432330997 [Eh]
	 SCS Opposite-Spin Energy  =      -0.6716437542254375 [Eh]
	 SCS Correlation Energy    =      -0.7188620974585372 [Eh]
	 SCS Total Energy          =    -135.0127281202351810 [Eh]
	-----------------------------------------------------------

*** Psi4 exiting successfully. Buy a developer a beer!
