                               Psi4 1.4a2.dev224

  ==> Input File <==

--------------------------------------------------------------------------
#Generated by lconvert.py for cbs job

memory 20 GB

molecule  {
0 1
  C      -1.635460   -0.589710    0.000260
  C      -1.253730    0.687370   -0.000210
  H      -1.799160   -1.127790   -0.922420
  H      -1.798090   -1.127430    0.923340
  H      -1.091050    1.226750    0.921740
  H      -1.092110    1.226260   -0.922630
--
0 1
  N       4.123860    0.031590   -0.000640
  H       4.507230   -0.438600    0.808820
  H       3.133200   -0.177370   -0.002080
  H       4.511010   -0.444620   -0.804770
units angstrom
no_reorient
symmetry c1
}

set {
scf_type DF
mp2_type DF
e_convergence 7
reference rhf
}

energy('mp2/aug-cc-pv[tq]z', bsse_type='cp')
--------------------------------------------------------------------------

    Molecular point group: c1
  Charge       = 0
  Multiplicity = 1
  Basis Set: AUG-CC-PVTZ
    Blend: AUG-CC-PVTZ
  Basis Set: (AUG-CC-PVTZ AUX)
    Blend: AUG-CC-PVTZ-JKFIT
  @DF-RHF Final Energy:   -56.22022309742852
    Total Energy =                        -56.2202230974285158
  Basis Set: (AUG-CC-PVTZ AUX)
    Blend: AUG-CC-PVTZ-RI
	 Reference Energy          =     -56.2202230974285158 [Eh]
	 Singles Energy            =      -0.0000000000000000 [Eh]
	 Same-Spin Energy          =      -0.0560761663013658 [Eh]
	 Opposite-Spin Energy      =      -0.2010802859878101 [Eh]
	 Correlation Energy        =      -0.2571564522891759 [Eh]
	 Total Energy              =     -56.4773795497176891 [Eh]
	 SCS Total Energy          =     -56.4802114960476800 [Eh]
    Molecular point group: c1
  Basis Set: AUG-CC-PVQZ
    Blend: AUG-CC-PVQZ
  Basis Set: (AUG-CC-PVQZ AUX)
    Blend: AUG-CC-PVQZ-JKFIT
  @DF-RHF Final Energy:   -56.22387407780998
    Total Energy =                        -56.2238740778099810
  Basis Set: (AUG-CC-PVQZ AUX)
  @DF-RHF Final Energy:   -56.22022838405679
    Total Energy =                        -56.2202283840567887
  @DF-RHF Final Energy:   -56.22387579311101
    Total Energy =                        -56.2238757931110058
  @DF-RHF Final Energy:   -78.06471361099936
    Total Energy =                        -78.0647136109993482
  @DF-RHF Final Energy:   -78.06942386084489
    Total Energy =                        -78.0694238608448927
  @DF-RHF Final Energy:   -78.06470665038475
    Total Energy =                        -78.0647066503847498
  @DF-RHF Final Energy:   -78.06941935841688
    Total Energy =                        -78.0694193584168801
  Multiplicity = 1
  @DF-RHF Final Energy:  -134.28527398474827
    Total Energy =                       -134.2852739847482724
	 Singles Energy            =      -0.0000000000000000 [Eh]
	 Same-Spin Energy          =      -0.1327233535943010 [Eh]
	 Opposite-Spin Energy      =      -0.4998167870267587 [Eh]
	 Correlation Energy        =      -0.6325401406210597 [Eh]
	 Total Energy              =    -134.9178141253693184 [Eh]
	 SCS Total Energy          =    -134.9292952470451610 [Eh]
    Molecular point group: c1

    Geometry (in Angstrom), charge = 0, multiplicity = 1:

       Center              X                  Y                   Z               Mass
    ------------   -----------------  -----------------  -----------------  -----------------
         C           -2.290114422771    -0.606238211682     0.000400848208    12.000000000000
         C           -1.908384422771     0.670841788318    -0.000069151792    12.000000000000
         H           -2.453814422771    -1.144318211682    -0.922279151792     1.007825032230
         H           -2.452744422771    -1.143958211682     0.923480848208     1.007825032230
         H           -1.745704422771     1.210221788318     0.921880848208     1.007825032230
         H           -1.746764422771     1.209731788318    -0.922489151792     1.007825032230
         N            3.469205577229     0.015061788318    -0.000499151792    14.003074004430
         H            3.852575577229    -0.455128211682     0.808960848208     1.007825032230
         H            2.478545577229    -0.193898211682    -0.001939151792     1.007825032230
         H            3.856355577229    -0.461148211682    -0.804629151792     1.007825032230

  Charge       = 0
  Multiplicity = 1
  Basis Set: AUG-CC-PVQZ
    Blend: AUG-CC-PVQZ
  Basis Set: (AUG-CC-PVQZ AUX)
    Blend: AUG-CC-PVQZ-JKFIT

    Orbital Energies [Eh]
    ---------------------

    Doubly Occupied:

       1A    -15.538279     2A    -11.232232     3A    -11.230509
       4A     -1.141432     5A     -1.036412     6A     -0.795581
       7A     -0.646886     8A     -0.625573     9A     -0.625420
      10A     -0.589964    11A     -0.510731    12A     -0.429814
      13A     -0.379422

  @DF-RHF Final Energy:  -134.29362871833504

   => Energetics <=

    Nuclear Repulsion Energy =             60.4932270931400140
    One-Electron Energy =                -300.0092024203013921
    Two-Electron Energy =                 105.2223466088263422
    Total Energy =                       -134.2936287183350430

  Dipole Moment: [D]
     X:    -0.3617      Y:    -1.5889      Z:     0.0053     Total:     1.6296

  Basis Set: (AUG-CC-PVQZ AUX)
    Blend: AUG-CC-PVQZ-RI
	 Reference Energy          =    -134.2936287183350430 [Eh]
	 Singles Energy            =      -0.0000000000000000 [Eh]
	 Same-Spin Energy          =      -0.1408695037105626 [Eh]
	 Opposite-Spin Energy      =      -0.5587716174287281 [Eh]
	 Correlation Energy        =      -0.6996411211392907 [Eh]
	 Total Energy              =    -134.9932698394743227 [Eh]

	 ================> DF-SCS-MP2 Energies <==================
	-----------------------------------------------------------
	 SCS Same-Spin Scale       =       0.3333333333333333 [-]
	 SCS Opposite-Spin Scale   =       1.2000000000000000 [-]
	 SCS Same-Spin Energy      =      -0.0469565012368542 [Eh]
	 SCS Opposite-Spin Energy  =      -0.6705259409144736 [Eh]
	 SCS Correlation Energy    =      -0.7174824421513278 [Eh]
	 SCS Total Energy          =    -135.0111111604863652 [Eh]
	-----------------------------------------------------------

*** Psi4 exiting successfully. Buy a developer a beer!
