                               Psi4 1.4a2.dev224

  ==> Input File <==

--------------------------------------------------------------------------
#Generated by lconvert.py for cbs job

memory 40 GB

molecule  {
0 1
  C       -1.6354650    -0.5897110     0.0002600
  C       -1.2537280     0.6873690    -0.0002080
  H       -1.7991590    -1.1277920    -0.9224230
  H       -1.7980920    -1.1274340     0.9233410
  H       -1.0910530     1.2267530     0.9217400
  H       -1.0921080     1.2262650    -0.9226260
--
0 1
  N        1.7500551     0.0389784    -0.0003541
  H        2.1334281    -0.4312115     0.8091039
  H        0.7593951    -0.1699875    -0.0017961
  H        2.1372061    -0.4372386    -0.8044851
units angstrom
no_reorient
symmetry c1
}

set {
scf_type DF
mp2_type DF
e_convergence 7
reference rhf
}

energy('mp2/aug-cc-pv[tq]z', bsse_type='cp')
--------------------------------------------------------------------------

    Molecular point group: c1
  Charge       = 0
  Multiplicity = 1
  Basis Set: AUG-CC-PVTZ
    Blend: AUG-CC-PVTZ
  Basis Set: (AUG-CC-PVTZ AUX)
    Blend: AUG-CC-PVTZ-JKFIT
  @DF-RHF Final Energy:   -56.22022295727123
    Total Energy =                        -56.2202229572712326
  Basis Set: (AUG-CC-PVTZ AUX)
    Blend: AUG-CC-PVTZ-RI
	 Reference Energy          =     -56.2202229572712326 [Eh]
	 Singles Energy            =      -0.0000000000000000 [Eh]
	 Same-Spin Energy          =      -0.0560761856165285 [Eh]
	 Opposite-Spin Energy      =      -0.2010803743834695 [Eh]
	 Correlation Energy        =      -0.2571565599999980 [Eh]
	 Total Energy              =     -56.4773795172712312 [Eh]
	 SCS Total Energy          =     -56.4802114684035743 [Eh]
    Molecular point group: c1
  Basis Set: AUG-CC-PVQZ
    Blend: AUG-CC-PVQZ
  Basis Set: (AUG-CC-PVQZ AUX)
    Blend: AUG-CC-PVQZ-JKFIT
  @DF-RHF Final Energy:   -56.22387393145117
    Total Energy =                        -56.2238739314511662
  Basis Set: (AUG-CC-PVQZ AUX)
  @DF-RHF Final Energy:   -56.22026732670703
    Total Energy =                        -56.2202673267070310
  @DF-RHF Final Energy:   -56.22388469167136
    Total Energy =                        -56.2238846916713584
  @DF-RHF Final Energy:   -78.06480229499664
    Total Energy =                        -78.0648022949966389
  @DF-RHF Final Energy:   -78.06944581686945
    Total Energy =                        -78.0694458168694467
  @DF-RHF Final Energy:   -78.06470652709160
    Total Energy =                        -78.0647065270916016
  @DF-RHF Final Energy:   -78.06941922839309
    Total Energy =                        -78.0694192283930875
  Multiplicity = 1
  @DF-RHF Final Energy:  -134.27924859884047
    Total Energy =                       -134.2792485988404678
	 Singles Energy            =      -0.0000000000000000 [Eh]
	 Same-Spin Energy          =      -0.1355527582855356 [Eh]
	 Opposite-Spin Energy      =      -0.5042679151247293 [Eh]
	 Correlation Energy        =      -0.6398206734102649 [Eh]
	 Total Energy              =    -134.9190692722507379 [Eh]
	 SCS Total Energy          =    -134.9295543497519816 [Eh]
    Molecular point group: c1

    Geometry (in Angstrom), charge = 0, multiplicity = 1:

       Center              X                  Y                   Z               Mass
    ------------   -----------------  -----------------  -----------------  -----------------
         C           -1.393100582295    -0.609030380657     0.000292346204    12.000000000000
         C           -1.011363582295     0.668049619343    -0.000175653796    12.000000000000
         H           -1.556794582295    -1.147111380657    -0.922390653796     1.007825032230
         H           -1.555727582295    -1.146753380657     0.923373346204     1.007825032230
         H           -0.848688582295     1.207433619343     0.921772346204     1.007825032230
         H           -0.849743582295     1.206945619343    -0.922593653796     1.007825032230
         N            1.992419517705     0.019659019343    -0.000321753796    14.003074004430
         H            2.375792517705    -0.450530880657     0.809136246204     1.007825032230
         H            1.001759517705    -0.189306880657    -0.001763753796     1.007825032230
         H            2.379570517705    -0.456557980657    -0.804452753796     1.007825032230

  Charge       = 0
  Multiplicity = 1
  Basis Set: AUG-CC-PVQZ
    Blend: AUG-CC-PVQZ
  Basis Set: (AUG-CC-PVQZ AUX)
    Blend: AUG-CC-PVQZ-JKFIT

    Orbital Energies [Eh]
    ---------------------

    Doubly Occupied:

       1A    -15.524178     2A    -11.235612     3A    -11.233352
       4A     -1.131703     5A     -1.042455     6A     -0.799958
       7A     -0.651638     8A     -0.620058     9A     -0.615000
      10A     -0.593807    11A     -0.514533    12A     -0.420181
      13A     -0.381694

  @DF-RHF Final Energy:  -134.28750635755480

   => Energetics <=

    Nuclear Repulsion Energy =             71.2924850628231468
    One-Electron Energy =                -321.6316351996998719
    Two-Electron Energy =                 116.0516437793219353
    Total Energy =                       -134.2875063575547756

  Dipole Moment: [D]
     X:    -0.5818      Y:    -1.4571      Z:     0.0050     Total:     1.5690

  Basis Set: (AUG-CC-PVQZ AUX)
    Blend: AUG-CC-PVQZ-RI
	 Reference Energy          =    -134.2875063575548040 [Eh]
	 Singles Energy            =      -0.0000000000000000 [Eh]
	 Same-Spin Energy          =      -0.1436763746266201 [Eh]
	 Opposite-Spin Energy      =      -0.5623383853919891 [Eh]
	 Correlation Energy        =      -0.7060147600186093 [Eh]
	 Total Energy              =    -134.9935211175734082 [Eh]

	 ================> DF-SCS-MP2 Energies <==================
	-----------------------------------------------------------
	 SCS Same-Spin Scale       =       0.3333333333333333 [-]
	 SCS Opposite-Spin Scale   =       1.2000000000000000 [-]
	 SCS Same-Spin Energy      =      -0.0478921248755400 [Eh]
	 SCS Opposite-Spin Energy  =      -0.6748060624703869 [Eh]
	 SCS Correlation Energy    =      -0.7226981873459269 [Eh]
	 SCS Total Energy          =    -135.0102045449007448 [Eh]
	-----------------------------------------------------------

*** Psi4 exiting successfully. Buy a developer a beer!
