                               Psi4 1.4a2.dev224

  ==> Input File <==

--------------------------------------------------------------------------
#Generated by lconvert.py for cbs job

memory 40 GB

molecule  {
0 1
  C       -1.6354650    -0.5897110     0.0002600
  C       -1.2537280     0.6873690    -0.0002080
  H       -1.7991590    -1.1277920    -0.9224230
  H       -1.7980920    -1.1274340     0.9233410
  H       -1.0910530     1.2267530     0.9217400
  H       -1.0921080     1.2262650    -0.9226260
--
0 1
  N        1.4492741     0.0399142    -0.0003185
  H        1.8326471    -0.4302758     0.8091395
  H        0.4586141    -0.1690518    -0.0017605
  H        1.8364251    -0.4363028    -0.8044495
units angstrom
no_reorient
symmetry c1
}

set {
scf_type DF
mp2_type DF
e_convergence 7
reference rhf
}

energy('mp2/aug-cc-pv[tq]z', bsse_type='cp')
--------------------------------------------------------------------------

    Molecular point group: c1
  Charge       = 0
  Multiplicity = 1
  Basis Set: AUG-CC-PVTZ
    Blend: AUG-CC-PVTZ
  Basis Set: (AUG-CC-PVTZ AUX)
    Blend: AUG-CC-PVTZ-JKFIT
  @DF-RHF Final Energy:   -56.22022295528931
    Total Energy =                        -56.2202229552893087
  Basis Set: (AUG-CC-PVTZ AUX)
    Blend: AUG-CC-PVTZ-RI
	 Reference Energy          =     -56.2202229552893087 [Eh]
	 Singles Energy            =      -0.0000000000000000 [Eh]
	 Same-Spin Energy          =      -0.0560761858849993 [Eh]
	 Opposite-Spin Energy      =      -0.2010803755943011 [Eh]
	 Correlation Energy        =      -0.2571565614793004 [Eh]
	 Total Energy              =     -56.4773795167686075 [Eh]
	 SCS Total Energy          =     -56.4802114679641392 [Eh]
    Molecular point group: c1
  Basis Set: AUG-CC-PVQZ
    Blend: AUG-CC-PVQZ
  Basis Set: (AUG-CC-PVQZ AUX)
    Blend: AUG-CC-PVQZ-JKFIT
  @DF-RHF Final Energy:   -56.22387392941381
    Total Energy =                        -56.2238739294138057
  Basis Set: (AUG-CC-PVQZ AUX)
  @DF-RHF Final Energy:   -56.22027994934828
    Total Energy =                        -56.2202799493482814
  @DF-RHF Final Energy:   -56.22388723241955
    Total Energy =                        -56.2238872324195498
  @DF-RHF Final Energy:   -78.06481694821871
    Total Energy =                        -78.0648169482186916
  @DF-RHF Final Energy:   -78.06945106689783
    Total Energy =                        -78.0694510668978268
  @DF-RHF Final Energy:   -78.06470652707510
    Total Energy =                        -78.0647065270751028
  @DF-RHF Final Energy:   -78.06941922817948
    Total Energy =                        -78.0694192281794841
  Multiplicity = 1
  @DF-RHF Final Energy:  -134.26770210417843
    Total Energy =                       -134.2677021041784258
	 Singles Energy            =      -0.0000000000000000 [Eh]
	 Same-Spin Energy          =      -0.1374354819604204 [Eh]
	 Opposite-Spin Energy      =      -0.5069696588112504 [Eh]
	 Correlation Energy        =      -0.6444051407716708 [Eh]
	 Total Energy              =    -134.9121072449501071 [Eh]
	 SCS Total Energy          =    -134.9218775220720659 [Eh]
    Molecular point group: c1

    Geometry (in Angstrom), charge = 0, multiplicity = 1:

       Center              X                  Y                   Z               Mass
    ------------   -----------------  -----------------  -----------------  -----------------
         C           -1.279440863673    -0.609383998137     0.000278893606    12.000000000000
         C           -0.897703863673     0.667696001863    -0.000189106394    12.000000000000
         H           -1.443134863673    -1.147464998137    -0.922404106394     1.007825032230
         H           -1.442067863673    -1.147106998137     0.923359893606     1.007825032230
         H           -0.735028863673     1.207080001863     0.921758893606     1.007825032230
         H           -0.736083863673     1.206592001863    -0.922607106394     1.007825032230
         N            1.805298236327     0.020241201863    -0.000299606394    14.003074004430
         H            2.188671236327    -0.449948798137     0.809158393606     1.007825032230
         H            0.814638236327    -0.188724798137    -0.001741606394     1.007825032230
         H            2.192449236327    -0.455975798137    -0.804430606394     1.007825032230

  Charge       = 0
  Multiplicity = 1
  Basis Set: AUG-CC-PVQZ
    Blend: AUG-CC-PVQZ
  Basis Set: (AUG-CC-PVQZ AUX)
    Blend: AUG-CC-PVQZ-JKFIT

    Orbital Energies [Eh]
    ---------------------

    Doubly Occupied:

       1A    -15.516959     2A    -11.237201     3A    -11.232294
       4A     -1.130478     5A     -1.045045     6A     -0.801795
       7A     -0.653736     8A     -0.623278     9A     -0.610877
      10A     -0.595310    11A     -0.515717    12A     -0.416932
      13A     -0.376493

  @DF-RHF Final Energy:  -134.27593594560815

   => Energetics <=

    Nuclear Repulsion Energy =             73.8333951046063675
    One-Electron Energy =                -326.7064294904124608
    Two-Electron Energy =                 118.5970984401979251
    Total Energy =                       -134.2759359456081540

  Dipole Moment: [D]
     X:    -0.6311      Y:    -1.3814      Z:     0.0049     Total:     1.5188

  Basis Set: (AUG-CC-PVQZ AUX)
    Blend: AUG-CC-PVQZ-RI
	 Reference Energy          =    -134.2759359456081540 [Eh]
	 Singles Energy            =      -0.0000000000000000 [Eh]
	 Same-Spin Energy          =      -0.1455815157634680 [Eh]
	 Opposite-Spin Energy      =      -0.5648240911421725 [Eh]
	 Correlation Energy        =      -0.7104056069056405 [Eh]
	 Total Energy              =    -134.9863415525138066 [Eh]

	 ================> DF-SCS-MP2 Energies <==================
	-----------------------------------------------------------
	 SCS Same-Spin Scale       =       0.3333333333333333 [-]
	 SCS Opposite-Spin Scale   =       1.2000000000000000 [-]
	 SCS Same-Spin Energy      =      -0.0485271719211560 [Eh]
	 SCS Opposite-Spin Energy  =      -0.6777889093706070 [Eh]
	 SCS Correlation Energy    =      -0.7263160812917629 [Eh]
	 SCS Total Energy          =    -135.0022520268999244 [Eh]
	-----------------------------------------------------------

*** Psi4 exiting successfully. Buy a developer a beer!
