                               Psi4 1.4a2.dev224

  ==> Input File <==

--------------------------------------------------------------------------
#Generated by lconvert.py for cbs job

memory 40 GB

molecule  {
0 1
  C       -1.6354650    -0.5897110     0.0002600
  C       -1.2537280     0.6873690    -0.0002080
  H       -1.7991590    -1.1277920    -0.9224230
  H       -1.7980920    -1.1274340     0.9233410
  H       -1.0910530     1.2267530     0.9217400
  H       -1.0921080     1.2262650    -0.9226260
--
0 1
  N        2.1892877     0.0376119    -0.0004060
  H        2.5726607    -0.4325781     0.8090520
  H        1.1986277    -0.1713541    -0.0018480
  H        2.5764387    -0.4386051    -0.8045370
units angstrom
no_reorient
symmetry c1
}

set {
scf_type DF
mp2_type DF
e_convergence 7
reference rhf
}

energy('mp2/aug-cc-pv[tq]z', bsse_type='cp')
--------------------------------------------------------------------------

    Molecular point group: c1
  Charge       = 0
  Multiplicity = 1
  Basis Set: AUG-CC-PVTZ
    Blend: AUG-CC-PVTZ
  Basis Set: (AUG-CC-PVTZ AUX)
    Blend: AUG-CC-PVTZ-JKFIT
  @DF-RHF Final Energy:   -56.22022295528826
    Total Energy =                        -56.2202229552882571
  Basis Set: (AUG-CC-PVTZ AUX)
    Blend: AUG-CC-PVTZ-RI
	 Reference Energy          =     -56.2202229552882571 [Eh]
	 Singles Energy            =      -0.0000000000000000 [Eh]
	 Same-Spin Energy          =      -0.0560761858849945 [Eh]
	 Opposite-Spin Energy      =      -0.2010803755943138 [Eh]
	 Correlation Energy        =      -0.2571565614793083 [Eh]
	 Total Energy              =     -56.4773795167675630 [Eh]
	 SCS Total Energy          =     -56.4802114679631018 [Eh]
    Molecular point group: c1
  Basis Set: AUG-CC-PVQZ
    Blend: AUG-CC-PVQZ
  Basis Set: (AUG-CC-PVQZ AUX)
    Blend: AUG-CC-PVQZ-JKFIT
  @DF-RHF Final Energy:   -56.22387392940345
    Total Energy =                        -56.2238739294034531
  Basis Set: (AUG-CC-PVQZ AUX)
  @DF-RHF Final Energy:   -56.22025100484740
    Total Energy =                        -56.2202510048473982
  @DF-RHF Final Energy:   -56.22388136739821
    Total Energy =                        -56.2238813673982136
  @DF-RHF Final Energy:   -78.06477946616920
    Total Energy =                        -78.0647794661691989
  @DF-RHF Final Energy:   -78.06943846774473
    Total Energy =                        -78.0694384677447317
  @DF-RHF Final Energy:   -78.06470652710803
    Total Energy =                        -78.0647065271080294
  @DF-RHF Final Energy:   -78.06941922842768
    Total Energy =                        -78.0694192284276767
  Multiplicity = 1
  @DF-RHF Final Energy:  -134.28468386628944
    Total Energy =                       -134.2846838662894413
	 Singles Energy            =      -0.0000000000000000 [Eh]
	 Same-Spin Energy          =      -0.1340604324115759 [Eh]
	 Opposite-Spin Energy      =      -0.5020283428559330 [Eh]
	 Correlation Energy        =      -0.6360887752675088 [Eh]
	 Total Energy              =    -134.9207726415569368 [Eh]
	 SCS Total Energy          =    -134.9318046885204296 [Eh]
    Molecular point group: c1

    Geometry (in Angstrom), charge = 0, multiplicity = 1:

       Center              X                  Y                   Z               Mass
    ------------   -----------------  -----------------  -----------------  -----------------
         C           -1.559078665104    -0.608514000463     0.000311958279    12.000000000000
         C           -1.177341665104     0.668565999537    -0.000156041721    12.000000000000
         H           -1.722772665104    -1.146595000463    -0.922371041721     1.007825032230
         H           -1.721705665104    -1.146237000463     0.923392958279     1.007825032230
         H           -1.014666665104     1.207949999537     0.921791958279     1.007825032230
         H           -1.015721665104     1.207461999537    -0.922574041721     1.007825032230
         N            2.265674034896     0.018808899537    -0.000354041721    14.003074004430
         H            2.649047034896    -0.451381100463     0.809103958279     1.007825032230
         H            1.275014034896    -0.190157100463    -0.001796041721     1.007825032230
         H            2.652825034896    -0.457408100463    -0.804485041721     1.007825032230

  Charge       = 0
  Multiplicity = 1
  Basis Set: AUG-CC-PVQZ
    Blend: AUG-CC-PVQZ
  Basis Set: (AUG-CC-PVQZ AUX)
    Blend: AUG-CC-PVQZ-JKFIT

    Orbital Energies [Eh]
    ---------------------

    Doubly Occupied:

       1A    -15.530445     2A    -11.234881     3A    -11.233158
       4A     -1.134905     5A     -1.040192     6A     -0.798467
       7A     -0.650014     8A     -0.620106     9A     -0.619119
      10A     -0.592639    11A     -0.513412    12A     -0.423702
      13A     -0.383023

  @DF-RHF Final Energy:  -134.29297591556409

   => Energetics <=

    Nuclear Repulsion Energy =             68.2877048110987630
    One-Electron Energy =                -315.6132380732291836
    Two-Electron Energy =                 113.0325573465663496
    Total Energy =                       -134.2929759155640568

  Dipole Moment: [D]
     X:    -0.5157      Y:    -1.5139      Z:     0.0052     Total:     1.5993

  Basis Set: (AUG-CC-PVQZ AUX)
    Blend: AUG-CC-PVQZ-RI
	 Reference Energy          =    -134.2929759155640852 [Eh]
	 Singles Energy            =      -0.0000000000000000 [Eh]
	 Same-Spin Energy          =      -0.1421741921595469 [Eh]
	 Opposite-Spin Energy      =      -0.5603609028500309 [Eh]
	 Correlation Energy        =      -0.7025350950095778 [Eh]
	 Total Energy              =    -134.9955110105736651 [Eh]

	 ================> DF-SCS-MP2 Energies <==================
	-----------------------------------------------------------
	 SCS Same-Spin Scale       =       0.3333333333333333 [-]
	 SCS Opposite-Spin Scale   =       1.2000000000000000 [-]
	 SCS Same-Spin Energy      =      -0.0473913973865156 [Eh]
	 SCS Opposite-Spin Energy  =      -0.6724330834200370 [Eh]
	 SCS Correlation Energy    =      -0.7198244808065527 [Eh]
	 SCS Total Energy          =    -135.0128003963706362 [Eh]
	-----------------------------------------------------------

*** Psi4 exiting successfully. Buy a developer a beer!
