                               Psi4 1.4a2.dev224

  ==> Input File <==

--------------------------------------------------------------------------
#Generated by lconvert.py for cbs job

memory 40 GB

molecule  {
0 1
  C       -1.6354650    -0.5897110     0.0002600
  C       -1.2537280     0.6873690    -0.0002080
  H       -1.7991590    -1.1277920    -0.9224230
  H       -1.7980920    -1.1274340     0.9233410
  H       -1.0910530     1.2267530     0.9217400
  H       -1.0921080     1.2262650    -0.9226260
--
0 1
  N        2.6199560     0.0362720    -0.0004568
  H        3.0033290    -0.4339180     0.8090012
  H        1.6292960    -0.1726940    -0.0018988
  H        3.0071070    -0.4399450    -0.8045878
units angstrom
no_reorient
symmetry c1
}

set {
scf_type DF
mp2_type DF
e_convergence 7
reference rhf
}

energy('mp2/aug-cc-pv[tq]z', bsse_type='cp')
--------------------------------------------------------------------------

    Molecular point group: c1
  Charge       = 0
  Multiplicity = 1
  Basis Set: AUG-CC-PVTZ
    Blend: AUG-CC-PVTZ
  Basis Set: (AUG-CC-PVTZ AUX)
    Blend: AUG-CC-PVTZ-JKFIT
  @DF-RHF Final Energy:   -56.22022295528549
    Total Energy =                        -56.2202229552854931
  Basis Set: (AUG-CC-PVTZ AUX)
    Blend: AUG-CC-PVTZ-RI
	 Reference Energy          =     -56.2202229552854931 [Eh]
	 Singles Energy            =      -0.0000000000000000 [Eh]
	 Same-Spin Energy          =      -0.0560761858850190 [Eh]
	 Opposite-Spin Energy      =      -0.2010803755944091 [Eh]
	 Correlation Energy        =      -0.2571565614794282 [Eh]
	 Total Energy              =     -56.4773795167649197 [Eh]
	 SCS Total Energy          =     -56.4802114679604585 [Eh]
    Molecular point group: c1
  Basis Set: AUG-CC-PVQZ
    Blend: AUG-CC-PVQZ
  Basis Set: (AUG-CC-PVQZ AUX)
    Blend: AUG-CC-PVQZ-JKFIT
  @DF-RHF Final Energy:   -56.22387392939999
    Total Energy =                        -56.2238739293999856
  Basis Set: (AUG-CC-PVQZ AUX)
  @DF-RHF Final Energy:   -56.22024048106101
    Total Energy =                        -56.2202404810610119
  @DF-RHF Final Energy:   -56.22387911431652
    Total Energy =                        -56.2238791143165244
  @DF-RHF Final Energy:   -78.06475014820467
    Total Energy =                        -78.0647501482046664
  @DF-RHF Final Energy:   -78.06943369931523
    Total Energy =                        -78.0694336993152262
  @DF-RHF Final Energy:   -78.06470652705302
    Total Energy =                        -78.0647065270530049
  @DF-RHF Final Energy:   -78.06941922815582
    Total Energy =                        -78.0694192281558230
  Multiplicity = 1
  @DF-RHF Final Energy:  -134.28568919283882
    Total Energy =                       -134.2856891928388450
	 Singles Energy            =      -0.0000000000000000 [Eh]
	 Same-Spin Energy          =      -0.1333548755402407 [Eh]
	 Opposite-Spin Energy      =      -0.5008160413308916 [Eh]
	 Correlation Energy        =      -0.6341709168711324 [Eh]
	 Total Energy              =    -134.9198601097099584 [Eh]
	 SCS Total Energy          =    -134.9311200676159785 [Eh]
    Molecular point group: c1

    Geometry (in Angstrom), charge = 0, multiplicity = 1:

       Center              X                  Y                   Z               Mass
    ------------   -----------------  -----------------  -----------------  -----------------
         C           -1.721820453307    -0.608007676404     0.000331154683    12.000000000000
         C           -1.340083453307     0.669072323596    -0.000136845317    12.000000000000
         H           -1.885514453307    -1.146088676404    -0.922351845317     1.007825032230
         H           -1.884447453307    -1.145730676404     0.923412154683     1.007825032230
         H           -1.177408453307     1.208456323596     0.921811154683     1.007825032230
         H           -1.178463453307     1.207968323596    -0.922554845317     1.007825032230
         N            2.533600546693     0.017975323596    -0.000385645317    14.003074004430
         H            2.916973546693    -0.452214676404     0.809072354683     1.007825032230
         H            1.542940546693    -0.190990676404    -0.001827645317     1.007825032230
         H            2.920751546693    -0.458241676404    -0.804516645317     1.007825032230

  Charge       = 0
  Multiplicity = 1
  Basis Set: AUG-CC-PVQZ
    Blend: AUG-CC-PVQZ
  Basis Set: (AUG-CC-PVQZ AUX)
    Blend: AUG-CC-PVQZ-JKFIT

    Orbital Energies [Eh]
    ---------------------

    Doubly Occupied:

       1A    -15.533847     2A    -11.234222     3A    -11.232491
       4A     -1.137414     5A     -1.038845     6A     -0.797520
       7A     -0.648983     8A     -0.621671     9A     -0.621648
      10A     -0.591857    11A     -0.512583    12A     -0.426085
      13A     -0.382189

  @DF-RHF Final Energy:  -134.29401381567698

   => Energetics <=

    Nuclear Repulsion Energy =             65.9387866430040361
    One-Electron Energy =                -310.9068905910587546
    Two-Electron Energy =                 110.6740901323777280
    Total Energy =                       -134.2940138156769763

  Dipole Moment: [D]
     X:    -0.4627      Y:    -1.5437      Z:     0.0052     Total:     1.6116

  Basis Set: (AUG-CC-PVQZ AUX)
    Blend: AUG-CC-PVQZ-RI
	 Reference Energy          =    -134.2940138156769763 [Eh]
	 Singles Energy            =      -0.0000000000000000 [Eh]
	 Same-Spin Energy          =      -0.1414783323366473 [Eh]
	 Opposite-Spin Energy      =      -0.5594856547383867 [Eh]
	 Correlation Energy        =      -0.7009639870750340 [Eh]
	 Total Energy              =    -134.9949778027520040 [Eh]

	 ================> DF-SCS-MP2 Energies <==================
	-----------------------------------------------------------
	 SCS Same-Spin Scale       =       0.3333333333333333 [-]
	 SCS Opposite-Spin Scale   =       1.2000000000000000 [-]
	 SCS Same-Spin Energy      =      -0.0471594441122158 [Eh]
	 SCS Opposite-Spin Energy  =      -0.6713827856860640 [Eh]
	 SCS Correlation Energy    =      -0.7185422297982798 [Eh]
	 SCS Total Energy          =    -135.0125560454752645 [Eh]
	-----------------------------------------------------------

*** Psi4 exiting successfully. Buy a developer a beer!
