                               Psi4 1.4a2.dev224

  ==> Input File <==

--------------------------------------------------------------------------
#Generated by lconvert.py for cbs job

memory 40 GB

molecule  {
0 1
  C       -1.6354650    -0.5897110     0.0002600
  C       -1.2537280     0.6873690    -0.0002080
  H       -1.7991590    -1.1277920    -0.9224230
  H       -1.7980920    -1.1274340     0.9233410
  H       -1.0910530     1.2267530     0.9217400
  H       -1.0921080     1.2262650    -0.9226260
--
0 1
  N        2.0440434     0.0380638    -0.0003888
  H        2.4274164    -0.4321262     0.8090692
  H        1.0533834    -0.1709022    -0.0018308
  H        2.4311944    -0.4381532    -0.8045198
units angstrom
no_reorient
symmetry c1
}

set {
scf_type DF
mp2_type DF
e_convergence 7
reference rhf
}

energy('mp2/aug-cc-pv[tq]z', bsse_type='cp')
--------------------------------------------------------------------------

    Molecular point group: c1
  Charge       = 0
  Multiplicity = 1
  Basis Set: AUG-CC-PVTZ
    Blend: AUG-CC-PVTZ
  Basis Set: (AUG-CC-PVTZ AUX)
    Blend: AUG-CC-PVTZ-JKFIT
  @DF-RHF Final Energy:   -56.22022295529073
    Total Energy =                        -56.2202229552907298
  Basis Set: (AUG-CC-PVTZ AUX)
    Blend: AUG-CC-PVTZ-RI
	 Reference Energy          =     -56.2202229552907298 [Eh]
	 Singles Energy            =      -0.0000000000000000 [Eh]
	 Same-Spin Energy          =      -0.0560761858849855 [Eh]
	 Opposite-Spin Energy      =      -0.2010803755943569 [Eh]
	 Correlation Energy        =      -0.2571565614793424 [Eh]
	 Total Energy              =     -56.4773795167700712 [Eh]
	 SCS Total Energy          =     -56.4802114679656171 [Eh]
    Molecular point group: c1
  Basis Set: AUG-CC-PVQZ
    Blend: AUG-CC-PVQZ
  Basis Set: (AUG-CC-PVQZ AUX)
    Blend: AUG-CC-PVQZ-JKFIT
  @DF-RHF Final Energy:   -56.22387392940503
    Total Energy =                        -56.2238739294050305
  Basis Set: (AUG-CC-PVQZ AUX)
  @DF-RHF Final Energy:   -56.22025594113611
    Total Energy =                        -56.2202559411361094
  @DF-RHF Final Energy:   -56.22388239986245
    Total Energy =                        -56.2238823998624540
  @DF-RHF Final Energy:   -78.06479039028049
    Total Energy =                        -78.0647903902804927
  @DF-RHF Final Energy:   -78.06944085104945
    Total Energy =                        -78.0694408510494497
  @DF-RHF Final Energy:   -78.06470652707898
    Total Energy =                        -78.0647065270789824
  @DF-RHF Final Energy:   -78.06941922827878
    Total Energy =                        -78.0694192282787753
  Multiplicity = 1
  @DF-RHF Final Energy:  -134.28368851679164
    Total Energy =                       -134.2836885167916421
	 Singles Energy            =      -0.0000000000000000 [Eh]
	 Same-Spin Energy          =      -0.1344376398209391 [Eh]
	 Opposite-Spin Energy      =      -0.5026254840158417 [Eh]
	 Correlation Energy        =      -0.6370631238367808 [Eh]
	 Total Energy              =    -134.9207516406284242 [Eh]
	 SCS Total Energy          =    -134.9316516442176237 [Eh]
    Molecular point group: c1

    Geometry (in Angstrom), charge = 0, multiplicity = 1:

       Center              X                  Y                   Z               Mass
    ------------   -----------------  -----------------  -----------------  -----------------
         C           -1.504193462018    -0.608684765328     0.000305458709    12.000000000000
         C           -1.122456462018     0.668395234672    -0.000162541291    12.000000000000
         H           -1.667887462018    -1.146765765328    -0.922377541291     1.007825032230
         H           -1.666820462018    -1.146407765328     0.923386458709     1.007825032230
         H           -0.959781462018     1.207779234672     0.921785458709     1.007825032230
         H           -0.960836462018     1.207291234672    -0.922580541291     1.007825032230
         N            2.175314937982     0.019090034672    -0.000343341291    14.003074004430
         H            2.558687937982    -0.451099965328     0.809114658709     1.007825032230
         H            1.184654937982    -0.189875965328    -0.001785341291     1.007825032230
         H            2.562465937982    -0.457126965328    -0.804474341291     1.007825032230

  Charge       = 0
  Multiplicity = 1
  Basis Set: AUG-CC-PVQZ
    Blend: AUG-CC-PVQZ
  Basis Set: (AUG-CC-PVQZ AUX)
    Blend: AUG-CC-PVQZ-JKFIT

    Orbital Energies [Eh]
    ---------------------

    Doubly Occupied:

       1A    -15.528784     2A    -11.235076     3A    -11.233326
       4A     -1.133876     5A     -1.040798     6A     -0.798871
       7A     -0.650452     8A     -0.619779     9A     -0.617964
      10A     -0.592950    11A     -0.513737    12A     -0.422675
      13A     -0.383012

  @DF-RHF Final Energy:  -134.29196750489254

   => Energetics <=

    Nuclear Repulsion Energy =             69.2029474059116438
    One-Electron Energy =                -317.4472286350925287
    Two-Electron Energy =                 113.9523137242883593
    Total Energy =                       -134.2919675048925399

  Dipole Moment: [D]
     X:    -0.5363      Y:    -1.4993      Z:     0.0051     Total:     1.5924

  Basis Set: (AUG-CC-PVQZ AUX)
    Blend: AUG-CC-PVQZ-RI
	 Reference Energy          =    -134.2919675048925399 [Eh]
	 Singles Energy            =      -0.0000000000000000 [Eh]
	 Same-Spin Energy          =      -0.1425519305988703 [Eh]
	 Opposite-Spin Energy      =      -0.5608526848480002 [Eh]
	 Correlation Energy        =      -0.7034046154468705 [Eh]
	 Total Energy              =    -134.9953721203393968 [Eh]

	 ================> DF-SCS-MP2 Energies <==================
	-----------------------------------------------------------
	 SCS Same-Spin Scale       =       0.3333333333333333 [-]
	 SCS Opposite-Spin Scale   =       1.2000000000000000 [-]
	 SCS Same-Spin Energy      =      -0.0475173101996234 [Eh]
	 SCS Opposite-Spin Energy  =      -0.6730232218176002 [Eh]
	 SCS Correlation Energy    =      -0.7205405320172237 [Eh]
	 SCS Total Energy          =    -135.0125080369097645 [Eh]
	-----------------------------------------------------------

*** Psi4 exiting successfully. Buy a developer a beer!
