                               Psi4 1.4a2.dev224

  ==> Input File <==

--------------------------------------------------------------------------
#Generated by lconvert.py for cbs job

memory 40 GB

molecule  {
0 1
  C       -1.6354650    -0.5897110     0.0002600
  C       -1.2537280     0.6873690    -0.0002080
  H       -1.7991590    -1.1277920    -0.9224230
  H       -1.7980920    -1.1274340     0.9233410
  H       -1.0910530     1.2267530     0.9217400
  H       -1.0921080     1.2262650    -0.9226260
--
0 1
  N        2.3335710     0.0371630    -0.0004230
  H        2.7169440    -0.4330270     0.8090350
  H        1.3429110    -0.1718030    -0.0018650
  H        2.7207220    -0.4390540    -0.8045540
units angstrom
no_reorient
symmetry c1
}

set {
scf_type DF
mp2_type DF
e_convergence 7
reference rhf
}

energy('mp2/aug-cc-pv[tq]z', bsse_type='cp')
--------------------------------------------------------------------------

    Molecular point group: c1
  Charge       = 0
  Multiplicity = 1
  Basis Set: AUG-CC-PVTZ
    Blend: AUG-CC-PVTZ
  Basis Set: (AUG-CC-PVTZ AUX)
    Blend: AUG-CC-PVTZ-JKFIT
  @DF-RHF Final Energy:   -56.22022295529599
    Total Energy =                        -56.2202229552959949
  Basis Set: (AUG-CC-PVTZ AUX)
    Blend: AUG-CC-PVTZ-RI
	 Reference Energy          =     -56.2202229552959949 [Eh]
	 Singles Energy            =      -0.0000000000000000 [Eh]
	 Same-Spin Energy          =      -0.0560761858849697 [Eh]
	 Opposite-Spin Energy      =      -0.2010803755942981 [Eh]
	 Correlation Energy        =      -0.2571565614792679 [Eh]
	 Total Energy              =     -56.4773795167752652 [Eh]
	 SCS Total Energy          =     -56.4802114679708112 [Eh]
    Molecular point group: c1
  Basis Set: AUG-CC-PVQZ
    Blend: AUG-CC-PVQZ
  Basis Set: (AUG-CC-PVQZ AUX)
    Blend: AUG-CC-PVQZ-JKFIT
  @DF-RHF Final Energy:   -56.22387392940436
    Total Energy =                        -56.2238739294043555
  Basis Set: (AUG-CC-PVQZ AUX)
  @DF-RHF Final Energy:   -56.22024674270600
    Total Energy =                        -56.2202467427059958
  @DF-RHF Final Energy:   -56.22388047643254
    Total Energy =                        -56.2238804764325408
  @DF-RHF Final Energy:   -78.06476741423796
    Total Energy =                        -78.0647674142379628
  @DF-RHF Final Energy:   -78.06943653633253
    Total Energy =                        -78.0694365363325318
  @DF-RHF Final Energy:   -78.06470652714818
    Total Energy =                        -78.0647065271481893
  @DF-RHF Final Energy:   -78.06941922823198
    Total Energy =                        -78.0694192282319648
  Multiplicity = 1
  @DF-RHF Final Energy:  -134.28524878480087
    Total Energy =                       -134.2852487848008707
	 Singles Energy            =      -0.0000000000000000 [Eh]
	 Same-Spin Energy          =      -0.1337663139847095 [Eh]
	 Opposite-Spin Energy      =      -0.5015343598038358 [Eh]
	 Correlation Energy        =      -0.6353006737885453 [Eh]
	 Total Energy              =    -134.9205494585894201 [Eh]
	 SCS Total Energy          =    -134.9316787878937021 [Eh]
    Molecular point group: c1

    Geometry (in Angstrom), charge = 0, multiplicity = 1:

       Center              X                  Y                   Z               Mass
    ------------   -----------------  -----------------  -----------------  -----------------
         C           -1.613600723611    -0.608344369244     0.000318382272    12.000000000000
         C           -1.231863723611     0.668735630756    -0.000149617728    12.000000000000
         H           -1.777294723611    -1.146425369244    -0.922364617728     1.007825032230
         H           -1.776227723611    -1.146067369244     0.923399382272     1.007825032230
         H           -1.069188723611     1.208119630756     0.921798382272     1.007825032230
         H           -1.070243723611     1.207631630756    -0.922567617728     1.007825032230
         N            2.355435276389     0.018529630756    -0.000364617728    14.003074004430
         H            2.738808276389    -0.451660369244     0.809093382272     1.007825032230
         H            1.364775276389    -0.190436369244    -0.001806617728     1.007825032230
         H            2.742586276389    -0.457687369244    -0.804495617728     1.007825032230

  Charge       = 0
  Multiplicity = 1
  Basis Set: AUG-CC-PVQZ
    Blend: AUG-CC-PVQZ
  Basis Set: (AUG-CC-PVQZ AUX)
    Blend: AUG-CC-PVQZ-JKFIT

    Orbital Energies [Eh]
    ---------------------

    Doubly Occupied:

       1A    -15.531801     2A    -11.234675     3A    -11.232952
       4A     -1.135840     5A     -1.039680     6A     -0.798116
       7A     -0.649633     8A     -0.620572     9A     -0.620101
      10A     -0.592361    11A     -0.513115    12A     -0.424604
      13A     -0.382832

  @DF-RHF Final Energy:  -134.29355449502489

   => Energetics <=

    Nuclear Repulsion Energy =             67.4442880739727428
    One-Electron Energy =                -313.9231161357906217
    Two-Electron Energy =                 112.1852735667929579
    Total Energy =                       -134.2935544950249209

  Dipole Moment: [D]
     X:    -0.4966      Y:    -1.5256      Z:     0.0052     Total:     1.6045

  Basis Set: (AUG-CC-PVQZ AUX)
    Blend: AUG-CC-PVQZ-RI
	 Reference Energy          =    -134.2935544950248925 [Eh]
	 Singles Energy            =      -0.0000000000000000 [Eh]
	 Same-Spin Energy          =      -0.1418819298199439 [Eh]
	 Opposite-Spin Energy      =      -0.5599873034027241 [Eh]
	 Correlation Energy        =      -0.7018692332226680 [Eh]
	 Total Energy              =    -134.9954237282475731 [Eh]

	 ================> DF-SCS-MP2 Energies <==================
	-----------------------------------------------------------
	 SCS Same-Spin Scale       =       0.3333333333333333 [-]
	 SCS Opposite-Spin Scale   =       1.2000000000000000 [-]
	 SCS Same-Spin Energy      =      -0.0472939766066480 [Eh]
	 SCS Opposite-Spin Energy  =      -0.6719847640832689 [Eh]
	 SCS Correlation Energy    =      -0.7192787406899169 [Eh]
	 SCS Total Energy          =    -135.0128332357148224 [Eh]
	-----------------------------------------------------------

*** Psi4 exiting successfully. Buy a developer a beer!
