                               Psi4 1.4a2.dev224

  ==> Input File <==

--------------------------------------------------------------------------
#Generated by lconvert.py for cbs job

memory 20 GB

molecule  {
0 1
  C      -1.635460   -0.589710    0.000260
  C      -1.253730    0.687370   -0.000210
  H      -1.799160   -1.127790   -0.922420
  H      -1.798090   -1.127430    0.923340
  H      -1.091050    1.226750    0.921740
  H      -1.092110    1.226260   -0.922630
--
0 1
  N       3.221520    0.034400   -0.000530
  H       3.604890   -0.435790    0.808930
  H       2.230860   -0.174570   -0.001970
  H       3.608670   -0.441820   -0.804660
units angstrom
no_reorient
symmetry c1
}

set {
scf_type DF
mp2_type DF
e_convergence 7
reference rhf
}

energy('mp2/aug-cc-pv[tq]z', bsse_type='cp')
--------------------------------------------------------------------------

    Molecular point group: c1
  Charge       = 0
  Multiplicity = 1
  Basis Set: AUG-CC-PVTZ
    Blend: AUG-CC-PVTZ
  Basis Set: (AUG-CC-PVTZ AUX)
    Blend: AUG-CC-PVTZ-JKFIT
  @DF-RHF Final Energy:   -56.22022289875777
    Total Energy =                        -56.2202228987577683
  Basis Set: (AUG-CC-PVTZ AUX)
    Blend: AUG-CC-PVTZ-RI
	 Reference Energy          =     -56.2202228987577683 [Eh]
	 Singles Energy            =      -0.0000000000000000 [Eh]
	 Same-Spin Energy          =      -0.0560761933019174 [Eh]
	 Opposite-Spin Energy      =      -0.2010804078647368 [Eh]
	 Correlation Energy        =      -0.2571566011666541 [Eh]
	 Total Energy              =     -56.4773794999244245 [Eh]
	 SCS Total Energy          =     -56.4802114526294261 [Eh]
    Molecular point group: c1
  Basis Set: AUG-CC-PVQZ
    Blend: AUG-CC-PVQZ
  Basis Set: (AUG-CC-PVQZ AUX)
    Blend: AUG-CC-PVQZ-JKFIT
  @DF-RHF Final Energy:   -56.22387387106135
    Total Energy =                        -56.2238738710613433
  Basis Set: (AUG-CC-PVQZ AUX)
  @DF-RHF Final Energy:   -56.22023342493090
    Total Energy =                        -56.2202334249308961
  @DF-RHF Final Energy:   -56.22387699706370
    Total Energy =                        -56.2238769970636980
  @DF-RHF Final Energy:   -78.06473647842373
    Total Energy =                        -78.0647364784237254
  @DF-RHF Final Energy:   -78.06942842555691
    Total Energy =                        -78.0694284255569073
  @DF-RHF Final Energy:   -78.06470665036284
    Total Energy =                        -78.0647066503628366
  @DF-RHF Final Energy:   -78.06941935830071
    Total Energy =                        -78.0694193583007063
  Multiplicity = 1
  @DF-RHF Final Energy:  -134.28561866727537
    Total Energy =                       -134.2856186672753722
	 Singles Energy            =      -0.0000000000000000 [Eh]
	 Same-Spin Energy          =      -0.1329275198043405 [Eh]
	 Opposite-Spin Energy      =      -0.5001339567844146 [Eh]
	 Correlation Energy        =      -0.6330614765887551 [Eh]
	 Total Energy              =    -134.9186801438641226 [Eh]
	 SCS Total Energy          =    -134.9300885886847823 [Eh]
    Molecular point group: c1

    Geometry (in Angstrom), charge = 0, multiplicity = 1:

       Center              X                  Y                   Z               Mass
    ------------   -----------------  -----------------  -----------------  -----------------
         C           -1.949136400552    -0.607299612687     0.000359281190    12.000000000000
         C           -1.567406400552     0.669780387313    -0.000110718810    12.000000000000
         H           -2.112836400552    -1.145379612687    -0.922320718810     1.007825032230
         H           -2.111766400552    -1.145019612687     0.923439281190     1.007825032230
         H           -1.404726400552     1.209160387313     0.921839281190     1.007825032230
         H           -1.405786400552     1.208670387313    -0.922530718810     1.007825032230
         N            2.907843599448     0.016810387313    -0.000430718810    14.003074004430
         H            3.291213599448    -0.453379612687     0.809029281190     1.007825032230
         H            1.917183599448    -0.192159612687    -0.001870718810     1.007825032230
         H            3.294993599448    -0.459409612687    -0.804560718810     1.007825032230

  Charge       = 0
  Multiplicity = 1
  Basis Set: AUG-CC-PVQZ
    Blend: AUG-CC-PVQZ
  Basis Set: (AUG-CC-PVQZ AUX)
    Blend: AUG-CC-PVQZ-JKFIT

    Orbital Energies [Eh]
    ---------------------

    Doubly Occupied:

       1A    -15.536432     2A    -11.233269     3A    -11.231540
       4A     -1.139669     5A     -1.037573     6A     -0.796542
       7A     -0.647920     8A     -0.623792     9A     -0.623709
      10A     -0.590933    11A     -0.511663    12A     -0.428178
      13A     -0.380781

  @DF-RHF Final Energy:  -134.29395221521168

   => Energetics <=

    Nuclear Repulsion Energy =             63.3541681744538394
    One-Electron Energy =                -305.7322390057323673
    Two-Electron Energy =                 108.0841186160668457
    Total Energy =                       -134.2939522152116751

  Dipole Moment: [D]
     X:    -0.4083      Y:    -1.5684      Z:     0.0053     Total:     1.6207

  Basis Set: (AUG-CC-PVQZ AUX)
    Blend: AUG-CC-PVQZ-RI
	 Reference Energy          =    -134.2939522152116751 [Eh]
	 Singles Energy            =      -0.0000000000000000 [Eh]
	 Same-Spin Energy          =      -0.1410647393008833 [Eh]
	 Opposite-Spin Energy      =      -0.5589901519114591 [Eh]
	 Correlation Energy        =      -0.7000548912123423 [Eh]
	 Total Energy              =    -134.9940071064240215 [Eh]

	 ================> DF-SCS-MP2 Energies <==================
	-----------------------------------------------------------
	 SCS Same-Spin Scale       =       0.3333333333333333 [-]
	 SCS Opposite-Spin Scale   =       1.2000000000000000 [-]
	 SCS Same-Spin Energy      =      -0.0470215797669611 [Eh]
	 SCS Opposite-Spin Energy  =      -0.6707881822937508 [Eh]
	 SCS Correlation Energy    =      -0.7178097620607119 [Eh]
	 SCS Total Energy          =    -135.0117619772723856 [Eh]
	-----------------------------------------------------------

*** Psi4 exiting successfully. Buy a developer a beer!
