                               Psi4 1.4a2.dev224

  ==> Input File <==

--------------------------------------------------------------------------
#Generated by lconvert.py for cbs job

memory 40 GB

molecule  {
0 1
  C       -1.2592080     0.6613710    -0.0012880
  C       -1.8138340    -0.5508520     0.0004330
  H       -1.8733130     1.5512530    -0.0025230
  H       -0.1848620     0.7870610    -0.0020300
  H       -1.2047970    -1.4442860     0.0031610
  H       -2.8862820    -0.6856040     0.0009570
--
0 1
  N        1.5142796     0.0014662    -0.0022586
  H        2.4050906     0.4807242    -0.0319696
  H        1.5361316    -0.5646648     0.8363274
  H        1.5220536    -0.6488278    -0.7777346
units angstrom
no_reorient
symmetry c1
}

set {
scf_type DF
mp2_type DF
e_convergence 7
reference rhf
}

energy('mp2/aug-cc-pv[tq]z', bsse_type='cp')
--------------------------------------------------------------------------

    Molecular point group: c1
  Charge       = 0
  Multiplicity = 1
  Basis Set: AUG-CC-PVTZ
    Blend: AUG-CC-PVTZ
  Basis Set: (AUG-CC-PVTZ AUX)
    Blend: AUG-CC-PVTZ-JKFIT
  @DF-RHF Final Energy:   -56.22019909075089
    Total Energy =                        -56.2201990907508886
  Basis Set: (AUG-CC-PVTZ AUX)
    Blend: AUG-CC-PVTZ-RI
	 Reference Energy          =     -56.2201990907508886 [Eh]
	 Singles Energy            =      -0.0000000000000000 [Eh]
	 Same-Spin Energy          =      -0.0560791380242078 [Eh]
	 Opposite-Spin Energy      =      -0.2010925395007744 [Eh]
	 Correlation Energy        =      -0.2571716775249822 [Eh]
	 Total Energy              =     -56.4773707682758683 [Eh]
	 SCS Total Energy          =     -56.4802031841598904 [Eh]
    Molecular point group: c1
  Basis Set: AUG-CC-PVQZ
    Blend: AUG-CC-PVQZ
  Basis Set: (AUG-CC-PVQZ AUX)
    Blend: AUG-CC-PVQZ-JKFIT
  @DF-RHF Final Energy:   -56.22384949819742
    Total Energy =                        -56.2238494981974100
  Basis Set: (AUG-CC-PVQZ AUX)
  @DF-RHF Final Energy:   -56.22026273646689
    Total Energy =                        -56.2202627364668857
  @DF-RHF Final Energy:   -56.22387359018210
    Total Energy =                        -56.2238735901821016
  @DF-RHF Final Energy:   -78.06467884918777
    Total Energy =                        -78.0646788491877714
  @DF-RHF Final Energy:   -78.06936464387205
    Total Energy =                        -78.0693646438720492
  @DF-RHF Final Energy:   -78.06464256459442
    Total Energy =                        -78.0646425645944220
  @DF-RHF Final Energy:   -78.06935312185738
    Total Energy =                        -78.0693531218573753
  @DF-RHF Final Energy:  -134.27153864818783
    Total Energy =                       -134.2715386481878568
  @DF-RHF Final Energy:  -134.27984941895360
    Total Energy =                       -134.2798494189536029
*** Psi4 exiting successfully. Buy a developer a beer!
                               Psi4 1.4a2.dev224
  @DF-RHF Final Energy:   -56.22019909076508
    Total Energy =                        -56.2201990907650782
  @DF-RHF Final Energy:   -56.22384949818702
    Total Energy =                        -56.2238494981870218
  @DF-RHF Final Energy:   -56.22024357791750
    Total Energy =                        -56.2202435779175005
  @DF-RHF Final Energy:   -56.22386838533150
    Total Energy =                        -56.2238683853314996
  @DF-RHF Final Energy:   -78.06467044610210
    Total Energy =                        -78.0646704461020988
  @DF-RHF Final Energy:   -78.06936187094701
    Total Energy =                        -78.0693618709470059
  @DF-RHF Final Energy:   -78.06464256462081
    Total Energy =                        -78.0646425646208115
  @DF-RHF Final Energy:   -78.06935312194180
    Total Energy =                        -78.0693531219418020
  @DF-RHF Final Energy:  -134.28083596176026
    Total Energy =                       -134.2808359617602605
  @DF-RHF Final Energy:  -134.28916678397604
    Total Energy =                       -134.2891667839760430
*** Psi4 exiting successfully. Buy a developer a beer!
                               Psi4 1.4a2.dev224
                               Psi4 1.4a2.dev224
                               Psi4 1.4a2.dev224
                               Psi4 1.4a2.dev224
                               Psi4 1.4a2.dev224
                               Psi4 1.4a2.dev224
                               Psi4 1.4a2.dev224
  @DF-RHF Final Energy:   -56.22019913521268
    Total Energy =                        -56.2201991352126811
  @DF-RHF Final Energy:   -56.22384954674915
    Total Energy =                        -56.2238495467491504
  @DF-RHF Final Energy:   -56.22020718376439
    Total Energy =                        -56.2202071837643871
  @DF-RHF Final Energy:   -56.22385268551784
    Total Energy =                        -56.2238526855178407
  @DF-RHF Final Energy:   -78.06464886117247
    Total Energy =                        -78.0646488611724720
  @DF-RHF Final Energy:   -78.06935442275787
    Total Energy =                        -78.0693544227578684
  @DF-RHF Final Energy:   -78.06464279472982
    Total Energy =                        -78.0646427947298207
  @DF-RHF Final Energy:   -78.06935336053353
    Total Energy =                        -78.0693533605335261
  @DF-RHF Final Energy:  -134.28518943575358
    Total Energy =                       -134.2851894357535798
  @DF-RHF Final Energy:  -134.29353957338245
    Total Energy =                       -134.2935395733824464
*** Psi4 exiting successfully. Buy a developer a beer!
                               Psi4 1.4a2.dev224
  @DF-RHF Final Energy:   -56.22019920961153
    Total Energy =                        -56.2201992096115291
  @DF-RHF Final Energy:   -56.22384962235763
    Total Energy =                        -56.2238496223576263
  @DF-RHF Final Energy:   -56.22020239052409
    Total Energy =                        -56.2202023905240935
  @DF-RHF Final Energy:   -56.22385132495931
    Total Energy =                        -56.2238513249593126
  @DF-RHF Final Energy:   -78.06464598306908
    Total Energy =                        -78.0646459830690844
  @DF-RHF Final Energy:   -78.06935380674672
    Total Energy =                        -78.0693538067467330
  @DF-RHF Final Energy:   -78.06464279472073
    Total Energy =                        -78.0646427947207258
  @DF-RHF Final Energy:   -78.06935336054177
    Total Energy =                        -78.0693533605417684
  Multiplicity = 1
  @DF-RHF Final Energy:  -134.28501679658677
    Total Energy =                       -134.2850167965867740
	 Singles Energy            =      -0.0000000000000000 [Eh]
	 Same-Spin Energy          =      -0.1326781907706737 [Eh]
	 Opposite-Spin Energy      =      -0.4997770109291906 [Eh]
	 Correlation Energy        =      -0.6324552016998642 [Eh]
	 Total Energy              =    -134.9174719982866293 [Eh]
	 SCS Total Energy          =    -134.9289752732920249 [Eh]
    Molecular point group: c1

    Geometry (in Angstrom), charge = 0, multiplicity = 1:

       Center              X                  Y                   Z               Mass
    ------------   -----------------  -----------------  -----------------  -----------------
         C           -2.196015915814     0.665936469823    -0.000143513508    12.000000000000
         C           -2.750635915814    -0.546283530177     0.001576486492    12.000000000000
         H           -2.810115915814     1.555816469823    -0.001373513508     1.007825032230
         H           -1.121665915814     0.791626469823    -0.000883513508     1.007825032230
         H           -2.141605915814    -1.439723530177     0.004306486492     1.007825032230
         H           -3.823085915814    -0.681033530177     0.002106486492     1.007825032230
         N            4.017614084186    -0.054113530177    -0.003233513508    14.003074004430
         H            4.908424084186     0.425146469823    -0.032943513508     1.007825032230
         H            4.039464084186    -0.620243530177     0.835356486492     1.007825032230
         H            4.025384084186    -0.704403530177    -0.778703513508     1.007825032230

  Charge       = 0
  Multiplicity = 1
  Basis Set: AUG-CC-PVQZ
    Blend: AUG-CC-PVQZ
  Basis Set: (AUG-CC-PVQZ AUX)
    Blend: AUG-CC-PVQZ-JKFIT

    Orbital Energies [Eh]
    ---------------------

    Doubly Occupied:

       1A    -15.541561     2A    -11.226391     3A    -11.224671
       4A     -1.144623     5A     -1.030368     6A     -0.789058
       7A     -0.641191     8A     -0.628884     9A     -0.628041
      10A     -0.583264    11A     -0.504935    12A     -0.433147
      13A     -0.373280

  @DF-RHF Final Energy:  -134.29337332770561

   => Energetics <=

    Nuclear Repulsion Energy =             58.2085457616208188
    One-Electron Energy =                -295.5050128324076013
    Two-Electron Energy =                 103.0030937430811662
    Total Energy =                       -134.2933733277056092

  Dipole Moment: [D]
     X:     1.3485      Y:    -1.0090      Z:     0.0453     Total:     1.6848

  Basis Set: (AUG-CC-PVQZ AUX)
    Blend: AUG-CC-PVQZ-RI
	 Reference Energy          =    -134.2933733277056092 [Eh]
	 Singles Energy            =      -0.0000000000000000 [Eh]
	 Same-Spin Energy          =      -0.1408276058968235 [Eh]
	 Opposite-Spin Energy      =      -0.5587626961077740 [Eh]
	 Correlation Energy        =      -0.6995903020045975 [Eh]
	 Total Energy              =    -134.9929636297102036 [Eh]

	 ================> DF-SCS-MP2 Energies <==================
	-----------------------------------------------------------
	 SCS Same-Spin Scale       =       0.3333333333333333 [-]
	 SCS Opposite-Spin Scale   =       1.2000000000000000 [-]
	 SCS Same-Spin Energy      =      -0.0469425352989412 [Eh]
	 SCS Opposite-Spin Energy  =      -0.6705152353293288 [Eh]
	 SCS Correlation Energy    =      -0.7174577706282700 [Eh]
	 SCS Total Energy          =    -135.0108310983338811 [Eh]
	-----------------------------------------------------------

*** Psi4 exiting successfully. Buy a developer a beer!
