                               Psi4 1.4a2.dev224

  ==> Input File <==

--------------------------------------------------------------------------
#Generated by lconvert.py for cbs job

memory 20 GB

molecule  {
0 1
  C      -1.259210    0.661370   -0.001290
  C      -1.813830   -0.550850    0.000430
  H      -1.873310    1.551250   -0.002520
  H      -0.184860    0.787060   -0.002030
  H      -1.204800   -1.444290    0.003160
  H      -2.886280   -0.685600    0.000960
--
0 1
  N       3.221860   -0.028390   -0.003310
  H       4.112670    0.450870   -0.033020
  H       3.243710   -0.594520    0.835280
  H       3.229640   -0.678680   -0.778780
units angstrom
no_reorient
symmetry c1
}

set {
scf_type DF
mp2_type DF
e_convergence 7
reference rhf
}

energy('mp2/aug-cc-pv[tq]z', bsse_type='cp')
--------------------------------------------------------------------------

    Molecular point group: c1
  Charge       = 0
  Multiplicity = 1
  Basis Set: AUG-CC-PVTZ
    Blend: AUG-CC-PVTZ
  Basis Set: (AUG-CC-PVTZ AUX)
    Blend: AUG-CC-PVTZ-JKFIT
  @DF-RHF Final Energy:   -56.22019917598931
    Total Energy =                        -56.2201991759893147
  Basis Set: (AUG-CC-PVTZ AUX)
    Blend: AUG-CC-PVTZ-RI
	 Reference Energy          =     -56.2201991759893147 [Eh]
	 Singles Energy            =      -0.0000000000000000 [Eh]
	 Same-Spin Energy          =      -0.0560791254630958 [Eh]
	 Opposite-Spin Energy      =      -0.2010924778254780 [Eh]
	 Correlation Energy        =      -0.2571716032885738 [Eh]
	 Total Energy              =     -56.4773707792778907 [Eh]
	 SCS Total Energy          =     -56.4802031912009213 [Eh]
    Molecular point group: c1
  Basis Set: AUG-CC-PVQZ
    Blend: AUG-CC-PVQZ
  Basis Set: (AUG-CC-PVQZ AUX)
    Blend: AUG-CC-PVQZ-JKFIT
  @DF-RHF Final Energy:   -56.22384958867328
    Total Energy =                        -56.2238495886732821
  Basis Set: (AUG-CC-PVQZ AUX)
  @DF-RHF Final Energy:   -56.22021354655293
    Total Energy =                        -56.2202135465529267
  @DF-RHF Final Energy:   -56.22385569466120
    Total Energy =                        -56.2238556946611965
  @DF-RHF Final Energy:   -78.06465225852267
    Total Energy =                        -78.0646522585226705
  @DF-RHF Final Energy:   -78.06935550614648
    Total Energy =                        -78.0693555061464792
  @DF-RHF Final Energy:   -78.06464279480451
    Total Energy =                        -78.0646427948045130
  @DF-RHF Final Energy:   -78.06935336055980
    Total Energy =                        -78.0693533605598020
  Multiplicity = 1
  @DF-RHF Final Energy:  -134.28555164808898
    Total Energy =                       -134.2855516480889833
	 Singles Energy            =      -0.0000000000000000 [Eh]
	 Same-Spin Energy          =      -0.1328948112286156 [Eh]
	 Opposite-Spin Energy      =      -0.5001034209639641 [Eh]
	 Correlation Energy        =      -0.6329982321925797 [Eh]
	 Total Energy              =    -134.9185498802815744 [Eh]
	 SCS Total Energy          =    -134.9299740236552907 [Eh]
    Molecular point group: c1

    Geometry (in Angstrom), charge = 0, multiplicity = 1:

       Center              X                  Y                   Z               Mass
    ------------   -----------------  -----------------  -----------------  -----------------
         C           -1.541312943158     0.654490424770    -0.000547847222    12.000000000000
         C           -2.095932943158    -0.557729575230     0.001172152778    12.000000000000
         H           -2.155412943158     1.544370424770    -0.001777847222     1.007825032230
         H           -0.466962943158     0.780180424770    -0.001287847222     1.007825032230
         H           -1.486902943158    -1.451169575230     0.003902152778     1.007825032230
         H           -3.168382943158    -0.692479575230     0.001702152778     1.007825032230
         N            2.939757056842    -0.035269575230    -0.002567847222    14.003074004430
         H            3.830567056842     0.443990424770    -0.032277847222     1.007825032230
         H            2.961607056842    -0.601399575230     0.836022152778     1.007825032230
         H            2.947537056842    -0.685559575230    -0.778037847222     1.007825032230

  Charge       = 0
  Multiplicity = 1
  Basis Set: AUG-CC-PVQZ
    Blend: AUG-CC-PVQZ
  Basis Set: (AUG-CC-PVQZ AUX)
    Blend: AUG-CC-PVQZ-JKFIT

    Orbital Energies [Eh]
    ---------------------

    Doubly Occupied:

       1A    -15.543172     2A    -11.222262     3A    -11.220443
       4A     -1.146256     5A     -1.026341     6A     -0.784970
       7A     -0.637093     8A     -0.630462     9A     -0.629616
      10A     -0.579162    11A     -0.500744    12A     -0.435059
      13A     -0.369401

  @DF-RHF Final Energy:  -134.29389426219734

   => Energetics <=

    Nuclear Repulsion Energy =             62.7633997310528002
    One-Electron Energy =                -304.6646246988853477
    Two-Electron Energy =                 107.6073307056352064
    Total Energy =                       -134.2938942621973410

  Dipole Moment: [D]
     X:     1.4616      Y:    -0.9627      Z:     0.0441     Total:     1.7508

  Basis Set: (AUG-CC-PVQZ AUX)
    Blend: AUG-CC-PVQZ-RI
	 Reference Energy          =    -134.2938942621973410 [Eh]
	 Singles Energy            =      -0.0000000000000000 [Eh]
	 Same-Spin Energy          =      -0.1410337008694348 [Eh]
	 Opposite-Spin Energy      =      -0.5589655808721378 [Eh]
	 Correlation Energy        =      -0.6999992817415726 [Eh]
	 Total Energy              =    -134.9938935439389240 [Eh]

	 ================> DF-SCS-MP2 Energies <==================
	-----------------------------------------------------------
	 SCS Same-Spin Scale       =       0.3333333333333333 [-]
	 SCS Opposite-Spin Scale   =       1.2000000000000000 [-]
	 SCS Same-Spin Energy      =      -0.0470112336231449 [Eh]
	 SCS Opposite-Spin Energy  =      -0.6707586970465653 [Eh]
	 SCS Correlation Energy    =      -0.7177699306697103 [Eh]
	 SCS Total Energy          =    -135.0116641928670447 [Eh]
	-----------------------------------------------------------

*** Psi4 exiting successfully. Buy a developer a beer!
