                               Psi4 1.4a2.dev224

  ==> Input File <==

--------------------------------------------------------------------------
#Generated by lconvert.py for cbs job

memory 20 GB

molecule  {
0 1
  C      -1.259210    0.661370   -0.001290
  C      -1.813830   -0.550850    0.000430
  H      -1.873310    1.551250   -0.002520
  H      -0.184860    0.787060   -0.002030
  H      -1.204800   -1.444290    0.003160
  H      -2.886280   -0.685600    0.000960
--
0 1
  N       4.088140   -0.043530   -0.003840
  H       4.978950    0.435720   -0.033550
  H       4.109990   -0.609660    0.834740
  H       4.095910   -0.693830   -0.779320
units angstrom
no_reorient
symmetry c1
}

set {
scf_type DF
mp2_type DF
e_convergence 7
reference rhf
}

energy('mp2/aug-cc-pv[tq]z', bsse_type='cp')
--------------------------------------------------------------------------

    Molecular point group: c1
  Charge       = 0
  Multiplicity = 1
  Basis Set: AUG-CC-PVTZ
    Blend: AUG-CC-PVTZ
  Basis Set: (AUG-CC-PVTZ AUX)
    Blend: AUG-CC-PVTZ-JKFIT
  @DF-RHF Final Energy:   -56.22019913521268
    Total Energy =                        -56.2201991352126811
  Basis Set: (AUG-CC-PVTZ AUX)
    Blend: AUG-CC-PVTZ-RI
	 Reference Energy          =     -56.2201991352126811 [Eh]
	 Singles Energy            =      -0.0000000000000000 [Eh]
	 Same-Spin Energy          =      -0.0560791300654344 [Eh]
	 Opposite-Spin Energy      =      -0.2010924977084051 [Eh]
	 Correlation Energy        =      -0.2571716277738394 [Eh]
	 Total Energy              =     -56.4773707629865171 [Eh]
	 SCS Total Energy          =     -56.4802031758179126 [Eh]
    Molecular point group: c1
  Basis Set: AUG-CC-PVQZ
    Blend: AUG-CC-PVQZ
  Basis Set: (AUG-CC-PVQZ AUX)
    Blend: AUG-CC-PVQZ-JKFIT
  @DF-RHF Final Energy:   -56.22384954674915
    Total Energy =                        -56.2238495467491504
  Basis Set: (AUG-CC-PVQZ AUX)
  @DF-RHF Final Energy:   -56.22020718376439
    Total Energy =                        -56.2202071837643871
  @DF-RHF Final Energy:   -56.22385268551784
    Total Energy =                        -56.2238526855178407
  @DF-RHF Final Energy:   -78.06464886117247
    Total Energy =                        -78.0646488611724720
  @DF-RHF Final Energy:   -78.06935442275787
    Total Energy =                        -78.0693544227578684
  @DF-RHF Final Energy:   -78.06464279472982
    Total Energy =                        -78.0646427947298207
  @DF-RHF Final Energy:   -78.06935336053353
    Total Energy =                        -78.0693533605335261
  Multiplicity = 1
  @DF-RHF Final Energy:  -134.28518943575358
    Total Energy =                       -134.2851894357535798
	 Singles Energy            =      -0.0000000000000000 [Eh]
	 Same-Spin Energy          =      -0.1327302775689511 [Eh]
	 Opposite-Spin Energy      =      -0.4998852771592815 [Eh]
	 Correlation Energy        =      -0.6326155547282326 [Eh]
	 Total Energy              =    -134.9178049904818124 [Eh]
	 SCS Total Energy          =    -134.9292951942010461 [Eh]
    Molecular point group: c1

    Geometry (in Angstrom), charge = 0, multiplicity = 1:

       Center              X                  Y                   Z               Mass
    ------------   -----------------  -----------------  -----------------  -----------------
         C           -1.868664317649     0.660212005234    -0.000347122428    12.000000000000
         C           -2.423284317649    -0.552007994766     0.001372877572    12.000000000000
         H           -2.482764317649     1.550092005234    -0.001577122428     1.007825032230
         H           -0.794314317649     0.785902005234    -0.001087122428     1.007825032230
         H           -1.814254317649    -1.445447994766     0.004102877572     1.007825032230
         H           -3.495734317649    -0.686757994766     0.001902877572     1.007825032230
         N            3.478685682351    -0.044687994766    -0.002897122428    14.003074004430
         H            4.369495682351     0.434562005234    -0.032607122428     1.007825032230
         H            3.500535682351    -0.610817994766     0.835682877572     1.007825032230
         H            3.486455682351    -0.694987994766    -0.778377122428     1.007825032230

  Charge       = 0
  Multiplicity = 1
  Basis Set: AUG-CC-PVQZ
    Blend: AUG-CC-PVQZ
  Basis Set: (AUG-CC-PVQZ AUX)
    Blend: AUG-CC-PVQZ-JKFIT

    Orbital Energies [Eh]
    ---------------------

    Doubly Occupied:

       1A    -15.542108     2A    -11.224871     3A    -11.223147
       4A     -1.145160     5A     -1.028883     6A     -0.787551
       7A     -0.639663     8A     -0.629408     9A     -0.628575
      10A     -0.581752    11A     -0.503380    12A     -0.433774
      13A     -0.371841

  @DF-RHF Final Energy:  -134.29353957338245

   => Energetics <=

    Nuclear Repulsion Energy =             60.1437818322420483
    One-Electron Energy =                -299.3944183598013637
    Two-Electron Energy =                 104.9570969541768761
    Total Energy =                       -134.2935395733824464

  Dipole Moment: [D]
     X:     1.3860      Y:    -0.9926      Z:     0.0449     Total:     1.7054

  Basis Set: (AUG-CC-PVQZ AUX)
    Blend: AUG-CC-PVQZ-RI
	 Reference Energy          =    -134.2935395733824464 [Eh]
	 Singles Energy            =      -0.0000000000000000 [Eh]
	 Same-Spin Energy          =      -0.1408748534320129 [Eh]
	 Opposite-Spin Energy      =      -0.5588078864338550 [Eh]
	 Correlation Energy        =      -0.6996827398658680 [Eh]
	 Total Energy              =    -134.9932223132483102 [Eh]

	 ================> DF-SCS-MP2 Energies <==================
	-----------------------------------------------------------
	 SCS Same-Spin Scale       =       0.3333333333333333 [-]
	 SCS Opposite-Spin Scale   =       1.2000000000000000 [-]
	 SCS Same-Spin Energy      =      -0.0469582844773376 [Eh]
	 SCS Opposite-Spin Energy  =      -0.6705694637206260 [Eh]
	 SCS Correlation Energy    =      -0.7175277481979636 [Eh]
	 SCS Total Energy          =    -135.0110673215804127 [Eh]
	-----------------------------------------------------------

*** Psi4 exiting successfully. Buy a developer a beer!
