                               Psi4 1.4a2.dev224

  ==> Input File <==

--------------------------------------------------------------------------
#Generated by lconvert.py for cbs job

memory 40 GB

molecule  {
0 1
  C       -1.2592080     0.6613710    -0.0012880
  C       -1.8138340    -0.5508520     0.0004330
  H       -1.8733130     1.5512530    -0.0025230
  H       -0.1848620     0.7870610    -0.0020300
  H       -1.2047970    -1.4442860     0.0031610
  H       -2.8862820    -0.6856040     0.0009570
--
0 1
  N        2.2270285    -0.0109950    -0.0026971
  H        3.1178395     0.4682630    -0.0324081
  H        2.2488805    -0.5771260     0.8358889
  H        2.2348025    -0.6612890    -0.7781731
units angstrom
no_reorient
symmetry c1
}

set {
scf_type DF
mp2_type DF
e_convergence 7
reference rhf
}

energy('mp2/aug-cc-pv[tq]z', bsse_type='cp')
--------------------------------------------------------------------------

    Molecular point group: c1
  Charge       = 0
  Multiplicity = 1
  Basis Set: AUG-CC-PVTZ
    Blend: AUG-CC-PVTZ
  Basis Set: (AUG-CC-PVTZ AUX)
    Blend: AUG-CC-PVTZ-JKFIT
  @DF-RHF Final Energy:   -56.22019909076348
    Total Energy =                        -56.2201990907634865
  Basis Set: (AUG-CC-PVTZ AUX)
    Blend: AUG-CC-PVTZ-RI
	 Reference Energy          =     -56.2201990907634794 [Eh]
	 Singles Energy            =      -0.0000000000000000 [Eh]
	 Same-Spin Energy          =      -0.0560791380242232 [Eh]
	 Opposite-Spin Energy      =      -0.2010925395007542 [Eh]
	 Correlation Energy        =      -0.2571716775249773 [Eh]
	 Total Energy              =     -56.4773707682884591 [Eh]
	 SCS Total Energy          =     -56.4802031841724599 [Eh]
    Molecular point group: c1
  Basis Set: AUG-CC-PVQZ
    Blend: AUG-CC-PVQZ
  Basis Set: (AUG-CC-PVQZ AUX)
    Blend: AUG-CC-PVQZ-JKFIT
  @DF-RHF Final Energy:   -56.22384949817034
    Total Energy =                        -56.2238494981703383
  Basis Set: (AUG-CC-PVQZ AUX)
  @DF-RHF Final Energy:   -56.22022813387028
    Total Energy =                        -56.2202281338702790
  @DF-RHF Final Energy:   -56.22386328674892
    Total Energy =                        -56.2238632867489230
  @DF-RHF Final Energy:   -78.06466158999365
    Total Energy =                        -78.0646615899936478
  @DF-RHF Final Energy:   -78.06935857650767
    Total Energy =                        -78.0693585765076676
  @DF-RHF Final Energy:   -78.06464256472071
    Total Energy =                        -78.0646425647207138
  @DF-RHF Final Energy:   -78.06935312195567
    Total Energy =                        -78.0693531219556718
  Multiplicity = 1
  @DF-RHF Final Energy:  -134.28508473607462
    Total Energy =                       -134.2850847360746229
	 Singles Energy            =      -0.0000000000000000 [Eh]
	 Same-Spin Energy          =      -0.1337399930009568 [Eh]
	 Opposite-Spin Energy      =      -0.5011914794378542 [Eh]
	 Correlation Energy        =      -0.6349314724388111 [Eh]
	 Total Energy              =    -134.9200162085134309 [Eh]
	 SCS Total Energy          =    -134.9310945090670373 [Eh]
    Molecular point group: c1

    Geometry (in Angstrom), charge = 0, multiplicity = 1:

       Center              X                  Y                   Z               Mass
    ------------   -----------------  -----------------  -----------------  -----------------
         C           -1.165381360936     0.647918501224    -0.000778424829    12.000000000000
         C           -1.720007360936    -0.564304498776     0.000942575171    12.000000000000
         H           -1.779486360936     1.537800501224    -0.002013424829     1.007825032230
         H           -0.091035360936     0.773608501224    -0.001520424829     1.007825032230
         H           -1.110970360936    -1.457738498776     0.003670575171     1.007825032230
         H           -2.792455360936    -0.699056498776     0.001466575171     1.007825032230
         N            2.320855139064    -0.024447498776    -0.002187524829    14.003074004430
         H            3.211666139064     0.454810501224    -0.031898524829     1.007825032230
         H            2.342707139064    -0.590578498776     0.836398475171     1.007825032230
         H            2.328629139064    -0.674741498776    -0.777663524829     1.007825032230

  Charge       = 0
  Multiplicity = 1
  Basis Set: AUG-CC-PVQZ
    Blend: AUG-CC-PVQZ
  Basis Set: (AUG-CC-PVQZ AUX)
    Blend: AUG-CC-PVQZ-JKFIT

    Orbital Energies [Eh]
    ---------------------

    Doubly Occupied:

       1A    -15.545207     2A    -11.216235     3A    -11.212755
       4A     -1.149385     5A     -1.020286     6A     -0.778995
       7A     -0.635681     8A     -0.633083     9A     -0.628550
      10A     -0.573263    11A     -0.496691    12A     -0.436222
      13A     -0.363634

  @DF-RHF Final Energy:  -134.29342173743785

   => Energetics <=

    Nuclear Repulsion Energy =             67.2008416351238793
    One-Electron Energy =                -313.6085544037472346
    Two-Electron Energy =                 112.1142910311855019
    Total Energy =                       -134.2934217374378534

  Dipole Moment: [D]
     X:     1.6726      Y:    -0.8836      Z:     0.0418     Total:     1.8921

  Basis Set: (AUG-CC-PVQZ AUX)
    Blend: AUG-CC-PVQZ-RI
	 Reference Energy          =    -134.2934217374378534 [Eh]
	 Singles Energy            =      -0.0000000000000000 [Eh]
	 Same-Spin Energy          =      -0.1418716078884941 [Eh]
	 Opposite-Spin Energy      =      -0.5598419890329946 [Eh]
	 Correlation Energy        =      -0.7017135969214887 [Eh]
	 Total Energy              =    -134.9951353343593325 [Eh]

	 ================> DF-SCS-MP2 Energies <==================
	-----------------------------------------------------------
	 SCS Same-Spin Scale       =       0.3333333333333333 [-]
	 SCS Opposite-Spin Scale   =       1.2000000000000000 [-]
	 SCS Same-Spin Energy      =      -0.0472905359628314 [Eh]
	 SCS Opposite-Spin Energy  =      -0.6718103868395936 [Eh]
	 SCS Correlation Energy    =      -0.7191009228024250 [Eh]
	 SCS Total Energy          =    -135.0125226602402790 [Eh]
	-----------------------------------------------------------

*** Psi4 exiting successfully. Buy a developer a beer!
