                               Psi4 1.4a2.dev224

  ==> Input File <==

--------------------------------------------------------------------------
#Generated by lconvert.py for cbs job

memory 40 GB

molecule  {
0 1
  C       -1.2592080     0.6613710    -0.0012880
  C       -1.8138340    -0.5508520     0.0004330
  H       -1.8733130     1.5512530    -0.0025230
  H       -0.1848620     0.7870610    -0.0020300
  H       -1.2047970    -1.4442860     0.0031610
  H       -2.8862820    -0.6856040     0.0009570
--
0 1
  N        2.3667070    -0.0134370    -0.0027830
  H        3.2575180     0.4658210    -0.0324940
  H        2.3885590    -0.5795680     0.8358030
  H        2.3744810    -0.6637310    -0.7782590
units angstrom
no_reorient
symmetry c1
}

set {
scf_type DF
mp2_type DF
e_convergence 7
reference rhf
}

energy('mp2/aug-cc-pv[tq]z', bsse_type='cp')
--------------------------------------------------------------------------

    Molecular point group: c1
  Charge       = 0
  Multiplicity = 1
  Basis Set: AUG-CC-PVTZ
    Blend: AUG-CC-PVTZ
  Basis Set: (AUG-CC-PVTZ AUX)
    Blend: AUG-CC-PVTZ-JKFIT
  @DF-RHF Final Energy:   -56.22019909076393
    Total Energy =                        -56.2201990907639271
  Basis Set: (AUG-CC-PVTZ AUX)
    Blend: AUG-CC-PVTZ-RI
	 Reference Energy          =     -56.2201990907639271 [Eh]
	 Singles Energy            =      -0.0000000000000000 [Eh]
	 Same-Spin Energy          =      -0.0560791380242125 [Eh]
	 Opposite-Spin Energy      =      -0.2010925395008303 [Eh]
	 Correlation Energy        =      -0.2571716775250428 [Eh]
	 Total Energy              =     -56.4773707682889707 [Eh]
	 SCS Total Energy          =     -56.4802031841729928 [Eh]
    Molecular point group: c1
  Basis Set: AUG-CC-PVQZ
    Blend: AUG-CC-PVQZ
  Basis Set: (AUG-CC-PVQZ AUX)
    Blend: AUG-CC-PVQZ-JKFIT
  @DF-RHF Final Energy:   -56.22384949816629
    Total Energy =                        -56.2238494981662882
  Basis Set: (AUG-CC-PVQZ AUX)
  @DF-RHF Final Energy:   -56.22022586671279
    Total Energy =                        -56.2202258667127879
  @DF-RHF Final Energy:   -56.22386184178418
    Total Energy =                        -56.2238618417841849
  @DF-RHF Final Energy:   -78.06465960636709
    Total Energy =                        -78.0646596063670870
  @DF-RHF Final Energy:   -78.06935776162707
    Total Energy =                        -78.0693577616270744
  @DF-RHF Final Energy:   -78.06464256469235
    Total Energy =                        -78.0646425646923490
  @DF-RHF Final Energy:   -78.06935312161572
    Total Energy =                        -78.0693531216157197
  Multiplicity = 1
  @DF-RHF Final Energy:  -134.28549163845940
    Total Energy =                       -134.2854916384594048
	 Singles Energy            =      -0.0000000000000000 [Eh]
	 Same-Spin Energy          =      -0.1335209650220639 [Eh]
	 Opposite-Spin Energy      =      -0.5009120497684547 [Eh]
	 Correlation Energy        =      -0.6344330147905186 [Eh]
	 Total Energy              =    -134.9199246532499217 [Eh]
	 SCS Total Energy          =    -134.9310930865222247 [Eh]
    Molecular point group: c1

    Geometry (in Angstrom), charge = 0, multiplicity = 1:

       Center              X                  Y                   Z               Mass
    ------------   -----------------  -----------------  -----------------  -----------------
         C           -1.218163348520     0.648841289009    -0.000745964767    12.000000000000
         C           -1.772789348520    -0.563381710991     0.000975035233    12.000000000000
         H           -1.832268348520     1.538723289009    -0.001980964767     1.007825032230
         H           -0.143817348520     0.774531289009    -0.001487964767     1.007825032230
         H           -1.163752348520    -1.456815710991     0.003703035233     1.007825032230
         H           -2.845237348520    -0.698133710991     0.001499035233     1.007825032230
         N            2.407751651480    -0.025966710991    -0.002240964767    14.003074004430
         H            3.298562651480     0.453291289009    -0.031951964767     1.007825032230
         H            2.429603651480    -0.592097710991     0.836345035233     1.007825032230
         H            2.415525651480    -0.676260710991    -0.777716964767     1.007825032230

  Charge       = 0
  Multiplicity = 1
  Basis Set: AUG-CC-PVQZ
    Blend: AUG-CC-PVQZ
  Basis Set: (AUG-CC-PVQZ AUX)
    Blend: AUG-CC-PVQZ-JKFIT

    Orbital Energies [Eh]
    ---------------------

    Doubly Occupied:

       1A    -15.544905     2A    -11.217399     3A    -11.214476
       4A     -1.148698     5A     -1.021487     6A     -0.780145
       7A     -0.635057     8A     -0.632503     9A     -0.629540
      10A     -0.574375    11A     -0.497020    12A     -0.436525
      13A     -0.364779

  @DF-RHF Final Energy:  -134.29382798618008

   => Energetics <=

    Nuclear Repulsion Energy =             66.4468156965833288
    One-Electron Energy =                -312.0874648998277507
    Two-Electron Energy =                 111.3468212170643596
    Total Energy =                       -134.2938279861800766

  Dipole Moment: [D]
     X:     1.6282      Y:    -0.9001      Z:     0.0423     Total:     1.8609

  Basis Set: (AUG-CC-PVQZ AUX)
    Blend: AUG-CC-PVQZ-RI
	 Reference Energy          =    -134.2938279861800766 [Eh]
	 Singles Energy            =      -0.0000000000000000 [Eh]
	 Same-Spin Energy          =      -0.1416552461012393 [Eh]
	 Opposite-Spin Energy      =      -0.5596192367076388 [Eh]
	 Correlation Energy        =      -0.7012744828088782 [Eh]
	 Total Energy              =    -134.9951024689889607 [Eh]

	 ================> DF-SCS-MP2 Energies <==================
	-----------------------------------------------------------
	 SCS Same-Spin Scale       =       0.3333333333333333 [-]
	 SCS Opposite-Spin Scale   =       1.2000000000000000 [-]
	 SCS Same-Spin Energy      =      -0.0472184153670798 [Eh]
	 SCS Opposite-Spin Energy  =      -0.6715430840491665 [Eh]
	 SCS Correlation Energy    =      -0.7187614994162463 [Eh]
	 SCS Total Energy          =    -135.0125894855963224 [Eh]
	-----------------------------------------------------------

*** Psi4 exiting successfully. Buy a developer a beer!
