                               Psi4 1.4a2.dev224

  ==> Input File <==

--------------------------------------------------------------------------
#Generated by lconvert.py for cbs job

memory 40 GB

molecule  {
0 1
  C       -1.2592080     0.6613710    -0.0012880
  C       -1.8138340    -0.5508520     0.0004330
  H       -1.8733130     1.5512530    -0.0025230
  H       -0.1848620     0.7870610    -0.0020300
  H       -1.2047970    -1.4442860     0.0031610
  H       -2.8862820    -0.6856040     0.0009570
--
0 1
  N        1.8030382    -0.0035822    -0.0024362
  H        2.6938492     0.4756758    -0.0321472
  H        1.8248902    -0.5697132     0.8361498
  H        1.8108122    -0.6538762    -0.7779122
units angstrom
no_reorient
symmetry c1
}

set {
scf_type DF
mp2_type DF
e_convergence 7
reference rhf
}

energy('mp2/aug-cc-pv[tq]z', bsse_type='cp')
--------------------------------------------------------------------------

    Molecular point group: c1
  Charge       = 0
  Multiplicity = 1
  Basis Set: AUG-CC-PVTZ
    Blend: AUG-CC-PVTZ
  Basis Set: (AUG-CC-PVTZ AUX)
    Blend: AUG-CC-PVTZ-JKFIT
  @DF-RHF Final Energy:   -56.22019909076508
    Total Energy =                        -56.2201990907650782
  Basis Set: (AUG-CC-PVTZ AUX)
    Blend: AUG-CC-PVTZ-RI
	 Reference Energy          =     -56.2201990907650782 [Eh]
	 Singles Energy            =      -0.0000000000000000 [Eh]
	 Same-Spin Energy          =      -0.0560791380242032 [Eh]
	 Opposite-Spin Energy      =      -0.2010925395008870 [Eh]
	 Correlation Energy        =      -0.2571716775250902 [Eh]
	 Total Energy              =     -56.4773707682901716 [Eh]
	 SCS Total Energy          =     -56.4802031841742078 [Eh]
    Molecular point group: c1
  Basis Set: AUG-CC-PVQZ
    Blend: AUG-CC-PVQZ
  Basis Set: (AUG-CC-PVQZ AUX)
    Blend: AUG-CC-PVQZ-JKFIT
  @DF-RHF Final Energy:   -56.22384949818702
    Total Energy =                        -56.2238494981870218
  Basis Set: (AUG-CC-PVQZ AUX)
  @DF-RHF Final Energy:   -56.22024357791750
    Total Energy =                        -56.2202435779175005
  @DF-RHF Final Energy:   -56.22386838533150
    Total Energy =                        -56.2238683853314996
  @DF-RHF Final Energy:   -78.06467044610210
    Total Energy =                        -78.0646704461020988
  @DF-RHF Final Energy:   -78.06936187094701
    Total Energy =                        -78.0693618709470059
  @DF-RHF Final Energy:   -78.06464256462081
    Total Energy =                        -78.0646425646208115
  @DF-RHF Final Energy:   -78.06935312194180
    Total Energy =                        -78.0693531219418020
  Multiplicity = 1
  @DF-RHF Final Energy:  -134.28083596176026
    Total Energy =                       -134.2808359617602605
	 Singles Energy            =      -0.0000000000000000 [Eh]
	 Same-Spin Energy          =      -0.1348247768779109 [Eh]
	 Opposite-Spin Energy      =      -0.5024575347125502 [Eh]
	 Correlation Energy        =      -0.6372823115904610 [Eh]
	 Total Energy              =    -134.9181182733507285 [Eh]
	 SCS Total Energy          =    -134.9287265957079569 [Eh]
    Molecular point group: c1

    Geometry (in Angstrom), charge = 0, multiplicity = 1:

       Center              X                  Y                   Z               Mass
    ------------   -----------------  -----------------  -----------------  -----------------
         C           -1.005163068569     0.645117337712    -0.000877014237    12.000000000000
         C           -1.559789068569    -0.567105662288     0.000843985763    12.000000000000
         H           -1.619268068569     1.534999337712    -0.002112014237     1.007825032230
         H            0.069182931431     0.770807337712    -0.001619014237     1.007825032230
         H           -0.950752068569    -1.460539662288     0.003571985763     1.007825032230
         H           -2.632237068569    -0.701857662288     0.001367985763     1.007825032230
         N            2.057083131431    -0.019835862288    -0.002025214237    14.003074004430
         H            2.947894131431     0.459422137712    -0.031736214237     1.007825032230
         H            2.078935131431    -0.585966862288     0.836560785763     1.007825032230
         H            2.064857131431    -0.670129862288    -0.777501214237     1.007825032230

  Charge       = 0
  Multiplicity = 1
  Basis Set: AUG-CC-PVQZ
    Blend: AUG-CC-PVQZ
  Basis Set: (AUG-CC-PVQZ AUX)
    Blend: AUG-CC-PVQZ-JKFIT

    Orbital Energies [Eh]
    ---------------------

    Doubly Occupied:

       1A    -15.545979     2A    -11.211664     3A    -11.204797
       4A     -1.152753     5A     -1.015482     6A     -0.774679
       7A     -0.639873     8A     -0.635823     9A     -0.624110
      10A     -0.569336    11A     -0.498811    12A     -0.430455
      13A     -0.359022

  @DF-RHF Final Energy:  -134.28916678397604

   => Energetics <=

    Nuclear Repulsion Energy =             69.8563264989543171
    One-Electron Energy =                -318.9654140640367359
    Two-Electron Energy =                 114.8199207811063616
    Total Energy =                       -134.2891667839760430

  Dipole Moment: [D]
     X:     1.8627      Y:    -0.8176      Z:     0.0397     Total:     2.0346

  Basis Set: (AUG-CC-PVQZ AUX)
    Blend: AUG-CC-PVQZ-RI
	 Reference Energy          =    -134.2891667839760430 [Eh]
	 Singles Energy            =      -0.0000000000000000 [Eh]
	 Same-Spin Energy          =      -0.1429640142113811 [Eh]
	 Opposite-Spin Energy      =      -0.5609621466114196 [Eh]
	 Correlation Energy        =      -0.7039261608228007 [Eh]
	 Total Energy              =    -134.9930929447988319 [Eh]

	 ================> DF-SCS-MP2 Energies <==================
	-----------------------------------------------------------
	 SCS Same-Spin Scale       =       0.3333333333333333 [-]
	 SCS Opposite-Spin Scale   =       1.2000000000000000 [-]
	 SCS Same-Spin Energy      =      -0.0476546714037937 [Eh]
	 SCS Opposite-Spin Energy  =      -0.6731545759337035 [Eh]
	 SCS Correlation Energy    =      -0.7208092473374972 [Eh]
	 SCS Total Energy          =    -135.0099760313135278 [Eh]
	-----------------------------------------------------------

*** Psi4 exiting successfully. Buy a developer a beer!
