                               Psi4 1.4a2.dev224

  ==> Input File <==

--------------------------------------------------------------------------
#Generated by lconvert.py for cbs job

memory 40 GB

molecule  {
0 1
  C       -1.2592080     0.6613710    -0.0012880
  C       -1.8138340    -0.5508520     0.0004330
  H       -1.8733130     1.5512530    -0.0025230
  H       -0.1848620     0.7870610    -0.0020300
  H       -1.2047970    -1.4442860     0.0031610
  H       -2.8862820    -0.6856040     0.0009570
--
0 1
  N        2.6443458    -0.0182910    -0.0029538
  H        3.5351568     0.4609670    -0.0326648
  H        2.6661978    -0.5844220     0.8356322
  H        2.6521198    -0.6685850    -0.7784298
units angstrom
no_reorient
symmetry c1
}

set {
scf_type DF
mp2_type DF
e_convergence 7
reference rhf
}

energy('mp2/aug-cc-pv[tq]z', bsse_type='cp')
--------------------------------------------------------------------------

    Molecular point group: c1
  Charge       = 0
  Multiplicity = 1
  Basis Set: AUG-CC-PVTZ
    Blend: AUG-CC-PVTZ
  Basis Set: (AUG-CC-PVTZ AUX)
    Blend: AUG-CC-PVTZ-JKFIT
  @DF-RHF Final Energy:   -56.22019909075610
    Total Energy =                        -56.2201990907560969
  Basis Set: (AUG-CC-PVTZ AUX)
    Blend: AUG-CC-PVTZ-RI
	 Reference Energy          =     -56.2201990907560969 [Eh]
	 Singles Energy            =      -0.0000000000000000 [Eh]
	 Same-Spin Energy          =      -0.0560791380242273 [Eh]
	 Opposite-Spin Energy      =      -0.2010925395008302 [Eh]
	 Correlation Energy        =      -0.2571716775250575 [Eh]
	 Total Energy              =     -56.4773707682811548 [Eh]
	 SCS Total Energy          =     -56.4802031841651697 [Eh]
    Molecular point group: c1
  Basis Set: AUG-CC-PVQZ
    Blend: AUG-CC-PVQZ
  Basis Set: (AUG-CC-PVQZ AUX)
    Blend: AUG-CC-PVQZ-JKFIT
  @DF-RHF Final Energy:   -56.22384949815576
    Total Energy =                        -56.2238494981557579
  Basis Set: (AUG-CC-PVQZ AUX)
  @DF-RHF Final Energy:   -56.22022222749868
    Total Energy =                        -56.2202222274986809
  @DF-RHF Final Energy:   -56.22385844934227
    Total Energy =                        -56.2238584493422735
  @DF-RHF Final Energy:   -78.06465645863985
    Total Energy =                        -78.0646564586398313
  @DF-RHF Final Energy:   -78.06935656089684
    Total Energy =                        -78.0693565608968356
  @DF-RHF Final Energy:   -78.06464256474317
    Total Energy =                        -78.0646425647431670
  @DF-RHF Final Energy:   -78.06935312175965
    Total Energy =                        -78.0693531217596473
  Multiplicity = 1
  @DF-RHF Final Energy:  -134.28575387341942
    Total Energy =                       -134.2857538734194236
	 Singles Energy            =      -0.0000000000000000 [Eh]
	 Same-Spin Energy          =      -0.1332133860793295 [Eh]
	 Opposite-Spin Energy      =      -0.5005128241316559 [Eh]
	 Correlation Energy        =      -0.6337262102109853 [Eh]
	 Total Energy              =    -134.9194800836304182 [Eh]
	 SCS Total Energy          =    -134.9307737244038492 [Eh]
    Molecular point group: c1

    Geometry (in Angstrom), charge = 0, multiplicity = 1:

       Center              X                  Y                   Z               Mass
    ------------   -----------------  -----------------  -----------------  -----------------
         C           -1.323078046877     0.650675528121    -0.000681422526    12.000000000000
         C           -1.877704046877    -0.561547471879     0.001039577474    12.000000000000
         H           -1.937183046877     1.540557528121    -0.001916422526     1.007825032230
         H           -0.248732046877     0.776365528121    -0.001423422526     1.007825032230
         H           -1.268667046877    -1.454981471879     0.003767577474     1.007825032230
         H           -2.950152046877    -0.696299471879     0.001563577474     1.007825032230
         N            2.580475753123    -0.028986471879    -0.002347222526    14.003074004430
         H            3.471286753123     0.450271528121    -0.032058222526     1.007825032230
         H            2.602327753123    -0.595117471879     0.836238777474     1.007825032230
         H            2.588249753123    -0.679280471879    -0.777823222526     1.007825032230

  Charge       = 0
  Multiplicity = 1
  Basis Set: AUG-CC-PVQZ
    Blend: AUG-CC-PVQZ
  Basis Set: (AUG-CC-PVQZ AUX)
    Blend: AUG-CC-PVQZ-JKFIT

    Orbital Energies [Eh]
    ---------------------

    Doubly Occupied:

       1A    -15.544293     2A    -11.219349     3A    -11.217082
       4A     -1.147651     5A     -1.023464     6A     -0.782083
       7A     -0.634960     8A     -0.631648     9A     -0.630372
      10A     -0.576280    11A     -0.498173    12A     -0.436306
      13A     -0.366660

  @DF-RHF Final Energy:  -134.29408926541356

   => Energetics <=

    Nuclear Repulsion Energy =             65.0918340678492342
    One-Electron Energy =                -309.3551992516870541
    Two-Electron Energy =                 109.9692759184242732
    Total Energy =                       -134.2940892654135610

  Dipole Moment: [D]
     X:     1.5578      Y:    -0.9265      Z:     0.0431     Total:     1.8130

  Basis Set: (AUG-CC-PVQZ AUX)
    Blend: AUG-CC-PVQZ-RI
	 Reference Energy          =    -134.2940892654135610 [Eh]
	 Singles Energy            =      -0.0000000000000000 [Eh]
	 Same-Spin Energy          =      -0.1413514491085946 [Eh]
	 Opposite-Spin Energy      =      -0.5592985084487947 [Eh]
	 Correlation Energy        =      -0.7006499575573893 [Eh]
	 Total Energy              =    -134.9947392229709635 [Eh]

	 ================> DF-SCS-MP2 Energies <==================
	-----------------------------------------------------------
	 SCS Same-Spin Scale       =       0.3333333333333333 [-]
	 SCS Opposite-Spin Scale   =       1.2000000000000000 [-]
	 SCS Same-Spin Energy      =      -0.0471171497028649 [Eh]
	 SCS Opposite-Spin Energy  =      -0.6711582101385536 [Eh]
	 SCS Correlation Energy    =      -0.7182753598414184 [Eh]
	 SCS Total Energy          =    -135.0123646252549747 [Eh]
	-----------------------------------------------------------

*** Psi4 exiting successfully. Buy a developer a beer!
