                               Psi4 1.4a2.dev224

  ==> Input File <==

--------------------------------------------------------------------------
#Generated by lconvert.py for cbs job

memory 40 GB

molecule  {
0 1
  C       -1.2592080     0.6613710    -0.0012880
  C       -1.8138340    -0.5508520     0.0004330
  H       -1.8733130     1.5512530    -0.0025230
  H       -0.1848620     0.7870610    -0.0020300
  H       -1.2047970    -1.4442860     0.0031610
  H       -2.8862820    -0.6856040     0.0009570
--
0 1
  N        2.0866398    -0.0085405    -0.0026107
  H        2.9774508     0.4707175    -0.0323217
  H        2.1084918    -0.5746715     0.8359753
  H        2.0944138    -0.6588345    -0.7780867
units angstrom
no_reorient
symmetry c1
}

set {
scf_type DF
mp2_type DF
e_convergence 7
reference rhf
}

energy('mp2/aug-cc-pv[tq]z', bsse_type='cp')
--------------------------------------------------------------------------

    Molecular point group: c1
  Charge       = 0
  Multiplicity = 1
  Basis Set: AUG-CC-PVTZ
    Blend: AUG-CC-PVTZ
  Basis Set: (AUG-CC-PVTZ AUX)
    Blend: AUG-CC-PVTZ-JKFIT
  @DF-RHF Final Energy:   -56.22019909075662
    Total Energy =                        -56.2201990907566227
  Basis Set: (AUG-CC-PVTZ AUX)
    Blend: AUG-CC-PVTZ-RI
	 Reference Energy          =     -56.2201990907566227 [Eh]
	 Singles Energy            =      -0.0000000000000000 [Eh]
	 Same-Spin Energy          =      -0.0560791380242324 [Eh]
	 Opposite-Spin Energy      =      -0.2010925395008998 [Eh]
	 Correlation Energy        =      -0.2571716775251322 [Eh]
	 Total Energy              =     -56.4773707682817516 [Eh]
	 SCS Total Energy          =     -56.4802031841657808 [Eh]
    Molecular point group: c1
  Basis Set: AUG-CC-PVQZ
    Blend: AUG-CC-PVQZ
  Basis Set: (AUG-CC-PVQZ AUX)
    Blend: AUG-CC-PVQZ-JKFIT
  @DF-RHF Final Energy:   -56.22384949818377
    Total Energy =                        -56.2238494981837746
  Basis Set: (AUG-CC-PVQZ AUX)
  @DF-RHF Final Energy:   -56.22023122486584
    Total Energy =                        -56.2202312248658416
  @DF-RHF Final Energy:   -56.22386465758647
    Total Energy =                        -56.2238646575864749
  @DF-RHF Final Energy:   -78.06466405590339
    Total Energy =                        -78.0646640559033926
  @DF-RHF Final Energy:   -78.06935953057830
    Total Energy =                        -78.0693595305783106
  @DF-RHF Final Energy:   -78.06464256471206
    Total Energy =                        -78.0646425647120594
  @DF-RHF Final Energy:   -78.06935312176664
    Total Energy =                        -78.0693531217666390
  Multiplicity = 1
  @DF-RHF Final Energy:  -134.28433155521006
    Total Energy =                       -134.2843315552100592
	 Singles Energy            =      -0.0000000000000000 [Eh]
	 Same-Spin Energy          =      -0.1340179855214288 [Eh]
	 Opposite-Spin Energy      =      -0.5015345259961757 [Eh]
	 Correlation Energy        =      -0.6355525115176044 [Eh]
	 Total Energy              =    -134.9198840667276613 [Eh]
	 SCS Total Energy          =    -134.9308456482459349 [Eh]
    Molecular point group: c1

    Geometry (in Angstrom), charge = 0, multiplicity = 1:

       Center              X                  Y                   Z               Mass
    ------------   -----------------  -----------------  -----------------  -----------------
         C           -1.112331001573     0.646990989914    -0.000811073832    12.000000000000
         C           -1.666957001573    -0.565232010086     0.000909926168    12.000000000000
         H           -1.726436001573     1.536872989914    -0.002046073832     1.007825032230
         H           -0.037985001573     0.772680989914    -0.001553073832     1.007825032230
         H           -1.057920001573    -1.458666010086     0.003637926168     1.007825032230
         H           -2.739405001573    -0.699984010086     0.001433926168     1.007825032230
         N            2.233516798427    -0.022920510086    -0.002133773832    14.003074004430
         H            3.124327798427     0.456337489914    -0.031844773832     1.007825032230
         H            2.255368798427    -0.589051510086     0.836452226168     1.007825032230
         H            2.241290798427    -0.673214510086    -0.777609773832     1.007825032230

  Charge       = 0
  Multiplicity = 1
  Basis Set: AUG-CC-PVQZ
    Blend: AUG-CC-PVQZ
  Basis Set: (AUG-CC-PVQZ AUX)
    Blend: AUG-CC-PVQZ-JKFIT

    Orbital Energies [Eh]
    ---------------------

    Doubly Occupied:

       1A    -15.545491     2A    -11.214913     3A    -11.210649
       4A     -1.150236     5A     -1.018907     6A     -0.777705
       7A     -0.636668     8A     -0.633798     9A     -0.627264
      10A     -0.572042    11A     -0.496727    12A     -0.435357
      13A     -0.362316

  @DF-RHF Final Energy:  -134.29266877167544

   => Energetics <=

    Nuclear Repulsion Energy =             68.0145869164208108
    One-Electron Energy =                -315.2503629966739709
    Two-Electron Energy =                 112.9431073085777371
    Total Energy =                       -134.2926687716754373

  Dipole Moment: [D]
     X:     1.7250      Y:    -0.8646      Z:     0.0412     Total:     1.9300

  Basis Set: (AUG-CC-PVQZ AUX)
    Blend: AUG-CC-PVQZ-RI
	 Reference Energy          =    -134.2926687716754373 [Eh]
	 Singles Energy            =      -0.0000000000000000 [Eh]
	 Same-Spin Energy          =      -0.1421482261375634 [Eh]
	 Opposite-Spin Energy      =      -0.5601231681321054 [Eh]
	 Correlation Energy        =      -0.7022713942696688 [Eh]
	 Total Energy              =    -134.9949401659451098 [Eh]

	 ================> DF-SCS-MP2 Energies <==================
	-----------------------------------------------------------
	 SCS Same-Spin Scale       =       0.3333333333333333 [-]
	 SCS Opposite-Spin Scale   =       1.2000000000000000 [-]
	 SCS Same-Spin Energy      =      -0.0473827420458545 [Eh]
	 SCS Opposite-Spin Energy  =      -0.6721478017585264 [Eh]
	 SCS Correlation Energy    =      -0.7195305438043809 [Eh]
	 SCS Total Energy          =    -135.0121993154798190 [Eh]
	-----------------------------------------------------------

*** Psi4 exiting successfully. Buy a developer a beer!
