                               Psi4 1.4a2.dev224

  ==> Input File <==

--------------------------------------------------------------------------
#Generated by lconvert.py for cbs job

memory 40 GB

molecule  {
0 1
  C       -1.2592080     0.6613710    -0.0012880
  C       -1.8138340    -0.5508520     0.0004330
  H       -1.8733130     1.5512530    -0.0025230
  H       -0.1848620     0.7870610    -0.0020300
  H       -1.2047970    -1.4442860     0.0031610
  H       -2.8862820    -0.6856040     0.0009570
--
0 1
  N        2.5057837    -0.0158685    -0.0028686
  H        3.3965947     0.4633895    -0.0325796
  H        2.5276357    -0.5819995     0.8357174
  H        2.5135577    -0.6661625    -0.7783446
units angstrom
no_reorient
symmetry c1
}

set {
scf_type DF
mp2_type DF
e_convergence 7
reference rhf
}

energy('mp2/aug-cc-pv[tq]z', bsse_type='cp')
--------------------------------------------------------------------------

    Molecular point group: c1
  Charge       = 0
  Multiplicity = 1
  Basis Set: AUG-CC-PVTZ
    Blend: AUG-CC-PVTZ
  Basis Set: (AUG-CC-PVTZ AUX)
    Blend: AUG-CC-PVTZ-JKFIT
  @DF-RHF Final Energy:   -56.22019909074620
    Total Energy =                        -56.2201990907461990
  Basis Set: (AUG-CC-PVTZ AUX)
    Blend: AUG-CC-PVTZ-RI
	 Reference Energy          =     -56.2201990907461990 [Eh]
	 Singles Energy            =      -0.0000000000000000 [Eh]
	 Same-Spin Energy          =      -0.0560791380242268 [Eh]
	 Opposite-Spin Energy      =      -0.2010925395008315 [Eh]
	 Correlation Energy        =      -0.2571716775250583 [Eh]
	 Total Energy              =     -56.4773707682712569 [Eh]
	 SCS Total Energy          =     -56.4802031841552719 [Eh]
    Molecular point group: c1
  Basis Set: AUG-CC-PVQZ
    Blend: AUG-CC-PVQZ
  Basis Set: (AUG-CC-PVQZ AUX)
    Blend: AUG-CC-PVQZ-JKFIT
  @DF-RHF Final Energy:   -56.22384949819591
    Total Energy =                        -56.2238494981959107
  Basis Set: (AUG-CC-PVQZ AUX)
  @DF-RHF Final Energy:   -56.22022401300568
    Total Energy =                        -56.2202240130056907
  @DF-RHF Final Energy:   -56.22386014591649
    Total Energy =                        -56.2238601459164897
  @DF-RHF Final Energy:   -78.06465795065021
    Total Energy =                        -78.0646579506502150
  @DF-RHF Final Energy:   -78.06935709139394
    Total Energy =                        -78.0693570913939396
  @DF-RHF Final Energy:   -78.06464256468603
    Total Energy =                        -78.0646425646860393
  @DF-RHF Final Energy:   -78.06935312175530
    Total Energy =                        -78.0693531217552987
  Multiplicity = 1
  @DF-RHF Final Energy:  -134.28568626972952
    Total Energy =                       -134.2856862697295242
	 Singles Energy            =      -0.0000000000000000 [Eh]
	 Same-Spin Energy          =      -0.1333486513009870 [Eh]
	 Opposite-Spin Energy      =      -0.5006887362310102 [Eh]
	 Correlation Energy        =      -0.6340373875319971 [Eh]
	 Total Energy              =    -134.9197236572615282 [Eh]
	 SCS Total Energy          =    -134.9309623036403991 [Eh]
    Molecular point group: c1

    Geometry (in Angstrom), charge = 0, multiplicity = 1:

       Center              X                  Y                   Z               Mass
    ------------   -----------------  -----------------  -----------------  -----------------
         C           -1.270717926731     0.649760109034    -0.000713618070    12.000000000000
         C           -1.825343926731    -0.562462890966     0.001007381930    12.000000000000
         H           -1.884822926731     1.539642109034    -0.001948618070     1.007825032230
         H           -0.196371926731     0.775450109034    -0.001455618070     1.007825032230
         H           -1.216306926731    -1.455896890966     0.003735381930     1.007825032230
         H           -2.897791926731    -0.697214890966     0.001531381930     1.007825032230
         N            2.494273773269    -0.027479390966    -0.002294218070    14.003074004430
         H            3.385084773269     0.451778609034    -0.032005218070     1.007825032230
         H            2.516125773269    -0.593610390966     0.836291781930     1.007825032230
         H            2.502047773269    -0.677773390966    -0.777770218070     1.007825032230

  Charge       = 0
  Multiplicity = 1
  Basis Set: AUG-CC-PVQZ
    Blend: AUG-CC-PVQZ
  Basis Set: (AUG-CC-PVQZ AUX)
    Blend: AUG-CC-PVQZ-JKFIT

    Orbital Energies [Eh]
    ---------------------

    Doubly Occupied:

       1A    -15.544597     2A    -11.218431     3A    -11.215896
       4A     -1.148131     5A     -1.022539     6A     -0.781170
       7A     -0.634819     8A     -0.632032     9A     -0.630154
      10A     -0.575379    11A     -0.497550    12A     -0.436503
      13A     -0.365780

  @DF-RHF Final Energy:  -134.29402190061188

   => Energetics <=

    Nuclear Repulsion Energy =             65.7457209287621112
    One-Electron Energy =                -310.6735207063541679
    Two-Electron Energy =                 110.6337778769801616
    Total Energy =                       -134.2940219006118809

  Dipole Moment: [D]
     X:     1.5903      Y:    -0.9142      Z:     0.0427     Total:     1.8349

  Basis Set: (AUG-CC-PVQZ AUX)
    Blend: AUG-CC-PVQZ-RI
	 Reference Energy          =    -134.2940219006118809 [Eh]
	 Singles Energy            =      -0.0000000000000000 [Eh]
	 Same-Spin Energy          =      -0.1414852909436897 [Eh]
	 Opposite-Spin Energy      =      -0.5594408729279059 [Eh]
	 Correlation Energy        =      -0.7009261638715956 [Eh]
	 Total Energy              =    -134.9949480644834807 [Eh]

	 ================> DF-SCS-MP2 Energies <==================
	-----------------------------------------------------------
	 SCS Same-Spin Scale       =       0.3333333333333333 [-]
	 SCS Opposite-Spin Scale   =       1.2000000000000000 [-]
	 SCS Same-Spin Energy      =      -0.0471617636478966 [Eh]
	 SCS Opposite-Spin Energy  =      -0.6713290475134871 [Eh]
	 SCS Correlation Energy    =      -0.7184908111613837 [Eh]
	 SCS Total Energy          =    -135.0125127117732688 [Eh]
	-----------------------------------------------------------

*** Psi4 exiting successfully. Buy a developer a beer!
