                               Psi4 1.4a2.dev224

  ==> Input File <==

--------------------------------------------------------------------------
#Generated by lconvert.py for cbs job

memory 40 GB

molecule  {
0 1
  C       -1.2592080     0.6613710    -0.0012880
  C       -1.8138340    -0.5508520     0.0004330
  H       -1.8733130     1.5512530    -0.0025230
  H       -0.1848620     0.7870610    -0.0020300
  H       -1.2047970    -1.4442860     0.0031610
  H       -2.8862820    -0.6856040     0.0009570
--
0 1
  N        1.5142796     0.0014662    -0.0022586
  H        2.4050906     0.4807242    -0.0319696
  H        1.5361316    -0.5646648     0.8363274
  H        1.5220536    -0.6488278    -0.7777346
units angstrom
no_reorient
symmetry c1
}

set {
scf_type DF
mp2_type DF
e_convergence 7
reference rhf
}

energy('mp2/aug-cc-pv[tq]z', bsse_type='cp')
--------------------------------------------------------------------------

    Molecular point group: c1
  Charge       = 0
  Multiplicity = 1
  Basis Set: AUG-CC-PVTZ
    Blend: AUG-CC-PVTZ
  Basis Set: (AUG-CC-PVTZ AUX)
    Blend: AUG-CC-PVTZ-JKFIT
  @DF-RHF Final Energy:   -56.22019909075089
    Total Energy =                        -56.2201990907508886
  Basis Set: (AUG-CC-PVTZ AUX)
    Blend: AUG-CC-PVTZ-RI
	 Reference Energy          =     -56.2201990907508886 [Eh]
	 Singles Energy            =      -0.0000000000000000 [Eh]
	 Same-Spin Energy          =      -0.0560791380242078 [Eh]
	 Opposite-Spin Energy      =      -0.2010925395007744 [Eh]
	 Correlation Energy        =      -0.2571716775249822 [Eh]
	 Total Energy              =     -56.4773707682758683 [Eh]
	 SCS Total Energy          =     -56.4802031841598904 [Eh]
    Molecular point group: c1
  Basis Set: AUG-CC-PVQZ
    Blend: AUG-CC-PVQZ
  Basis Set: (AUG-CC-PVQZ AUX)
    Blend: AUG-CC-PVQZ-JKFIT
  @DF-RHF Final Energy:   -56.22384949819742
    Total Energy =                        -56.2238494981974100
  Basis Set: (AUG-CC-PVQZ AUX)
  @DF-RHF Final Energy:   -56.22026273646689
    Total Energy =                        -56.2202627364668857
  @DF-RHF Final Energy:   -56.22387359018210
    Total Energy =                        -56.2238735901821016
  @DF-RHF Final Energy:   -78.06467884918777
    Total Energy =                        -78.0646788491877714
  @DF-RHF Final Energy:   -78.06936464387205
    Total Energy =                        -78.0693646438720492
  @DF-RHF Final Energy:   -78.06464256459442
    Total Energy =                        -78.0646425645944220
  @DF-RHF Final Energy:   -78.06935312185738
    Total Energy =                        -78.0693531218573753
  Multiplicity = 1
  @DF-RHF Final Energy:  -134.27153864818783
    Total Energy =                       -134.2715386481878568
	 Singles Energy            =      -0.0000000000000000 [Eh]
	 Same-Spin Energy          =      -0.1361654212526869 [Eh]
	 Opposite-Spin Energy      =      -0.5039037599697476 [Eh]
	 Correlation Energy        =      -0.6400691812224344 [Eh]
	 Total Energy              =    -134.9116078294102579 [Eh]
	 SCS Total Energy          =    -134.9216116339024154 [Eh]
    Molecular point group: c1

    Geometry (in Angstrom), charge = 0, multiplicity = 1:

       Center              X                  Y                   Z               Mass
    ------------   -----------------  -----------------  -----------------  -----------------
         C           -0.896046398216     0.643209638345    -0.000944126076    12.000000000000
         C           -1.450672398216    -0.569013361655     0.000776873924    12.000000000000
         H           -1.510151398216     1.533091638345    -0.002179126076     1.007825032230
         H            0.178299601784     0.768899638345    -0.001686126076     1.007825032230
         H           -0.841635398216    -1.462447361655     0.003504873924     1.007825032230
         H           -2.523120398216    -0.703765361655     0.001300873924     1.007825032230
         N            1.877441201784    -0.016695161655    -0.001914726076    14.003074004430
         H            2.768252201784     0.462562838345    -0.031625726076     1.007825032230
         H            1.899293201784    -0.582826161655     0.836671273924     1.007825032230
         H            1.885215201784    -0.666989161655    -0.777390726076     1.007825032230

  Charge       = 0
  Multiplicity = 1
  Basis Set: AUG-CC-PVQZ
    Blend: AUG-CC-PVQZ
  Basis Set: (AUG-CC-PVQZ AUX)
    Blend: AUG-CC-PVQZ-JKFIT

    Orbital Energies [Eh]
    ---------------------

    Doubly Occupied:

       1A    -15.546439     2A    -11.207307     3A    -11.195566
       4A     -1.157454     5A     -1.010885     6A     -0.771170
       7A     -0.645499     8A     -0.639306     9A     -0.621098
      10A     -0.566703    11A     -0.504840    12A     -0.417788
      13A     -0.354548

  @DF-RHF Final Energy:  -134.27984941895360

   => Energetics <=

    Nuclear Repulsion Energy =             72.0621308224764761
    One-Electron Energy =                -323.4067559820119868
    Two-Electron Energy =                 117.0647757405818936
    Total Energy =                       -134.2798494189536029

  Dipole Moment: [D]
     X:     2.0662      Y:    -0.7595      Z:     0.0376     Total:     2.2017

  Basis Set: (AUG-CC-PVQZ AUX)
    Blend: AUG-CC-PVQZ-RI
	 Reference Energy          =    -134.2798494189536029 [Eh]
	 Singles Energy            =      -0.0000000000000000 [Eh]
	 Same-Spin Energy          =      -0.1443330769201976 [Eh]
	 Opposite-Spin Energy      =      -0.5623965223512034 [Eh]
	 Correlation Energy        =      -0.7067295992714010 [Eh]
	 Total Energy              =    -134.9865790182250009 [Eh]

	 ================> DF-SCS-MP2 Energies <==================
	-----------------------------------------------------------
	 SCS Same-Spin Scale       =       0.3333333333333333 [-]
	 SCS Opposite-Spin Scale   =       1.2000000000000000 [-]
	 SCS Same-Spin Energy      =      -0.0481110256400659 [Eh]
	 SCS Opposite-Spin Energy  =      -0.6748758268214441 [Eh]
	 SCS Correlation Energy    =      -0.7229868524615100 [Eh]
	 SCS Total Energy          =    -135.0028362714151058 [Eh]
	-----------------------------------------------------------

*** Psi4 exiting successfully. Buy a developer a beer!
