 Gaussian 16, Revision C.01,
 Gaussian 16:  ES64L-G16RevC.01  3-Jul-2019

 ------------------------------------------------
 #p wB97XD/aug-cc-pvtz NoSymm MaxDisk=100GB polar
 ------------------------------------------------

 -----
 polar
 -----
 Symbolic Z-matrix:
 Charge =  0 Multiplicity = 1

                          Input orientation:
 ---------------------------------------------------------------------
 Center     Atomic      Atomic             Coordinates (Angstroms)
 Number     Number       Type             X           Y           Z
 ---------------------------------------------------------------------
      1          8           0        0.000000    0.119325    0.000000
      2          1           0        0.763133   -0.477420    0.000000
      3          1           0       -0.763133   -0.477177    0.000000
 ---------------------------------------------------------------------

 SCF Done:  E(RwB97XD) =  -76.4396786301     A.U. after    9 cycles

 Alpha  occ. eigenvalues --  -19.26049  -1.11505  -0.61932  -0.48370  -0.40633
 Alpha virt. eigenvalues --    0.02895   0.05079   0.12622   0.15886   0.16499
 Alpha virt. eigenvalues --    0.17416   0.21479   0.24005   0.26210   0.28977
 Alpha virt. eigenvalues --    0.29566   0.36715   0.39083   0.41200   0.54949

 Mulliken charges:
               1
     1  O   -0.381868
     2  H    0.191030
     3  H    0.190838
 Sum of Mulliken charges =  -0.00000

 Dipole moment (field-independent basis, Debye):
    X=             -0.0001    Y=             -1.8815    Z=              0.0000  Tot=              1.8815
 Quadrupole moment (field-independent basis, Debye-Ang):
   XX=             -4.3830   YY=             -6.3674   ZZ=             -7.7200
   XY=             -0.0004   XZ=              0.0000   YZ=             -0.0000

  Exact polarizability:      10.213      -0.001       9.748      -0.000       0.000       9.397
 Approx polarizability:       9.993      -0.001       9.304      -0.000       0.000       7.837

 Normal termination of Gaussian 16 at Wed Jan  8 10:34:44 2020.
