 Gaussian 16, Revision C.01,
 Gaussian 16:  ES64L-G16RevC.01  3-Jul-2019

 ------------------------------------------------
 #p wB97XD/aug-cc-pvtz NoSymm MaxDisk=100GB polar
 ------------------------------------------------

 -----
 polar
 -----
 Symbolic Z-matrix:
 Charge =  0 Multiplicity = 1

                          Input orientation:
 ---------------------------------------------------------------------
 Center     Atomic      Atomic             Coordinates (Angstroms)
 Number     Number       Type             X           Y           Z
 ---------------------------------------------------------------------
      1          6           0        0.000236    0.000004    0.000002
      2          1           0       -0.355560   -0.445789    0.929297
      3          1           0       -0.365989    1.024331   -0.074532
      4          1           0       -0.370089   -0.580120   -0.845739
      5          1           0        1.090224    0.001553   -0.009040
 ---------------------------------------------------------------------

 SCF Done:  E(RwB97XD) =  -40.5200546439     A.U. after    9 cycles

 Alpha  occ. eigenvalues --  -10.26473  -0.79113  -0.47634  -0.47610  -0.47609
 Alpha virt. eigenvalues --    0.03296   0.05355   0.05357   0.05357   0.12616
 Alpha virt. eigenvalues --    0.12616   0.12619   0.13267   0.20486   0.20486
 Alpha virt. eigenvalues --    0.20493   0.21690   0.21690   0.31561   0.31562

 Mulliken charges:
               1
     1  C   -1.076159
     2  H    0.269020
     3  H    0.268996
     4  H    0.269044
     5  H    0.269099
 Sum of Mulliken charges =   0.00000

 Dipole moment (field-independent basis, Debye):
    X=             -0.0004    Y=             -0.0000    Z=             -0.0000  Tot=              0.0004
 Quadrupole moment (field-independent basis, Debye-Ang):
   XX=             -8.3666   YY=             -8.3702   ZZ=             -8.3702
   XY=             -0.0000   XZ=             -0.0000   YZ=             -0.0000

  Exact polarizability:      16.885      -0.001      16.893       0.001       0.002      16.892
 Approx polarizability:      16.081       0.000      16.085       0.000       0.000      16.085

 Normal termination of Gaussian 16 at Wed Jan  8 10:37:05 2020.
