 Gaussian 16, Revision C.01,
 Gaussian 16:  ES64L-G16RevC.01  3-Jul-2019

 ------------------------------------------------
 #p wB97XD/aug-cc-pvtz NoSymm MaxDisk=100GB polar
 ------------------------------------------------

 -----
 polar
 -----
 Symbolic Z-matrix:
 Charge =  0 Multiplicity = 1

                          Input orientation:
 ---------------------------------------------------------------------
 Center     Atomic      Atomic             Coordinates (Angstroms)
 Number     Number       Type             X           Y           Z
 ---------------------------------------------------------------------
      1          7           0        0.000000   -0.000001   -0.116509
      2          1           0       -0.815284   -0.467745    0.271855
      3          1           0        0.812738   -0.472154    0.271855
      4          1           0        0.002546    0.939908    0.271851
 ---------------------------------------------------------------------

 SCF Done:  E(RwB97XD) =  -56.5666024265     A.U. after   10 cycles

 Alpha  occ. eigenvalues --  -14.41539  -0.95208  -0.54726  -0.54726  -0.35726
 Alpha virt. eigenvalues --    0.03032   0.05200   0.05200   0.11759   0.13951
 Alpha virt. eigenvalues --    0.16229   0.16229   0.20149   0.20149   0.23038
 Alpha virt. eigenvalues --    0.23038   0.24339   0.33497   0.35695   0.36504

 Mulliken charges:
               1
     1  N   -0.477132
     2  H    0.159054
     3  H    0.159055
     4  H    0.159023
 Sum of Mulliken charges =  -0.00000

 Dipole moment (field-independent basis, Debye):
    X=              0.0000    Y=              0.0000    Z=              1.5635  Tot=              1.5635
 Quadrupole moment (field-independent basis, Debye-Ang):
   XX=             -6.2991   YY=             -6.2993   ZZ=             -9.3593
   XY=              0.0000   XZ=              0.0000   YZ=              0.0000

  Exact polarizability:      13.821       0.000      13.820      -0.000      -0.001      15.504
 Approx polarizability:      13.340       0.000      13.340      -0.000      -0.000      13.220

 Normal termination of Gaussian 16 at Wed Jan  8 10:39:57 2020.
