 Gaussian 16, Revision C.01,
 Gaussian 16:  ES64L-G16RevC.01  3-Jul-2019

 ------------------------------------------------
 #p wB97XD/aug-cc-pvtz NoSymm MaxDisk=100GB polar
 ------------------------------------------------

 -----
 polar
 -----
 Symbolic Z-matrix:
 Charge =  0 Multiplicity = 1

                          Input orientation:
 ---------------------------------------------------------------------
 Center     Atomic      Atomic             Coordinates (Angstroms)
 Number     Number       Type             X           Y           Z
 ---------------------------------------------------------------------
      1          7           0        0.751591    0.000002   -0.126085
      2          1           0        1.139962    0.812464    0.348126
      3          1           0        1.139986   -0.812458    0.348117
      4          6           0       -0.706895    0.000000    0.017683
      5          1           0       -1.110587   -0.881007   -0.486514
      6          1           0       -1.078527   -0.000056    1.053200
      7          1           0       -1.110601    0.881047   -0.486436
 ---------------------------------------------------------------------

 SCF Done:  E(RwB97XD) =  -95.8671581105     A.U. after   11 cycles

 Alpha  occ. eigenvalues --  -14.41672 -10.29934  -0.97515  -0.75449  -0.57667
 Alpha  occ. eigenvalues --   -0.52632  -0.48582  -0.45019  -0.32643
 Alpha virt. eigenvalues --    0.03094   0.04522   0.04662   0.05220   0.07209
 Alpha virt. eigenvalues --    0.09842   0.12575   0.12712   0.13344   0.14287
 Alpha virt. eigenvalues --    0.14866   0.16229   0.18607   0.20603   0.22473

 Mulliken charges:
               1
     1  N   -0.404147
     2  H    0.102074
     3  H    0.102075
     4  C   -0.673300
     5  H    0.294049
     6  H    0.285198
     7  H    0.294051
 Sum of Mulliken charges =  -0.00000

 Dipole moment (field-independent basis, Debye):
    X=             -0.2876    Y=             -0.0000    Z=              1.3509  Tot=              1.3812
 Quadrupole moment (field-independent basis, Debye-Ang):
   XX=            -14.0962   YY=            -12.6187   ZZ=            -15.4189
   XY=             -0.0001   XZ=              2.0723   YZ=              0.0000

  Exact polarizability:      28.383       0.000      24.387      -0.434      -0.000      25.054
 Approx polarizability:      26.096      -0.000      25.219       0.065      -0.000      24.493

 Normal termination of Gaussian 16 at Wed Jan  8 10:36:27 2020.
