 Gaussian 16, Revision C.01,
 Gaussian 16:  ES64L-G16RevC.01  3-Jul-2019

 ------------------------------------------------
 #p wB97XD/aug-cc-pvtz NoSymm MaxDisk=100GB polar
 ------------------------------------------------

 -----
 polar
 -----
 Symbolic Z-matrix:
 Charge =  0 Multiplicity = 1

                          Input orientation:
 ---------------------------------------------------------------------
 Center     Atomic      Atomic             Coordinates (Angstroms)
 Number     Number       Type             X           Y           Z
 ---------------------------------------------------------------------
      1          8           0       -0.751011    0.122810    0.000005
      2          1           0       -1.131864   -0.769610    0.000054
      3          6           0        0.666749   -0.019466    0.000012
      4          1           0        1.075927    0.990856   -0.003922
      5          1           0        1.031981   -0.540122    0.893914
      6          1           0        1.031548   -0.546809   -0.890159
 ---------------------------------------------------------------------

 SCF Done:  E(RwB97XD) =  -115.734828574     A.U. after   11 cycles

 Alpha  occ. eigenvalues --  -19.25620 -10.32674  -1.12075  -0.77981  -0.59702
 Alpha  occ. eigenvalues --   -0.52852  -0.51271  -0.42706  -0.36526
 Alpha virt. eigenvalues --    0.03004   0.04487   0.04986   0.05559   0.09790
 Alpha virt. eigenvalues --    0.11485   0.13097   0.13255   0.15664   0.16966
 Alpha virt. eigenvalues --    0.18117   0.19092   0.19754   0.23356   0.25414

 Mulliken charges:
               1
     1  O   -0.458366
     2  H    0.171542
     3  C   -0.543333
     4  H    0.290136
     5  H    0.269799
     6  H    0.270222
 Sum of Mulliken charges =   0.00000

 Dipole moment (field-independent basis, Debye):
    X=              0.8492    Y=             -1.4637    Z=             -0.0003  Tot=              1.6922
 Quadrupole moment (field-independent basis, Debye-Ang):
   XX=            -13.0583   YY=            -12.1387   ZZ=            -13.7977
   XY=              2.2111   XZ=             -0.0009   YZ=             -0.0003

  Exact polarizability:      23.455       0.327      20.677       0.001       0.000      20.091
 Approx polarizability:      22.068       0.398      21.105       0.001       0.000      19.383

 Normal termination of Gaussian 16 at Wed Jan  8 05:15:22 2020.
