 Gaussian 16, Revision C.01,
 Gaussian 16:  ES64L-G16RevC.01  3-Jul-2019

 ------------------------------------------------
 #p wB97XD/aug-cc-pvtz NoSymm MaxDisk=100GB polar
 ------------------------------------------------

 -----
 polar
 -----
 Symbolic Z-matrix:
 Charge =  0 Multiplicity = 1

                          Input orientation:
 ---------------------------------------------------------------------
 Center     Atomic      Atomic             Coordinates (Angstroms)
 Number     Number       Type             X           Y           Z
 ---------------------------------------------------------------------
      1          6           0        1.811514   -0.564983   -0.000004
      2          1           0        1.715991   -1.653613    0.000272
      3          1           0        2.377421   -0.254859    0.881097
      4          1           0        2.377045   -0.255297   -0.881506
      5          6           0        0.482172    0.162770    0.000126
      6          8           0        0.419366    1.393954   -0.000028
      7          7           0       -0.623418   -0.640862   -0.000119
      8          1           0       -0.498621   -1.643006    0.000310
      9          6           0       -1.968737   -0.100251    0.000018
     10          1           0       -1.873400    0.985013   -0.001694
     11          1           0       -2.520120   -0.415937   -0.890393
     12          1           0       -2.519011   -0.413127    0.892126
 ---------------------------------------------------------------------

 SCF Done:  E(RwB97XD) =  -248.541675214     A.U. after   12 cycles

 Alpha  occ. eigenvalues --  -19.21008 -14.46726 -10.39070 -10.31592 -10.29237
 Alpha  occ. eigenvalues --   -1.12957  -1.02271  -0.85362  -0.78586  -0.67898
 Alpha  occ. eigenvalues --   -0.59627  -0.55822  -0.55155  -0.51392  -0.49233
 Alpha  occ. eigenvalues --   -0.48211  -0.47261  -0.43880  -0.33957  -0.33799
 Alpha virt. eigenvalues --    0.02427   0.03768   0.04442   0.04653   0.05849
 Alpha virt. eigenvalues --    0.06108   0.06833   0.09465   0.09654   0.10480
 Alpha virt. eigenvalues --    0.11257   0.11562   0.11609   0.12435   0.12498

 Mulliken charges:
               1
     1  C   -0.675932
     2  H    0.275364
     3  H    0.248165
     4  H    0.248123
     5  C    0.555831
     6  O   -0.802507
     7  N   -0.083801
     8  H    0.037748
     9  C   -0.746937
    10  H    0.388879
    11  H    0.277595
    12  H    0.277471
 Sum of Mulliken charges =  -0.00000

 Dipole moment (field-independent basis, Debye):
    X=             -0.7356    Y=             -3.8550    Z=              0.0006  Tot=              3.9246
 Quadrupole moment (field-independent basis, Debye-Ang):
   XX=            -26.8970   YY=            -33.5086   ZZ=            -31.0843
   XY=             -1.2588   XZ=              0.0001   YZ=             -0.0011

  Exact polarizability:      62.071       1.761      52.505      -0.001       0.001      40.006
 Approx polarizability:      55.879       3.275      60.275      -0.000      -0.000      44.238

 Normal termination of Gaussian 16 at Wed Jan  8 10:43:23 2020.
