 Gaussian 16, Revision C.01,
 Gaussian 16:  ES64L-G16RevC.01  3-Jul-2019

 ------------------------------------------------
 #p wB97XD/aug-cc-pvtz NoSymm MaxDisk=100GB polar
 ------------------------------------------------

 -----
 polar
 -----
 Symbolic Z-matrix:
 Charge =  0 Multiplicity = 1

                          Input orientation:
 ---------------------------------------------------------------------
 Center     Atomic      Atomic             Coordinates (Angstroms)
 Number     Number       Type             X           Y           Z
 ---------------------------------------------------------------------
      1          6           0        0.090111    0.125661   -0.000600
      2          8           0        0.657453    1.203492    0.000110
      3          8           0        0.764544   -1.058516   -0.000076
      4          1           0        1.713731   -0.817184    0.001303
      5          6           0       -1.394518   -0.100311   -0.000098
      6          1           0       -1.904056    0.861577   -0.014895
      7          1           0       -1.678579   -0.692015   -0.873189
      8          1           0       -1.680631   -0.664284    0.890691
 ---------------------------------------------------------------------

 SCF Done:  E(RwB97XD) =  -229.106643641     A.U. after   12 cycles

 Alpha  occ. eigenvalues --  -19.30914 -19.24915 -10.43308 -10.30441  -1.21320
 Alpha  occ. eigenvalues --   -1.12150  -0.86547  -0.70699  -0.58971  -0.57596
 Alpha  occ. eigenvalues --   -0.56626  -0.50252  -0.49079  -0.48444  -0.41547
 Alpha  occ. eigenvalues --   -0.37207
 Alpha virt. eigenvalues --    0.02875   0.04125   0.04653   0.05392   0.07071
 Alpha virt. eigenvalues --    0.08472   0.10157   0.10368   0.11218   0.12635
 Alpha virt. eigenvalues --    0.12789   0.12963   0.16087   0.16868   0.17391

 Mulliken charges:
               1
     1  C    0.528122
     2  O   -0.649313
     3  O   -0.345437
     4  H    0.203285
     5  C   -0.529201
     6  H    0.265664
     7  H    0.263755
     8  H    0.263126
 Sum of Mulliken charges =  -0.00000

 Dipole moment (field-independent basis, Debye):
    X=             -0.8720    Y=             -1.6272    Z=              0.0031  Tot=              1.8462
 Quadrupole moment (field-independent basis, Debye-Ang):
   XX=            -19.0875   YY=            -28.4626   ZZ=            -23.1555
   XY=             -2.3651   XZ=              0.0008   YZ=             -0.0033

  Exact polarizability:      38.793       0.885      37.579      -0.007      -0.003      26.768
 Approx polarizability:      36.991       2.159      41.987      -0.009      -0.002      29.062

 Normal termination of Gaussian 16 at Wed Jan  8 10:39:30 2020.
