 Gaussian 16, Revision C.01,
 Gaussian 16:  ES64L-G16RevC.01  3-Jul-2019

 ------------------------------------------------
 #p wB97XD/aug-cc-pvtz NoSymm MaxDisk=100GB polar
 ------------------------------------------------

 -----
 polar
 -----
 Symbolic Z-matrix:
 Charge =  0 Multiplicity = 1

                          Input orientation:
 ---------------------------------------------------------------------
 Center     Atomic      Atomic             Coordinates (Angstroms)
 Number     Number       Type             X           Y           Z
 ---------------------------------------------------------------------
      1          6           0        0.074775    0.143939   -0.000642
      2          8           0        0.359949    1.339646    0.000102
      3          7           0        1.029558   -0.834278   -0.000247
      4          1           0        1.999487   -0.550499    0.001950
      5          1           0        0.809310   -1.817447    0.000431
      6          6           0       -1.360551   -0.343458    0.000027
      7          1           0       -1.858625    0.045680    0.890552
      8          1           0       -1.453570   -1.431654   -0.016490
      9          1           0       -1.868443    0.073812   -0.871841
 ---------------------------------------------------------------------

 SCF Done:  E(RwB97XD) =  -209.233776112     A.U. after   12 cycles

 Alpha  occ. eigenvalues --  -19.21477 -14.46440 -10.39780 -10.29518  -1.13320
 Alpha  occ. eigenvalues --   -1.00925  -0.84252  -0.68800  -0.63428  -0.56434
 Alpha  occ. eigenvalues --   -0.53924  -0.49275  -0.48854  -0.45573  -0.35957
 Alpha  occ. eigenvalues --   -0.34147
 Alpha virt. eigenvalues --    0.02322   0.03919   0.04777   0.05129   0.06397
 Alpha virt. eigenvalues --    0.08788   0.09002   0.10438   0.10887   0.11805
 Alpha virt. eigenvalues --    0.12075   0.12967   0.13976   0.14315   0.15544

 Mulliken charges:
               1
     1  C    0.679792
     2  O   -0.751023
     3  N   -0.204997
     4  H    0.090032
     5  H    0.066008
     6  C   -0.633558
     7  H    0.240075
     8  H    0.273219
     9  H    0.240452
 Sum of Mulliken charges =  -0.00000

 Dipole moment (field-independent basis, Debye):
    X=             -0.1975    Y=             -4.0028    Z=              0.0049  Tot=              4.0077
 Quadrupole moment (field-independent basis, Debye-Ang):
   XX=            -20.3184   YY=            -26.4006   ZZ=            -25.0841
   XY=             -2.3830   XZ=              0.0063   YZ=             -0.0064

  Exact polarizability:      43.306      -1.311      44.670      -0.009      -0.001      30.545
 Approx polarizability:      40.787      -1.011      49.189      -0.009       0.000      32.865

 1\1\GINC-NODE37\SP\RwB97XD\Aug-CC-pVTZ\C2H5N1O1\LIUCHW\08-Jan-2020\0\\
 #p wB97XD/aug-cc-pvtz NoSymm MaxDisk=100GB polar\\polar\\0,1\C,0,0.074
 775,0.143939,-0.000642\O,0,0.359949,1.339646,0.000102\N,0,1.029558,-0.
 834278,-0.000247\H,0,1.999487,-0.550499,0.00195\H,0,0.80931,-1.817447,
 0.000431\C,0,-1.360551,-0.343458,0.000027\H,0,-1.858625,0.04568,0.8905
 52\H,0,-1.45357,-1.431654,-0.01649\H,0,-1.868443,0.073812,-0.871841\\V
 ersion=ES64L-G16RevC.01\HF=-209.2337761\RMSD=3.162e-09\Dipole=-0.07770
 79,-1.5748286,0.0019452\Polar=43.3063897,-1.3114543,44.6697724,-0.0087

 Normal termination of Gaussian 16 at Wed Jan  8 10:41:59 2020.
