 Gaussian 16, Revision C.01,
 Gaussian 16:  ES64L-G16RevC.01  3-Jul-2019

 ------------------------------------------------
 #p wB97XD/aug-cc-pvtz NoSymm MaxDisk=100GB polar
 ------------------------------------------------

 -----
 polar
 -----
 Symbolic Z-matrix:
 Charge =  0 Multiplicity = 1

                          Input orientation:
 ---------------------------------------------------------------------
 Center     Atomic      Atomic             Coordinates (Angstroms)
 Number     Number       Type             X           Y           Z
 ---------------------------------------------------------------------
      1          7           0       -0.033715   -0.978382   -0.000103
      2          1           0       -0.046563   -1.995299    0.000023
      3          6           0       -1.292406   -0.347839   -0.000280
      4          8           0       -2.323793   -1.013293    0.000183
      5          6           0       -1.206228    1.106797    0.000000
      6          1           0       -2.126118    1.676383    0.000184
      7          6           0        0.003067    1.710554    0.000026
      8          1           0        0.122962    2.789169    0.000153
      9          7           0        1.174253    0.986366   -0.000012
     10          1           0        2.076621    1.446808    0.000074
     11          6           0        1.226122   -0.402152   -0.000088
     12          8           0        2.274542   -1.033845    0.000120
 ---------------------------------------------------------------------

 SCF Done:  E(RwB97XD) =  -414.840525029     A.U. after   14 cycles

 Alpha  occ. eigenvalues --  -19.24509 -19.23822 -14.52004 -14.50260 -10.45548
 Alpha  occ. eigenvalues --  -10.42125 -10.38513 -10.31740  -1.18951  -1.15235
 Alpha  occ. eigenvalues --   -1.09239  -1.03831  -0.91096  -0.79798  -0.77031
 Alpha  occ. eigenvalues --   -0.70024  -0.66029  -0.61899  -0.58452  -0.57199
 Alpha  occ. eigenvalues --   -0.55099  -0.51976  -0.51462  -0.50411  -0.46656
 Alpha  occ. eigenvalues --   -0.39451  -0.38059  -0.36258  -0.34120
 Alpha virt. eigenvalues --    0.00845   0.01669   0.03665   0.04227   0.05324
 Alpha virt. eigenvalues --    0.06051   0.06390   0.08247   0.08565   0.08963
 Alpha virt. eigenvalues --    0.09969   0.10820   0.11337   0.11439   0.11906

 Mulliken charges:
               1
     1  N    0.228418
     2  H    0.054911
     3  C    0.582621
     4  O   -0.794814
     5  C   -0.271505
     6  H    0.302699
     7  C   -0.229514
     8  H    0.614409
     9  N    0.019655
    10  H    0.007357
    11  C    0.219560
    12  O   -0.733797
 Sum of Mulliken charges =  -0.00000

 Dipole moment (field-independent basis, Debye):
    X=              1.3176    Y=              4.4177    Z=             -0.0006  Tot=              4.6100
 Quadrupole moment (field-independent basis, Debye-Ang):
   XX=            -58.1716   YY=            -37.9958   ZZ=            -46.1831
   XY=              2.3215   XZ=              0.0005   YZ=              0.0015

  Exact polarizability:      93.630       2.443      75.084      -0.000      -0.000      41.504
 Approx polarizability:     104.966       5.585      81.409      -0.001      -0.002      48.803

 Normal termination of Gaussian 16 at Wed Jan  8 10:55:18 2020.
