 Gaussian 16, Revision C.01,
 Gaussian 16:  ES64L-G16RevC.01  3-Jul-2019

 ------------------------------------------------
 #p wB97XD/aug-cc-pvtz NoSymm MaxDisk=100GB polar
 ------------------------------------------------

 -----
 polar
 -----
 Symbolic Z-matrix:
 Charge =  0 Multiplicity = 1

                          Input orientation:
 ---------------------------------------------------------------------
 Center     Atomic      Atomic             Coordinates (Angstroms)
 Number     Number       Type             X           Y           Z
 ---------------------------------------------------------------------
      1          7           0        0.000007    1.426363   -0.000027
      2          6           0        1.145408    0.721113   -0.000027
      3          1           0        2.062070    1.308530    0.000290
      4          6           0        1.197709   -0.673746   -0.000020
      5          1           0        2.156867   -1.184232    0.000154
      6          6           0       -0.000007   -1.387784   -0.000041
      7          1           0       -0.000013   -2.475011    0.000139
      8          6           0       -1.197716   -0.673735   -0.000018
      9          1           0       -2.156877   -1.184214    0.000164
     10          6           0       -1.145401    0.721125   -0.000038
     11          1           0       -2.062058    1.308550    0.000307
 ---------------------------------------------------------------------

 SCF Done:  E(RwB97XD) =  -248.278859256     A.U. after   11 cycles

 Alpha  occ. eigenvalues --  -14.43987 -10.32886 -10.32886 -10.31625 -10.30509
 Alpha  occ. eigenvalues --  -10.30508  -1.04423  -0.90903  -0.86467  -0.72717
 Alpha  occ. eigenvalues --   -0.72700  -0.62404  -0.57114  -0.56266  -0.51806
 Alpha  occ. eigenvalues --   -0.49378  -0.49259  -0.44957  -0.37211  -0.34610
 Alpha  occ. eigenvalues --   -0.34570
 Alpha virt. eigenvalues --    0.02818   0.02879   0.03603   0.04057   0.04361
 Alpha virt. eigenvalues --    0.05142   0.05593   0.08356   0.10094   0.10657
 Alpha virt. eigenvalues --    0.10915   0.11024   0.11166   0.11335   0.11548

 Mulliken charges:
               1
     1  N   -0.402594
     2  C   -0.493301
     3  H    0.549874
     4  C   -0.158888
     5  H    0.300649
     6  C   -0.596445
     7  H    0.602374
     8  C   -0.158888
     9  H    0.300648
    10  C   -0.493302
    11  H    0.549873
 Sum of Mulliken charges =  -0.00000

 Dipole moment (field-independent basis, Debye):
    X=             -0.0000    Y=             -2.3104    Z=              0.0007  Tot=              2.3104
 Quadrupole moment (field-independent basis, Debye-Ang):
   XX=            -29.1092   YY=            -36.3214   ZZ=            -37.9006
   XY=             -0.0000   XZ=             -0.0001   YZ=             -0.0001

  Exact polarizability:      77.405      -0.000      73.245       0.000       0.000      40.994
 Approx polarizability:      88.659      -0.000      85.323       0.000      -0.000      47.243

 Normal termination of Gaussian 16 at Wed Jan  8 10:47:48 2020.
