 Gaussian 16, Revision C.01,
 Gaussian 16:  ES64L-G16RevC.01  3-Jul-2019

 ------------------------------------------------
 #p wB97XD/aug-cc-pvtz NoSymm MaxDisk=100GB polar
 ------------------------------------------------

 -----
 polar
 -----
 Symbolic Z-matrix:
 Charge =  0 Multiplicity = 1

                          Input orientation:
 ---------------------------------------------------------------------
 Center     Atomic      Atomic             Coordinates (Angstroms)
 Number     Number       Type             X           Y           Z
 ---------------------------------------------------------------------
      1          6           0       -0.757954   -1.173230    0.000056
      2          1           0       -1.348058   -2.086637   -0.000082
      3          6           0       -1.395053    0.069782   -0.000088
      4          1           0       -2.481135    0.124110    0.000441
      5          6           0       -0.637074    1.243017    0.000051
      6          1           0       -1.133086    2.210753   -0.000141
      7          6           0        0.757948    1.173241   -0.000090
      8          1           0        1.348072    2.086627    0.000052
      9          6           0        1.395043   -0.069794    0.000092
     10          1           0        2.481130   -0.124091    0.000191
     11          6           0        0.637090   -1.243017   -0.000098
     12          1           0        1.133078   -2.210757    0.000005
 ---------------------------------------------------------------------

 SCF Done:  E(RwB97XD) =  -232.243192365     A.U. after   10 cycles

 Alpha  occ. eigenvalues --  -10.29438 -10.29411 -10.29411 -10.29346 -10.29346
 Alpha  occ. eigenvalues --  -10.29321  -0.95638  -0.84609  -0.84609  -0.69743
 Alpha  occ. eigenvalues --   -0.69742  -0.61538  -0.55067  -0.53413  -0.50753
 Alpha  occ. eigenvalues --   -0.50752  -0.45926  -0.42651  -0.42650  -0.33234
 Alpha  occ. eigenvalues --   -0.33234
 Alpha virt. eigenvalues --    0.03188   0.03786   0.03786   0.05101   0.05101
 Alpha virt. eigenvalues --    0.05211   0.05211   0.06708   0.09822   0.11083
 Alpha virt. eigenvalues --    0.11258   0.11258   0.11701   0.11701   0.12714

 Mulliken charges:
               1
     1  C   -0.500080
     2  H    0.500203
     3  C   -0.500437
     4  H    0.500419
     5  C   -0.500674
     6  H    0.500597
     7  C   -0.500146
     8  H    0.500205
     9  C   -0.500360
    10  H    0.500420
    11  C   -0.500742
    12  H    0.500597
 Sum of Mulliken charges =  -0.00000

 Dipole moment (field-independent basis, Debye):
    X=              0.0000    Y=              0.0000    Z=              0.0004  Tot=              0.0004
 Quadrupole moment (field-independent basis, Debye-Ang):
   XX=            -31.7051   YY=            -31.7058   ZZ=            -39.8375
   XY=              0.0001   XZ=             -0.0003   YZ=             -0.0000

  Exact polarizability:      81.391       0.007      81.414       0.000       0.000      45.015
 Approx polarizability:      92.981       0.000      92.979       0.000       0.000      51.468

 Normal termination of Gaussian 16 at Wed Jan  8 05:22:58 2020.
