 Gaussian 16, Revision C.01,
 Gaussian 16:  ES64L-G16RevC.01  3-Jul-2019

 ------------------------------------------------
 #p wB97XD/aug-cc-pvtz NoSymm MaxDisk=100GB polar
 ------------------------------------------------

 -----
 polar
 -----
 Symbolic Z-matrix:
 Charge =  0 Multiplicity = 1

                          Input orientation:
 ---------------------------------------------------------------------
 Center     Atomic      Atomic             Coordinates (Angstroms)
 Number     Number       Type             X           Y           Z
 ---------------------------------------------------------------------
      1          6           0        0.668315   -0.000033   -0.000122
      2          1           0        1.238313   -0.923502    0.000413
      3          1           0        1.238138    0.923561    0.000357
      4          6           0       -0.668407   -0.000026   -0.000149
      5          1           0       -1.238213   -0.923544    0.000400
      6          1           0       -1.237689    0.923841    0.000457
 ---------------------------------------------------------------------

 SCF Done:  E(RwB97XD) =  -78.5887238181     A.U. after   10 cycles

 Alpha  occ. eigenvalues --  -10.28899 -10.28806  -0.86101  -0.67548  -0.55875
 Alpha  occ. eigenvalues --   -0.50714  -0.44001  -0.35802
 Alpha virt. eigenvalues --    0.03507   0.04341   0.04524   0.06055   0.06318
 Alpha virt. eigenvalues --    0.09733   0.10816   0.12039   0.13339   0.13760
 Alpha virt. eigenvalues --    0.14158   0.17390   0.18084   0.18258   0.21939

 Mulliken charges:
               1
     1  C   -0.740322
     2  H    0.370236
     3  H    0.370171
     4  C   -0.740203
     5  H    0.370255
     6  H    0.369864
 Sum of Mulliken charges =  -0.00000

 Dipole moment (field-independent basis, Debye):
    X=              0.0002    Y=              0.0000    Z=              0.0016  Tot=              0.0016
 Quadrupole moment (field-independent basis, Debye-Ang):
   XX=            -12.1473   YY=            -12.2917   ZZ=            -15.7003
   XY=              0.0004   XZ=             -0.0001   YZ=              0.0000

  Exact polarizability:      35.968      -0.000      25.360       0.000       0.000      22.880
 Approx polarizability:      37.049      -0.000      25.123       0.001       0.000      22.239

 Normal termination of Gaussian 16 at Wed Mar 23 18:23:42 2011.
