 Gaussian 16, Revision C.01,
 Gaussian 16:  ES64L-G16RevC.01  3-Jul-2019

 ------------------------------------------------
 #p wB97XD/aug-cc-pvtz NoSymm MaxDisk=100GB polar
 ------------------------------------------------

 -----
 polar
 -----
 Symbolic Z-matrix:
 Charge =  0 Multiplicity = 1

                          Input orientation:
 ---------------------------------------------------------------------
 Center     Atomic      Atomic             Coordinates (Angstroms)
 Number     Number       Type             X           Y           Z
 ---------------------------------------------------------------------
      1          6           0        2.542826   -0.326164    0.000400
      2          1           0        2.579148   -0.969602    0.885069
      3          1           0        2.578795   -0.971235   -0.883107
      4          1           0        3.443322    0.295136   -0.000388
      5          6           0        1.275862    0.525029   -0.000081
      6          1           0        1.274220    1.183243   -0.878054
      7          1           0        1.273452    1.182925    0.878138
      8          6           0        0.000005   -0.313559   -0.000801
      9          1           0       -0.000017   -0.972080   -0.880282
     10          1           0        0.000054   -0.973810    0.877392
     11          6           0       -1.275860    0.525011    0.000032
     12          1           0       -1.274207    1.183371   -0.877834
     13          1           0       -1.273465    1.182770    0.878355
     14          6           0       -2.542831   -0.326158    0.000350
     15          1           0       -2.579127   -0.969837    0.884846
     16          1           0       -3.443312    0.295165   -0.000212
     17          1           0       -2.578874   -0.970994   -0.883326
 ---------------------------------------------------------------------

 SCF Done:  E(RwB97XD) =  -197.781336012     A.U. after   10 cycles

 Alpha  occ. eigenvalues --  -10.27644 -10.27643 -10.27428 -10.26932 -10.26931
 Alpha  occ. eigenvalues --   -0.90145  -0.84868  -0.77085  -0.69080  -0.66652
 Alpha  occ. eigenvalues --   -0.56386  -0.52390  -0.51748  -0.48788  -0.47728
 Alpha  occ. eigenvalues --   -0.45890  -0.43371  -0.41433  -0.40609  -0.39960
 Alpha  occ. eigenvalues --   -0.39423
 Alpha virt. eigenvalues --    0.03331   0.03640   0.04039   0.04201   0.05554
 Alpha virt. eigenvalues --    0.05695   0.05923   0.06098   0.08028   0.08337
 Alpha virt. eigenvalues --    0.08616   0.08680   0.09424   0.11301   0.11392

 Mulliken charges:
               1
     1  C   -1.034067
     2  H    0.269563
     3  H    0.269861
     4  H    0.249581
     5  C   -0.397671
     6  H    0.244861
     7  H    0.245120
     8  C   -0.227630
     9  H    0.266104
    10  H    0.267030
    11  C   -0.397669
    12  H    0.244914
    13  H    0.245066
    14  C   -1.034066
    15  H    0.269578
    16  H    0.249580
    17  H    0.269843
 Sum of Mulliken charges =  -0.00000

 Dipole moment (field-independent basis, Debye):
    X=             -0.0000    Y=              0.0893    Z=             -0.0001  Tot=              0.0893
 Quadrupole moment (field-independent basis, Debye-Ang):
   XX=            -35.9758   YY=            -35.5118   ZZ=            -34.3403
   XY=             -0.0000   XZ=             -0.0001   YZ=             -0.0005

  Exact polarizability:      76.602      -0.000      61.920       0.000       0.001      57.913
 Approx polarizability:      66.599      -0.000      66.784      -0.000       0.001      65.849

 Normal termination of Gaussian 16 at Wed Jan  8 11:08:30 2020.
