 Gaussian 16, Revision C.01,
 Gaussian 16:  ES64L-G16RevC.01  3-Jul-2019

 ------------------------------------------------
 #p wB97XD/aug-cc-pvtz NoSymm MaxDisk=100GB polar
 ------------------------------------------------

 -----
 polar
 -----
 Symbolic Z-matrix:
 Charge =  0 Multiplicity = 1

                          Input orientation:
 ---------------------------------------------------------------------
 Center     Atomic      Atomic             Coordinates (Angstroms)
 Number     Number       Type             X           Y           Z
 ---------------------------------------------------------------------
      1          6           0        0.000020    0.000017    0.000003
      2          6           0        1.032308    1.100501    0.251192
      3          1           0        1.684012    1.230993   -0.619699
      4          1           0        0.540781    2.058540    0.453093
      5          1           0        1.663103    0.855188    1.112653
      6          6           0       -0.861605    0.374975   -1.207017
      7          1           0       -1.610297   -0.399114   -1.408106
      8          1           0       -1.388991    1.319191   -1.032337
      9          1           0       -0.245701    0.492121   -2.105429
     10          6           0       -0.890745   -0.154837    1.233882
     11          1           0       -1.640191   -0.938709    1.078754
     12          1           0       -1.418429    0.779536    1.454532
     13          1           0       -0.296104   -0.424008    2.113744
     14          6           0        0.720031   -1.320642   -0.278057
     15          1           0        1.345178   -1.611571    0.573266
     16          1           0        0.000960   -2.126566   -0.461412
     17          1           0        1.365622   -1.235690   -1.159076
 ---------------------------------------------------------------------

 SCF Done:  E(RwB97XD) =  -197.785376633     A.U. after    9 cycles

 Alpha  occ. eigenvalues --  -10.29435 -10.26806 -10.26805 -10.26805 -10.26805
 Alpha  occ. eigenvalues --   -0.92278  -0.77930  -0.77930  -0.77929  -0.62281
 Alpha  occ. eigenvalues --   -0.53522  -0.53522  -0.53522  -0.48381  -0.48380
 Alpha  occ. eigenvalues --   -0.44305  -0.44305  -0.44305  -0.39950  -0.39949
 Alpha  occ. eigenvalues --   -0.39949
 Alpha virt. eigenvalues --    0.03124   0.04113   0.04113   0.04113   0.06181
 Alpha virt. eigenvalues --    0.06181   0.06181   0.06234   0.06234   0.08253
 Alpha virt. eigenvalues --    0.08253   0.08253   0.09975   0.12168   0.12168

 Mulliken charges:
               1
     1  C    2.139462
     2  C   -1.346306
     3  H    0.270652
     4  H    0.270461
     5  H    0.270324
     6  C   -1.346524
     7  H    0.270425
     8  H    0.270455
     9  H    0.270663
    10  C   -1.345717
    11  H    0.270252
    12  H    0.270463
    13  H    0.270265
    14  C   -1.346226
    15  H    0.270315
    16  H    0.270479
    17  H    0.270556
 Sum of Mulliken charges =  -0.00000

 Dipole moment (field-independent basis, Debye):
    X=              0.0000    Y=             -0.0000    Z=             -0.0000  Tot=              0.0000
 Quadrupole moment (field-independent basis, Debye-Ang):
   XX=            -35.4743   YY=            -35.4741   ZZ=            -35.4742
   XY=              0.0000   XZ=              0.0000   YZ=              0.0000

  Exact polarizability:      64.856       0.002      64.849       0.000      -0.001      64.859
 Approx polarizability:      67.274      -0.000      67.274      -0.000      -0.000      67.275

 Normal termination of Gaussian 16 at Wed Jan  8 11:10:55 2020.
