 Gaussian 16, Revision C.01,
 Gaussian 16:  ES64L-G16RevC.01  3-Jul-2019

 ------------------------------------------------
 #p wB97XD/aug-cc-pvtz NoSymm MaxDisk=100GB polar
 ------------------------------------------------

 -----
 polar
 -----
 Symbolic Z-matrix:
 Charge =  0 Multiplicity = 1

                          Input orientation:
 ---------------------------------------------------------------------
 Center     Atomic      Atomic             Coordinates (Angstroms)
 Number     Number       Type             X           Y           Z
 ---------------------------------------------------------------------
      1          6           0        1.211742   -0.352545   -0.219001
      2          1           0        1.332529   -0.490614   -1.300222
      3          1           0        2.175951   -0.576160    0.248589
      4          6           0        0.719537    1.074430    0.082601
      5          1           0        1.108468    1.803225   -0.634935
      6          1           0        1.069142    1.387690    1.071856
      7          6           0       -0.830608    0.994833    0.062341
      8          1           0       -1.268198    1.652553   -0.694715
      9          1           0       -1.240012    1.309864    1.027554
     10          6           0       -1.169779   -0.485509   -0.202484
     11          1           0       -1.301487   -0.656265   -1.277547
     12          1           0       -2.092820   -0.803451    0.292594
     13          6           0        0.070721   -1.242596    0.275925
     14          1           0        0.124403   -2.268934   -0.101670
     15          1           0        0.082343   -1.289590    1.372204
 ---------------------------------------------------------------------

 SCF Done:  E(RwB97XD) =  -196.566262061     A.U. after   10 cycles

 Alpha  occ. eigenvalues --  -10.27399 -10.27386 -10.27385 -10.27362 -10.27360
 Alpha  occ. eigenvalues --   -0.93128  -0.80062  -0.80009  -0.65878  -0.64974
 Alpha  occ. eigenvalues --   -0.56621  -0.56366  -0.49617  -0.49467  -0.41604
 Alpha  occ. eigenvalues --   -0.41538  -0.41233  -0.40865  -0.40148  -0.39075
 Alpha virt. eigenvalues --    0.03305   0.04065   0.04187   0.04249   0.05857
 Alpha virt. eigenvalues --    0.06094   0.06142   0.06287   0.06399   0.08160
 Alpha virt. eigenvalues --    0.11580   0.11929   0.11951   0.12301   0.12541

 Mulliken charges:
               1
     1  C   -0.499802
     2  H    0.183837
     3  H    0.321766
     4  C   -0.511184
     5  H    0.307641
     6  H    0.195805
     7  C   -0.537329
     8  H    0.296369
     9  H    0.196980
    10  C   -0.490192
    11  H    0.186280
    12  H    0.325228
    13  C   -0.496927
    14  H    0.302367
    15  H    0.219163
 Sum of Mulliken charges =  -0.00000

 Dipole moment (field-independent basis, Debye):
    X=              0.0029    Y=             -0.0206    Z=              0.0011  Tot=              0.0208
 Quadrupole moment (field-independent basis, Debye-Ang):
   XX=            -33.8017   YY=            -33.8219   ZZ=            -32.5173
   XY=              0.0033   XZ=             -0.0029   YZ=             -0.0417

  Exact polarizability:      61.969       0.006      61.868       0.013       0.108      53.790
 Approx polarizability:      62.665       0.009      62.576       0.007       0.095      61.495

 1\1\GINC-G2-NODE38\SP\RwB97XD\Aug-CC-pVTZ\C5H10\LIUCHW\08-Jan-2020\0\\
 #p wB97XD/aug-cc-pvtz NoSymm MaxDisk=100GB polar\\polar\\0,1\C,0,1.211
 742,-0.352545,-0.219001\H,0,1.332529,-0.490614,-1.300222\H,0,2.175951,
 -0.57616,0.248589\C,0,0.719537,1.07443,0.082601\H,0,1.108468,1.803225,
 -0.634935\H,0,1.069142,1.38769,1.071856\C,0,-0.830608,0.994833,0.06234
 1\H,0,-1.268198,1.652553,-0.694715\H,0,-1.240012,1.309864,1.027554\C,0
 ,-1.169779,-0.485509,-0.202484\H,0,-1.301487,-0.656265,-1.277547\H,0,-
 2.09282,-0.803451,0.292594\C,0,0.070721,-1.242596,0.275925\H,0,0.12440

 Normal termination of Gaussian 16 at Wed Jan  8 11:08:11 2020.
