 Gaussian 16, Revision C.01,
 Gaussian 16:  ES64L-G16RevC.01  3-Jul-2019

 ------------------------------------------------
 #p wB97XD/aug-cc-pvtz NoSymm MaxDisk=100GB polar
 ------------------------------------------------

 -----
 polar
 -----
 Symbolic Z-matrix:
 Charge =  0 Multiplicity = 1

                          Input orientation:
 ---------------------------------------------------------------------
 Center     Atomic      Atomic             Coordinates (Angstroms)
 Number     Number       Type             X           Y           Z
 ---------------------------------------------------------------------
      1          6           0       -1.151474    0.018938    0.000000
      2         16           0        0.661566   -0.086584    0.000000
      3          1           0        0.897268    1.233000    0.000041
      4          1           0       -1.524452    0.522756   -0.892232
      5          1           0       -1.524505   -1.005899   -0.000500
      6          1           0       -1.524528    0.521855    0.892710
 ---------------------------------------------------------------------

 SCF Done:  E(RwB97XD) =  -438.720693581     A.U. after   11 cycles

 Alpha  occ. eigenvalues --  -89.04957 -10.31537  -8.05966  -6.00941  -6.00589
 Alpha  occ. eigenvalues --   -5.99968  -0.88056  -0.74162  -0.53740  -0.51740
 Alpha  occ. eigenvalues --   -0.47486  -0.41612  -0.32097
 Alpha virt. eigenvalues --    0.02961   0.04254   0.05006   0.05303   0.08089
 Alpha virt. eigenvalues --    0.09388   0.11371   0.11837   0.12315   0.12692
 Alpha virt. eigenvalues --    0.13302   0.15004   0.16168   0.17358   0.19467

 Mulliken charges:
               1
     1  C   -0.744750
     2  S   -0.224801
     3  H    0.177327
     4  H    0.264291
     5  H    0.263651
     6  H    0.264282
 Sum of Mulliken charges =  -0.00000

 Dipole moment (field-independent basis, Debye):
    X=             -1.3777    Y=              0.8018    Z=              0.0000  Tot=              1.5940
 Quadrupole moment (field-independent basis, Debye-Ang):
   XX=            -20.1001   YY=            -19.2806   ZZ=            -22.5584
   XY=              1.2820   XZ=              0.0001   YZ=              0.0000

  Exact polarizability:      42.721       0.535      33.742      -0.000      -0.000      33.918
 Approx polarizability:      42.891       1.142      38.279      -0.000       0.000      34.872

 Normal termination of Gaussian 16 at Wed Mar 23 18:30:28 2011.
