 Gaussian 16, Revision C.01,
 Gaussian 16:  ES64L-G16RevC.01  3-Jul-2019

 ------------------------------------------------
 #p wB97XD/aug-cc-pvtz NoSymm MaxDisk=100GB polar
 ------------------------------------------------

 -----
 polar
 -----
 Symbolic Z-matrix:
 Charge =  0 Multiplicity = 1

                          Input orientation:
 ---------------------------------------------------------------------
 Center     Atomic      Atomic             Coordinates (Angstroms)
 Number     Number       Type             X           Y           Z
 ---------------------------------------------------------------------
      1          6           0        1.341869   -0.810405    0.180764
      2          8           0        0.000010    1.502904    0.379978
      3         16           0        0.000000    0.232319   -0.438638
      4          6           0       -1.341878   -0.810390    0.180764
      5          1           0        1.305924   -1.794610   -0.293343
      6          1           0        2.281651   -0.314853   -0.069180
      7          1           0        1.258519   -0.898351    1.267132
      8          1           0       -1.305946   -1.794594   -0.293346
      9          1           0       -1.258529   -0.898342    1.267132
     10          1           0       -2.281655   -0.314825   -0.069177
 ---------------------------------------------------------------------

 SCF Done:  E(RwB97XD) =  -553.231679121     A.U. after   12 cycles

 Alpha  occ. eigenvalues --  -89.15793 -19.20958 -10.31849 -10.31849  -8.15475
 Alpha  occ. eigenvalues --   -6.10323  -6.10305  -6.09703  -1.10518  -0.89813
 Alpha  occ. eigenvalues --   -0.82448  -0.70179  -0.56195  -0.55156  -0.54860
 Alpha  occ. eigenvalues --   -0.51390  -0.48930  -0.47793  -0.44024  -0.35532
 Alpha  occ. eigenvalues --   -0.31473
 Alpha virt. eigenvalues --    0.02656   0.03779   0.04501   0.04962   0.06200
 Alpha virt. eigenvalues --    0.06568   0.07366   0.08699   0.09645   0.10810
 Alpha virt. eigenvalues --    0.11654   0.12264   0.12885   0.13440   0.14183

 Mulliken charges:
               1
     1  C   -0.754721
     2  O   -0.895757
     3  S    0.862506
     4  C   -0.754721
     5  H    0.299140
     6  H    0.216197
     7  H    0.256009
     8  H    0.299141
     9  H    0.256008
    10  H    0.216197
 Sum of Mulliken charges =  -0.00000

 Dipole moment (field-independent basis, Debye):
    X=             -0.0000    Y=             -4.2776    Z=             -0.5046  Tot=              4.3073
 Quadrupole moment (field-independent basis, Debye-Ang):
   XX=            -28.2916   YY=            -36.5098   ZZ=            -33.1753
   XY=             -0.0000   XZ=             -0.0000   YZ=             -1.6918

  Exact polarizability:      57.469      -0.000      56.432       0.000       0.254      45.796
 Approx polarizability:      57.875       0.000      63.825       0.000       2.121      51.230

 Normal termination of Gaussian 16 at Wed Jan  8 10:49:57 2020.
