 Gaussian 16, Revision C.01,
 Gaussian 16:  ES64L-G16RevC.01  3-Jul-2019

 ------------------------------------------------
 #p wB97XD/aug-cc-pvtz NoSymm MaxDisk=100GB polar
 ------------------------------------------------

 -----
 polar
 -----
 Symbolic Z-matrix:
 Charge =  0 Multiplicity = 1

                          Input orientation:
 ---------------------------------------------------------------------
 Center     Atomic      Atomic             Coordinates (Angstroms)
 Number     Number       Type             X           Y           Z
 ---------------------------------------------------------------------
      1          9           0        2.286794    0.000000   -0.000176
      2          6           0        0.928539    0.000002   -0.000073
      3          6           0        0.259810    1.218240   -0.000146
      4          6           0        0.259810   -1.218238    0.000090
      5          6           0       -1.136358    1.209218   -0.000020
      6          6           0       -1.136357   -1.209220    0.000211
      7          6           0       -1.836104   -0.000002    0.000141
      8          1           0        0.829134    2.142817   -0.000266
      9          1           0        0.829145   -2.142809    0.000137
     10          1           0       -1.676377    2.152609   -0.000081
     11          1           0       -1.676372   -2.152614    0.000338
     12          1           0       -2.922718    0.000002    0.000242
 ---------------------------------------------------------------------

 SCF Done:  E(RwB97XD) =  -331.494327858     A.U. after   13 cycles

 Alpha  occ. eigenvalues --  -24.82230 -10.38126 -10.30761 -10.30758 -10.30396
 Alpha  occ. eigenvalues --  -10.30395 -10.30029  -1.32733  -0.97004  -0.86280
 Alpha  occ. eigenvalues --   -0.85324  -0.72329  -0.71155  -0.64109  -0.59071
 Alpha  occ. eigenvalues --   -0.58142  -0.55981  -0.53821  -0.52313  -0.49156
 Alpha  occ. eigenvalues --   -0.45980  -0.45915  -0.43487  -0.34563  -0.33081
 Alpha virt. eigenvalues --    0.03044   0.03602   0.04002   0.04034   0.05121
 Alpha virt. eigenvalues --    0.05209   0.05423   0.08877   0.09512   0.10952
 Alpha virt. eigenvalues --    0.11064   0.11320   0.11362   0.11599   0.12315

 Mulliken charges:
               1
     1  F   -0.522628
     2  C    0.755149
     3  C   -0.679810
     4  C   -0.679806
     5  C   -0.495264
     6  C   -0.495268
     7  C   -0.592053
     8  H    0.574181
     9  H    0.574184
    10  H    0.512726
    11  H    0.512723
    12  H    0.535867
 Sum of Mulliken charges =  -0.00000

 Dipole moment (field-independent basis, Debye):
    X=             -1.5867    Y=              0.0000    Z=              0.0001  Tot=              1.5867
 Quadrupole moment (field-independent basis, Debye-Ang):
   XX=            -40.4493   YY=            -34.1445   ZZ=            -43.1713
   XY=             -0.0000   XZ=             -0.0002   YZ=             -0.0009

  Exact polarizability:      83.009      -0.000      80.834      -0.003      -0.004      44.216
 Approx polarizability:      95.347      -0.000      92.941      -0.004      -0.004      51.174

 Normal termination of Gaussian 16 at Wed Jan  8 11:12:52 2020.
