 Gaussian 16, Revision C.01,
 Gaussian 16:  ES64L-G16RevC.01  3-Jul-2019

 ------------------------------------------------
 #p wB97XD/aug-cc-pvtz NoSymm MaxDisk=100GB polar
 ------------------------------------------------

 -----
 polar
 -----
 Symbolic Z-matrix:
 Charge =  0 Multiplicity = 1

                          Input orientation:
 ---------------------------------------------------------------------
 Center     Atomic      Atomic             Coordinates (Angstroms)
 Number     Number       Type             X           Y           Z
 ---------------------------------------------------------------------
      1         17           0        2.252677    0.000000   -0.000049
      2          6           0        0.510938   -0.000060   -0.000011
      3          6           0       -0.173982   -1.215448    0.000020
      4          6           0       -0.173930    1.215413   -0.000013
      5          6           0       -1.569681   -1.207556    0.000051
      6          6           0       -1.569601    1.207613    0.000018
      7          6           0       -2.270796    0.000035    0.000049
      8          1           0        0.380135   -2.149846    0.000023
      9          1           0        0.380318    2.149730   -0.000038
     10          1           0       -2.108066   -2.152082    0.000075
     11          1           0       -2.107947    2.152162    0.000017
     12          1           0       -3.357635    0.000060    0.000072
 ---------------------------------------------------------------------

 SCF Done:  E(RwB97XD) =  -691.861153220     A.U. after   13 cycles

 Alpha  occ. eigenvalues -- -101.73322 -10.36083 -10.30888 -10.30886 -10.30803
 Alpha  occ. eigenvalues --  -10.30794 -10.30440  -9.59292  -7.34069  -7.33196
 Alpha  occ. eigenvalues --   -7.33165  -0.99753  -0.94105  -0.86285  -0.83664
 Alpha  occ. eigenvalues --   -0.71833  -0.69903  -0.62074  -0.56096  -0.56058
 Alpha  occ. eigenvalues --   -0.52297  -0.51978  -0.49230  -0.44822  -0.44774
 Alpha  occ. eigenvalues --   -0.42471  -0.39883  -0.34682  -0.32722
 Alpha virt. eigenvalues --    0.02959   0.03598   0.03866   0.03903   0.04074
 Alpha virt. eigenvalues --    0.05217   0.05468   0.07984   0.09165   0.09658
 Alpha virt. eigenvalues --    0.10836   0.10917   0.11091   0.11376   0.11436

 Mulliken charges:
               1
     1  Cl  -0.335612
     2  C    0.811115
     3  C   -0.951517
     4  C   -0.951553
     5  C   -0.424528
     6  C   -0.424567
     7  C   -0.534776
     8  H    0.605278
     9  H    0.605380
    10  H    0.533431
    11  H    0.533390
    12  H    0.533960
 Sum of Mulliken charges =  -0.00000

 Dipole moment (field-independent basis, Debye):
    X=             -1.7836    Y=             -0.0000    Z=              0.0000  Tot=              1.7836
 Quadrupole moment (field-independent basis, Debye-Ang):
   XX=            -45.8501   YY=            -42.1101   ZZ=            -51.1539
   XY=              0.0002   XZ=             -0.0001   YZ=             -0.0001

  Exact polarizability:     111.126       0.000      88.242      -0.001      -0.000      52.529
 Approx polarizability:     119.947       0.001     105.205      -0.001      -0.001      62.605

 Normal termination of Gaussian 16 at Wed Jan  8 05:34:46 2020.
