 Gaussian 16, Revision C.01,
 Gaussian 16:  ES64L-G16RevC.01  3-Jul-2019

 ------------------------------------------------
 #p wB97XD/aug-cc-pvtz NoSymm MaxDisk=100GB polar
 ------------------------------------------------

 -----
 polar
 -----
 Symbolic Z-matrix:
 Charge =  0 Multiplicity = 1

                          Input orientation:
 ---------------------------------------------------------------------
 Center     Atomic      Atomic             Coordinates (Angstroms)
 Number     Number       Type             X           Y           Z
 ---------------------------------------------------------------------
      1         35           0       -1.806770    0.000000   -0.000060
      2          6           0        0.100622    0.000053    0.000006
      3          6           0        0.781569    1.217595    0.000044
      4          6           0        0.781526   -1.217561    0.000010
      5          6           0        2.177682    1.208356    0.000089
      6          6           0        2.177619   -1.208404    0.000056
      7          6           0        2.878142   -0.000030    0.000094
      8          1           0        0.228430    2.152609    0.000041
      9          1           0        0.228292   -2.152515   -0.000021
     10          1           0        2.716093    2.153086    0.000118
     11          1           0        2.716010   -2.153148    0.000060
     12          1           0        3.965164   -0.000050    0.000128
 ---------------------------------------------------------------------

 SCF Done:  E(RwB97XD) =  -2805.90346311     A.U. after   13 cycles

 Alpha  occ. eigenvalues -- -483.14112 -62.68761 -56.47897 -56.47553 -56.47542
 Alpha  occ. eigenvalues --  -10.35649 -10.31046 -10.31044 -10.30889 -10.30881
 Alpha  occ. eigenvalues --  -10.30581  -8.82346  -6.64427  -6.63281  -6.63256
 Alpha  occ. eigenvalues --   -2.74894  -2.74559  -2.74541  -2.73614  -2.73613
 Alpha  occ. eigenvalues --   -0.98179  -0.90795  -0.86350  -0.82767  -0.71766
 Alpha  occ. eigenvalues --   -0.69784  -0.61924  -0.55828  -0.55575  -0.52401
 Alpha  occ. eigenvalues --   -0.50721  -0.48503  -0.44614  -0.43697  -0.40308
 Alpha  occ. eigenvalues --   -0.37422  -0.34754  -0.32445
 Alpha virt. eigenvalues --    0.02873   0.03609   0.03700   0.03764   0.04031
 Alpha virt. eigenvalues --    0.05071   0.05277   0.06125   0.08697   0.08966
 Alpha virt. eigenvalues --    0.09665   0.10750   0.10794   0.10833   0.11435

 Mulliken charges:
               1
     1  Br  -0.085847
     2  C    0.439467
     3  C   -0.907932
     4  C   -0.907939
     5  C   -0.450242
     6  C   -0.450259
     7  C   -0.490266
     8  H    0.609813
     9  H    0.609896
    10  H    0.551169
    11  H    0.551130
    12  H    0.531010
 Sum of Mulliken charges =  -0.00000

 Dipole moment (field-independent basis, Debye):
    X=              1.8335    Y=              0.0000    Z=              0.0001  Tot=              1.8335
 Quadrupole moment (field-independent basis, Debye-Ang):
   XX=            -48.8763   YY=            -47.9876   ZZ=            -57.1593
   XY=              0.0002   XZ=              0.0003   YZ=              0.0001

  Exact polarizability:     124.699       0.000      93.357       0.002       0.000      58.298
 Approx polarizability:     131.395       0.001     112.189       0.002       0.001      69.245

 1\1\GINC-NODE142\SP\RwB97XD\Aug-CC-pVTZ\C6H5Br1\LIUCHW\23-Mar-2011\0\\
 #p wB97XD/aug-cc-pvtz NoSymm MaxDisk=100GB polar\\polar\\0,1\Br,0,-1.8
 0677,0.,-0.00006\C,0,0.100622,0.000053,0.000006\C,0,0.781569,1.217595,
 0.000044\C,0,0.781526,-1.217561,0.00001\C,0,2.177682,1.208356,0.000089
 \C,0,2.177619,-1.208404,0.000056\C,0,2.878142,-0.00003,0.000094\H,0,0.
 22843,2.152609,0.000041\H,0,0.228292,-2.152515,-0.000021\H,0,2.716093,
 2.153086,0.000118\H,0,2.71601,-2.153148,0.00006\H,0,3.965164,-0.00005,
 0.000128\\Version=ES64L-G16RevC.01\HF=-2805.9034631\RMSD=6.451e-09\Dip

 Normal termination of Gaussian 16 at Wed Mar 23 18:41:54 2011.
