 Gaussian 16, Revision C.01,
 Gaussian 16:  ES64L-G16RevC.01  3-Jul-2019

 ------------------------------------------------
 #p wB97XD/aug-cc-pvtz NoSymm MaxDisk=100GB polar
 ------------------------------------------------

 -----
 polar
 -----
 Symbolic Z-matrix:
 Charge =  0 Multiplicity = 1

                          Input orientation:
 ---------------------------------------------------------------------
 Center     Atomic      Atomic             Coordinates (Angstroms)
 Number     Number       Type             X           Y           Z
 ---------------------------------------------------------------------
      1          6           0        1.369101   -0.514034    0.000002
      2          6           0       -1.369101   -0.514034    0.000002
      3         16           0        0.000000    0.664463   -0.000002
      4          1           0        1.348314   -1.145358   -0.891723
      5          1           0        2.298594    0.058502   -0.000510
      6          1           0        1.348841   -1.144644    0.892238
      7          1           0       -1.348315   -1.145356   -0.891725
      8          1           0       -1.348840   -1.144644    0.892238
      9          1           0       -2.298594    0.058502   -0.000508
 ---------------------------------------------------------------------

 SCF Done:  E(RwB97XD) =  -478.034917683     A.U. after   11 cycles

 Alpha  occ. eigenvalues --  -89.04316 -10.30760 -10.30759  -8.05206  -6.00210
 Alpha  occ. eigenvalues --   -5.99842  -5.99188  -0.89783  -0.80255  -0.69197
 Alpha  occ. eigenvalues --   -0.52917  -0.52778  -0.50936  -0.49244  -0.44384
 Alpha  occ. eigenvalues --   -0.39477  -0.30031
 Alpha virt. eigenvalues --    0.03208   0.03912   0.04749   0.04997   0.06558
 Alpha virt. eigenvalues --    0.06721   0.07593   0.09856   0.10789   0.12184
 Alpha virt. eigenvalues --    0.12470   0.12867   0.13903   0.14215   0.14537

 Mulliken charges:
               1
     1  C   -0.766431
     2  C   -0.766431
     3  S   -0.011558
     4  H    0.270105
     5  H    0.232009
     6  H    0.270096
     7  H    0.270105
     8  H    0.270096
     9  H    0.232009
 Sum of Mulliken charges =  -0.00000

 Dipole moment (field-independent basis, Debye):
    X=             -0.0000    Y=             -1.6579    Z=              0.0000  Tot=              1.6579
 Quadrupole moment (field-independent basis, Debye-Ang):
   XX=            -23.9901   YY=            -28.3818   ZZ=            -28.6558
   XY=             -0.0000   XZ=             -0.0000   YZ=              0.0002

  Exact polarizability:      56.661       0.000      48.717       0.000      -0.000      42.503
 Approx polarizability:      57.291       0.000      52.674       0.000       0.000      46.360

 Normal termination of Gaussian 16 at Wed Jan  8 10:53:47 2020.
