 Gaussian 16, Revision C.01,
 Gaussian 16:  ES64L-G16RevC.01  3-Jul-2019

 ------------------------------------------------
 #p wB97XD/aug-cc-pvtz NoSymm MaxDisk=100GB polar
 ------------------------------------------------

 -----
 polar
 -----
 Symbolic Z-matrix:
 Charge =  0 Multiplicity = 1

                          Input orientation:
 ---------------------------------------------------------------------
 Center     Atomic      Atomic             Coordinates (Angstroms)
 Number     Number       Type             X           Y           Z
 ---------------------------------------------------------------------
      1          6           0       -1.149932   -0.221983    0.000033
      2          6           0       -0.554122    1.020303   -0.000028
      3          7           0        0.797455    0.764325    0.000012
      4          6           0        0.960469   -0.591771    0.000005
      5          7           0       -0.204734   -1.222989   -0.000028
      6          1           0        1.535410    1.456966    0.000045
      7          1           0       -2.207218   -0.449814    0.000057
      8          1           0       -0.951321    2.024513   -0.000055
      9          1           0        1.935593   -1.060313    0.000002
 ---------------------------------------------------------------------

 SCF Done:  E(RwB97XD) =  -226.222315970     A.U. after   13 cycles

 Alpha  occ. eigenvalues --  -14.50123 -14.42081 -10.34462 -10.31939 -10.30142
 Alpha  occ. eigenvalues --   -1.11953  -0.97218  -0.84351  -0.71158  -0.68501
 Alpha  occ. eigenvalues --   -0.65625  -0.52858  -0.52702  -0.52526  -0.49177
 Alpha  occ. eigenvalues --   -0.36954  -0.36015  -0.31236
 Alpha virt. eigenvalues --    0.02256   0.03750   0.04430   0.05472   0.06931
 Alpha virt. eigenvalues --    0.08805   0.09190   0.10323   0.10465   0.10530
 Alpha virt. eigenvalues --    0.11383   0.12165   0.12529   0.12664   0.13622

 Mulliken charges:
               1
     1  C   -0.188666
     2  C   -0.406674
     3  N    0.055699
     4  C   -0.385635
     5  N   -0.496756
     6  H    0.033087
     7  H    0.470707
     8  H    0.445067
     9  H    0.473172
 Sum of Mulliken charges =  -0.00000

 Dipole moment (field-independent basis, Debye):
    X=              1.8464    Y=              3.3514    Z=              0.0001  Tot=              3.8264
 Quadrupole moment (field-independent basis, Debye-Ang):
   XX=            -22.7570   YY=            -29.5932   ZZ=            -32.0103
   XY=              0.3227   XZ=              0.0000   YZ=             -0.0001

  Exact polarizability:      56.840      -1.277      56.006      -0.000      -0.000      34.149
 Approx polarizability:      64.041       0.396      64.667      -0.000      -0.000      37.823

 Normal termination of Gaussian 16 at Wed Jan  8 10:58:32 2020.
