 Gaussian 16, Revision C.01,
 Gaussian 16:  ES64L-G16RevC.01  3-Jul-2019

 ------------------------------------------------
 #p wB97XD/aug-cc-pvtz NoSymm MaxDisk=100GB polar
 ------------------------------------------------

 -----
 polar
 -----
 Symbolic Z-matrix:
 Charge =  0 Multiplicity = 1

                          Input orientation:
 ---------------------------------------------------------------------
 Center     Atomic      Atomic             Coordinates (Angstroms)
 Number     Number       Type             X           Y           Z
 ---------------------------------------------------------------------
      1          7           0        0.000129   -1.159152   -0.373674
      2          6           0        1.151735   -0.445315    0.183115
      3          6           0        0.774539    1.022453   -0.060373
      4          6           0       -0.774752    1.022296   -0.060341
      5          6           0       -1.151646   -0.445561    0.183091
      6          1           0        2.075738   -0.742969   -0.321844
      7          1           0        1.281238   -0.624534    1.265543
      8          1           0        1.196190    1.680289    0.704672
      9          1           0        1.157509    1.353825   -1.028697
     10          1           0       -1.196505    1.680005    0.704756
     11          1           0       -1.157834    1.353648   -1.028629
     12          1           0       -1.281153   -0.624834    1.265510
     13          1           0       -2.075568   -0.743393   -0.321908
     14          1           0        0.000232   -2.141210   -0.096639
 ---------------------------------------------------------------------

 SCF Done:  E(RwB97XD) =  -212.596436029     A.U. after   12 cycles

 Alpha  occ. eigenvalues --  -14.41812 -10.30183 -10.30182 -10.27731 -10.27714
 Alpha  occ. eigenvalues --   -1.01641  -0.85396  -0.81510  -0.68232  -0.66238
 Alpha  occ. eigenvalues --   -0.60081  -0.57134  -0.51464  -0.48110  -0.44942
 Alpha  occ. eigenvalues --   -0.44792  -0.42187  -0.41942  -0.39656  -0.30982
 Alpha virt. eigenvalues --    0.03148   0.04190   0.04217   0.04334   0.05782
 Alpha virt. eigenvalues --    0.06126   0.06141   0.06349   0.08220   0.09721
 Alpha virt. eigenvalues --    0.11302   0.11602   0.11980   0.12471   0.12711

 Mulliken charges:
               1
     1  N   -0.375738
     2  C   -0.348011
     3  C   -0.518474
     4  C   -0.518491
     5  C   -0.348015
     6  H    0.325913
     7  H    0.247375
     8  H    0.306344
     9  H    0.183262
    10  H    0.306317
    11  H    0.183272
    12  H    0.247377
    13  H    0.325929
    14  H   -0.017059
 Sum of Mulliken charges =  -0.00000

 Dipole moment (field-independent basis, Debye):
    X=             -0.0000    Y=             -0.0820    Z=              1.0449  Tot=              1.0482
 Quadrupole moment (field-independent basis, Debye-Ang):
   XX=            -31.6451   YY=            -30.8818   ZZ=            -34.0236
   XY=             -0.0001   XZ=              0.0002   YZ=             -1.4435

  Exact polarizability:      59.931       0.000      57.785      -0.000       0.089      52.277
 Approx polarizability:      60.578       0.000      59.231      -0.000       0.468      58.186

 Normal termination of Gaussian 16 at Wed Jan  8 11:14:11 2020.
