 Gaussian 16, Revision C.01,
 Gaussian 16:  ES64L-G16RevC.01  3-Jul-2019

 ------------------------------------------------
 #p wB97XD/aug-cc-pvtz NoSymm MaxDisk=100GB polar
 ------------------------------------------------

 -----
 polar
 -----
 Symbolic Z-matrix:
 Charge =  0 Multiplicity = 1

                          Input orientation:
 ---------------------------------------------------------------------
 Center     Atomic      Atomic             Coordinates (Angstroms)
 Number     Number       Type             X           Y           Z
 ---------------------------------------------------------------------
      1          6           0        0.260724    1.202327   -0.000075
      2          6           0       -1.135894    1.217873    0.000041
      3          6           0       -1.856326    0.023401   -0.000020
      4          6           0       -1.168588   -1.193867    0.000037
      5          6           0        0.224266   -1.221804   -0.000049
      6          6           0        0.937592   -0.019808    0.000021
      7          8           0        2.309662   -0.112244   -0.000015
      8          1           0        0.819360    2.137629   -0.000012
      9          1           0       -1.657823    2.171768   -0.000043
     10          1           0       -2.942720    0.039430    0.000107
     11          1           0       -1.720215   -2.130904   -0.000008
     12          1           0        0.775975   -2.157598    0.000007
     13          1           0        2.677485    0.788893    0.000332
 ---------------------------------------------------------------------

 SCF Done:  E(RwB97XD) =  -307.475381842     A.U. after   13 cycles

 Alpha  occ. eigenvalues --  -19.28883 -10.35705 -10.29878 -10.29684 -10.29569
 Alpha  occ. eigenvalues --  -10.28940 -10.28800  -1.16435  -0.95531  -0.85191
 Alpha  occ. eigenvalues --   -0.83971  -0.72102  -0.69846  -0.63663  -0.59064
 Alpha  occ. eigenvalues --   -0.55823  -0.52693  -0.51198  -0.50423  -0.48151
 Alpha  occ. eigenvalues --   -0.44617  -0.43013  -0.42595  -0.33617  -0.30581
 Alpha virt. eigenvalues --    0.02810   0.03538   0.03890   0.04848   0.04995
 Alpha virt. eigenvalues --    0.05291   0.06357   0.06877   0.09706   0.09865
 Alpha virt. eigenvalues --    0.10069   0.11055   0.11560   0.11575   0.12150

 Mulliken charges:
               1
     1  C   -0.950430
     2  C   -0.453132
     3  C   -0.635865
     4  C   -0.337861
     5  C   -1.006211
     6  C    1.030393
     7  O   -0.731354
     8  H    0.694494
     9  H    0.485117
    10  H    0.521421
    11  H    0.510370
    12  H    0.725701
    13  H    0.147356
 Sum of Mulliken charges =  -0.00000

 Dipole moment (field-independent basis, Debye):
    X=             -0.0584    Y=              1.2898    Z=              0.0006  Tot=              1.2912
 Quadrupole moment (field-independent basis, Debye-Ang):
   XX=            -37.6494   YY=            -35.4394   ZZ=            -45.0422
   XY=              4.2766   XZ=              0.0016   YZ=              0.0006

  Exact polarizability:      92.980       1.137      84.404       0.000       0.000      47.076
 Approx polarizability:     103.513       0.702      97.876       0.000       0.001      54.363

 Normal termination of Gaussian 16 at Wed Jan  8 11:21:55 2020.
