 Gaussian 16, Revision C.01,
 Gaussian 16:  ES64L-G16RevC.01  3-Jul-2019

 ------------------------------------------------
 #p wB97XD/aug-cc-pvtz NoSymm MaxDisk=100GB polar
 ------------------------------------------------

 -----
 polar
 -----
 Symbolic Z-matrix:
 Charge =  0 Multiplicity = 1

                          Input orientation:
 ---------------------------------------------------------------------
 Center     Atomic      Atomic             Coordinates (Angstroms)
 Number     Number       Type             X           Y           Z
 ---------------------------------------------------------------------
      1          7           0       -1.563146   -1.078645    0.000002
      2          6           0        0.981417    1.431891    0.000000
      3          6           0        2.155411    0.692220    0.000002
      4          6           0        2.132681   -0.720331   -0.000005
      5          6           0        0.934387   -1.422084    0.000000
      6          6           0       -0.248183   -0.670693    0.000000
      7          6           0       -0.252251    0.752830    0.000015
      8          6           0       -1.620712    1.168121   -0.000008
      9          6           0       -2.388581    0.026556   -0.000005
     10          1           0        1.012150    2.520025    0.000005
     11          1           0        3.114007    1.205984   -0.000005
     12          1           0        3.071834   -1.268809   -0.000005
     13          1           0        0.918321   -2.510547   -0.000004
     14          1           0       -1.997513    2.183070   -0.000013
     15          1           0       -1.876934   -2.039947    0.000018
     16          1           0       -3.464855   -0.090321    0.000004
 ---------------------------------------------------------------------

 SCF Done:  E(RwB97XD) =  -363.815919765     A.U. after   14 cycles

 Alpha  occ. eigenvalues --  -14.48338 -10.32337 -10.32161 -10.29106 -10.28717
 Alpha  occ. eigenvalues --  -10.28622 -10.28557 -10.28025 -10.27737  -1.08381
 Alpha  occ. eigenvalues --   -0.93968  -0.88213  -0.83354  -0.81474  -0.71807
 Alpha  occ. eigenvalues --   -0.68760  -0.67439  -0.63006  -0.57134  -0.55889
 Alpha  occ. eigenvalues --   -0.52302  -0.51570  -0.51498  -0.49526  -0.47592
 Alpha  occ. eigenvalues --   -0.43756  -0.42409  -0.41699  -0.36353  -0.29880
 Alpha  occ. eigenvalues --   -0.28116
 Alpha virt. eigenvalues --    0.02591   0.03410   0.03702   0.04311   0.04719
 Alpha virt. eigenvalues --    0.04822   0.06651   0.06744   0.08114   0.08287
 Alpha virt. eigenvalues --    0.09190   0.09880   0.10262   0.10594   0.10918

 Mulliken charges:
               1
     1  N   -0.006327
     2  C   -0.979865
     3  C   -0.332219
     4  C   -0.433096
     5  C   -0.880454
     6  C    0.129827
     7  C    1.257053
     8  C   -1.032348
     9  C   -0.601280
    10  H    0.437666
    11  H    0.511658
    12  H    0.497082
    13  H    0.466441
    14  H    0.402190
    15  H   -0.084953
    16  H    0.648626
 Sum of Mulliken charges =  -0.00000

 Dipole moment (field-independent basis, Debye):
    X=             -1.4846    Y=             -1.5370    Z=              0.0000  Tot=              2.1369
 Quadrupole moment (field-independent basis, Debye-Ang):
   XX=            -45.1170   YY=            -44.1475   ZZ=            -57.9971
   XY=              3.1262   XZ=             -0.0001   YZ=             -0.0001

  Exact polarizability:     139.379      -0.209     106.691       0.000      -0.000      59.885
 Approx polarizability:     151.591       2.524     130.640      -0.000      -0.000      71.168

 Normal termination of Gaussian 16 at Wed Jan  8 11:51:52 2020.
