 Gaussian 16, Revision C.01,
 Gaussian 16:  ES64L-G16RevC.01  3-Jul-2019

 ------------------------------------------------
 #p wB97XD/aug-cc-pvtz NoSymm MaxDisk=100GB polar
 ------------------------------------------------

 -----
 polar
 -----
 Symbolic Z-matrix:
 Charge =  0 Multiplicity = 1

                          Input orientation:
 ---------------------------------------------------------------------
 Center     Atomic      Atomic             Coordinates (Angstroms)
 Number     Number       Type             X           Y           Z
 ---------------------------------------------------------------------
      1          9           0       -1.110393   -0.291074   -0.000005
      2          9           0        1.110389   -0.291077   -0.000005
      3          6           0        0.000005    0.503856    0.000000
      4          1           0        0.000002    1.108037    0.908935
      5          1           0        0.000001    1.108185   -0.908839
 ---------------------------------------------------------------------

 SCF Done:  E(RwB97XD) =  -239.016649198     A.U. after   10 cycles

 Alpha  occ. eigenvalues --  -24.82708 -24.82708 -10.45264  -1.36109  -1.30633
 Alpha  occ. eigenvalues --   -0.81296  -0.64557  -0.64213  -0.63880  -0.52253
 Alpha  occ. eigenvalues --   -0.50986  -0.50114  -0.44040
 Alpha virt. eigenvalues --    0.03105   0.04576   0.07462   0.07718   0.12709
 Alpha virt. eigenvalues --    0.12836   0.17720   0.18176   0.19561   0.19786
 Alpha virt. eigenvalues --    0.19796   0.20513   0.22316   0.28175   0.29706

 Mulliken charges:
               1
     1  F   -0.346357
     2  F   -0.346354
     3  C    0.211589
     4  H    0.240562
     5  H    0.240560
 Sum of Mulliken charges =  -0.00000

 Dipole moment (field-independent basis, Debye):
    X=              0.0000    Y=              1.9767    Z=              0.0000  Tot=              1.9767
 Quadrupole moment (field-independent basis, Debye-Ang):
   XX=            -19.1223   YY=            -15.2709   ZZ=            -15.2357
   XY=             -0.0000   XZ=              0.0000   YZ=             -0.0001

  Exact polarizability:      19.053       0.000      17.826       0.000      -0.000      16.856
 Approx polarizability:      19.210       0.000      17.651       0.000      -0.000      16.481

 Normal termination of Gaussian 16 at Wed Jan  8 10:55:24 2020.
