 Gaussian 16, Revision C.01,
 Gaussian 16:  ES64L-G16RevC.01  3-Jul-2019

 ------------------------------------------------
 #p wB97XD/aug-cc-pvtz NoSymm MaxDisk=100GB polar
 ------------------------------------------------

 -----
 polar
 -----
 Symbolic Z-matrix:
 Charge =  0 Multiplicity = 1

                          Input orientation:
 ---------------------------------------------------------------------
 Center     Atomic      Atomic             Coordinates (Angstroms)
 Number     Number       Type             X           Y           Z
 ---------------------------------------------------------------------
      1         17           0       -1.475259   -0.215343   -0.000001
      2         17           0        1.475261   -0.215342   -0.000001
      3          6           0       -0.000005    0.761050   -0.000001
      4          1           0       -0.000010    1.377641    0.895459
      5          1           0        0.000008    1.377712   -0.895415
 ---------------------------------------------------------------------

 SCF Done:  E(RwB97XD) =  -959.743562419     A.U. after   11 cycles

 Alpha  occ. eigenvalues -- -101.74169-101.74169 -10.41519  -9.60152  -9.60151
 Alpha  occ. eigenvalues --   -7.34959  -7.34959  -7.34039  -7.34039  -7.34002
 Alpha  occ. eigenvalues --   -7.34002  -1.01014  -0.93059  -0.76498  -0.58928
 Alpha  occ. eigenvalues --   -0.55343  -0.53404  -0.41807  -0.41703  -0.39735
 Alpha  occ. eigenvalues --   -0.39194
 Alpha virt. eigenvalues --    0.02957   0.04568   0.05198   0.06430   0.08166
 Alpha virt. eigenvalues --    0.10659   0.11975   0.12631   0.12901   0.13246
 Alpha virt. eigenvalues --    0.13400   0.14089   0.14534   0.16997   0.20057

 Mulliken charges:
               1
     1  Cl  -0.179109
     2  Cl  -0.179115
     3  C   -0.154624
     4  H    0.256424
     5  H    0.256423
 Sum of Mulliken charges =  -0.00000

 Dipole moment (field-independent basis, Debye):
    X=             -0.0000    Y=              1.6870    Z=              0.0000  Tot=              1.6870
 Quadrupole moment (field-independent basis, Debye-Ang):
   XX=            -33.7773   YY=            -29.6274   ZZ=            -31.2852
   XY=              0.0000   XZ=             -0.0000   YZ=             -0.0000

  Exact polarizability:      54.437      -0.000      39.353      -0.000      -0.000      35.381
 Approx polarizability:      56.799      -0.000      45.314      -0.000      -0.000      40.196

 Normal termination of Gaussian 16 at Wed Jan  8 05:35:02 2020.
