 Gaussian 16, Revision C.01,
 Gaussian 16:  ES64L-G16RevC.01  3-Jul-2019

 ------------------------------------------------
 #p wB97XD/aug-cc-pvtz NoSymm MaxDisk=100GB polar
 ------------------------------------------------

 -----
 polar
 -----
 Symbolic Z-matrix:
 Charge =  0 Multiplicity = 1

                          Input orientation:
 ---------------------------------------------------------------------
 Center     Atomic      Atomic             Coordinates (Angstroms)
 Number     Number       Type             X           Y           Z
 ---------------------------------------------------------------------
      1         35           0       -1.615393   -0.125728    0.000000
      2         35           0        1.615392   -0.125729    0.000000
      3          6           0        0.000006    0.948983   -0.000003
      4          1           0       -0.000002    1.553478    0.902207
      5          1           0        0.000000    1.553608   -0.902124
 ---------------------------------------------------------------------

 SCF Done:  E(RwB97XD) =  -5187.82974897     A.U. after   12 cycles

 Alpha  occ. eigenvalues -- -483.15024-483.15024 -62.69734 -62.69733 -56.48881
 Alpha  occ. eigenvalues --  -56.48881 -56.48509 -56.48509 -56.48499 -56.48499
 Alpha  occ. eigenvalues --  -10.40584  -8.83331  -8.83331  -6.65465  -6.65464
 Alpha  occ. eigenvalues --   -6.64241  -6.64241  -6.64204  -6.64204  -2.75915
 Alpha  occ. eigenvalues --   -2.75914  -2.75572  -2.75571  -2.75542  -2.75542
 Alpha  occ. eigenvalues --   -2.74553  -2.74553  -2.74553  -2.74553  -0.95255
 Alpha  occ. eigenvalues --   -0.87557  -0.75629  -0.57690  -0.52103  -0.49624
 Alpha  occ. eigenvalues --   -0.39100  -0.38633  -0.37376  -0.36749
 Alpha virt. eigenvalues --    0.01621   0.03427   0.04637   0.04988   0.07600
 Alpha virt. eigenvalues --    0.08711   0.10529   0.10979   0.11023   0.11410
 Alpha virt. eigenvalues --    0.11564   0.13120   0.13831   0.14133   0.16537

 Mulliken charges:
               1
     1  Br   0.002068
     2  Br   0.002080
     3  C   -0.498809
     4  H    0.247338
     5  H    0.247322
 Sum of Mulliken charges =  -0.00000

 Dipole moment (field-independent basis, Debye):
    X=              0.0000    Y=              1.5139    Z=              0.0000  Tot=              1.5139
 Quadrupole moment (field-independent basis, Debye-Ang):
   XX=            -44.6600   YY=            -40.6270   ZZ=            -43.1831
   XY=             -0.0000   XZ=             -0.0000   YZ=             -0.0001

  Exact polarizability:      76.360       0.000      51.660      -0.000      -0.000      47.135
 Approx polarizability:      78.696       0.000      60.800      -0.000      -0.000      53.499

 1\1\GINC-NODE144\SP\RwB97XD\Aug-CC-pVTZ\C1H2Br2\LIUCHW\08-Jan-2020\0\\
 #p wB97XD/aug-cc-pvtz NoSymm MaxDisk=100GB polar\\polar\\0,1\Br,0,-1.6
 15393,-0.125728,0.\Br,0,1.615392,-0.125729,0.\C,0,0.000006,0.948983,-0
 .000003\H,0,-0.000002,1.553478,0.902207\H,0,0.,1.553608,-0.902124\\Ver
 sion=ES64L-G16RevC.01\HF=-5187.829749\RMSD=2.456e-09\Dipole=0.0000146,
 0.5956075,0.0000178\Polar=76.3595064,0.0000589,51.6602243,-0.0000019,-
 0.0000104,47.134669\HyperPolar=-0.0054106,20.4306456,-0.0005976,-40.15
 03439,-0.0021457,-0.0000236,-0.0015161,-0.0005342,-26.038007,-0.001788

 Normal termination of Gaussian 16 at Wed Jan  8 10:58:43 2020.
