 Gaussian 16, Revision C.01,
 Gaussian 16:  ES64L-G16RevC.01  3-Jul-2019

 ------------------------------------------------
 #p wB97XD/aug-cc-pvtz NoSymm MaxDisk=100GB polar
 ------------------------------------------------

 -----
 polar
 -----
 Symbolic Z-matrix:
 Charge =  0 Multiplicity = 1

                          Input orientation:
 ---------------------------------------------------------------------
 Center     Atomic      Atomic             Coordinates (Angstroms)
 Number     Number       Type             X           Y           Z
 ---------------------------------------------------------------------
      1          9           0        0.000002    0.755321    0.000000
      2          6           0        0.000002   -0.636020    0.000000
      3          1           0       -1.031922   -0.993912    0.000000
      4          1           0        0.515946   -0.993930    0.893675
      5          1           0        0.515946   -0.993930   -0.893675
 ---------------------------------------------------------------------

 SCF Done:  E(RwB97XD) =  -139.758772749     A.U. after   10 cycles

 Alpha  occ. eigenvalues --  -24.79484 -10.35881  -1.29323  -0.80096  -0.57756
 Alpha  occ. eigenvalues --   -0.57257  -0.57257  -0.43625  -0.43625
 Alpha virt. eigenvalues --    0.03129   0.04982   0.04982   0.07334   0.12592
 Alpha virt. eigenvalues --    0.12592   0.12961   0.17673   0.19343   0.19343
 Alpha virt. eigenvalues --    0.20320   0.21279   0.21280   0.30056   0.31385

 Mulliken charges:
               1
     1  F   -0.386971
     2  C   -0.342242
     3  H    0.243006
     4  H    0.243104
     5  H    0.243104
 Sum of Mulliken charges =  -0.00000

 Dipole moment (field-independent basis, Debye):
    X=             -0.0000    Y=             -1.8707    Z=              0.0000  Tot=              1.8707
 Quadrupole moment (field-independent basis, Debye-Ang):
   XX=            -11.8159   YY=            -12.6052   ZZ=            -11.8158
   XY=              0.0000   XZ=              0.0000   YZ=              0.0000

  Exact polarizability:      16.665       0.003      18.181      -0.000      -0.000      16.663
 Approx polarizability:      16.068      -0.000      17.825      -0.000      -0.000      16.069

 Normal termination of Gaussian 16 at Wed Jan  8 10:58:00 2020.
