 Gaussian 16, Revision C.01,
 Gaussian 16:  ES64L-G16RevC.01  3-Jul-2019

 ------------------------------------------------
 #p wB97XD/aug-cc-pvtz NoSymm MaxDisk=100GB polar
 ------------------------------------------------

 -----
 polar
 -----
 Symbolic Z-matrix:
 Charge =  0 Multiplicity = 1

                          Input orientation:
 ---------------------------------------------------------------------
 Center     Atomic      Atomic             Coordinates (Angstroms)
 Number     Number       Type             X           Y           Z
 ---------------------------------------------------------------------
      1         17           0       -0.656603    0.000000    0.000000
      2          6           0        1.122932    0.000003   -0.000023
      3          1           0        1.474847   -0.111053    1.024236
      4          1           0        1.474913   -0.831583   -0.608202
      5          1           0        1.474899    0.942622   -0.415889
 ---------------------------------------------------------------------

 SCF Done:  E(RwB97XD) =  -500.132414395     A.U. after   11 cycles

 Alpha  occ. eigenvalues -- -101.72013 -10.34399  -9.57979  -7.32774  -7.31860
 Alpha  occ. eigenvalues --   -7.31860  -0.95358  -0.77519  -0.53885  -0.53882
 Alpha  occ. eigenvalues --   -0.49826  -0.38237  -0.38236
 Alpha virt. eigenvalues --    0.02974   0.04936   0.04936   0.06187   0.10516
 Alpha virt. eigenvalues --    0.12327   0.12852   0.12853   0.14037   0.14037
 Alpha virt. eigenvalues --    0.14559   0.18312   0.18313   0.23364   0.25811

 Mulliken charges:
               1
     1  Cl  -0.189245
     2  C   -0.585152
     3  H    0.258151
     4  H    0.258137
     5  H    0.258109
 Sum of Mulliken charges =  -0.00000

 Dipole moment (field-independent basis, Debye):
    X=              1.9610    Y=             -0.0000    Z=              0.0001  Tot=              1.9610
 Quadrupole moment (field-independent basis, Debye-Ang):
   XX=            -18.0861   YY=            -19.8559   ZZ=            -19.8566
   XY=             -0.0001   XZ=              0.0001   YZ=              0.0000

  Exact polarizability:      35.943      -0.000      26.344       0.004       0.002      26.344
 Approx polarizability:      37.260      -0.000      28.067       0.000      -0.000      28.066

 1\1\GINC-NODE144\SP\RwB97XD\Aug-CC-pVTZ\C1H3Cl1\LIUCHW\08-Jan-2020\0\\
 #p wB97XD/aug-cc-pvtz NoSymm MaxDisk=100GB polar\\polar\\0,1\Cl,0,-0.6
 56603,0.,0.\C,0,1.122932,0.000003,-0.000023\H,0,1.474847,-0.111053,1.0
 24236\H,0,1.474913,-0.831583,-0.608202\H,0,1.474899,0.942622,-0.415889
 \\Version=ES64L-G16RevC.01\HF=-500.1324144\RMSD=3.370e-09\Dipole=0.771
 512,-0.0000123,0.0000332\Polar=35.9434418,-0.0004593,26.3441412,0.0044
 231,0.0024004,26.3440789\HyperPolar=5.4728935,0.0021396,-7.8121914,1.4
 330648,-0.0040699,-0.0179944,-4.2922094,-7.7533066,-1.487517,4.4587129

 Normal termination of Gaussian 16 at Wed Jan  8 10:58:08 2020.
