 Gaussian 16, Revision C.01,
 Gaussian 16:  ES64L-G16RevC.01  3-Jul-2019

 ------------------------------------------------
 #p wB97XD/aug-cc-pvtz NoSymm MaxDisk=100GB polar
 ------------------------------------------------

 -----
 polar
 -----
 Symbolic Z-matrix:
 Charge =  0 Multiplicity = 1

                          Input orientation:
 ---------------------------------------------------------------------
 Center     Atomic      Atomic             Coordinates (Angstroms)
 Number     Number       Type             X           Y           Z
 ---------------------------------------------------------------------
      1         35           0        0.421721   -0.000002    0.000001
      2          6           0       -1.529010    0.000035   -0.000022
      3          1           0       -1.861978    1.015429   -0.200790
      4          1           0       -1.862074   -0.681716   -0.778880
      5          1           0       -1.862115   -0.333845    0.979757
 ---------------------------------------------------------------------

 SCF Done:  E(RwB97XD) =  -2614.17675890     A.U. after   11 cycles

 Alpha  occ. eigenvalues -- -483.13071 -62.67785 -56.46922 -56.46560 -56.46560
 Alpha  occ. eigenvalues --  -10.34147  -8.81381  -6.63480  -6.62292  -6.62292
 Alpha  occ. eigenvalues --   -2.73933  -2.73592  -2.73592  -2.72632  -2.72632
 Alpha  occ. eigenvalues --   -0.90481  -0.76887  -0.53370  -0.53365  -0.46689
 Alpha  occ. eigenvalues --   -0.36166  -0.36165
 Alpha virt. eigenvalues --    0.02773   0.04852   0.04945   0.04945   0.08900
 Alpha virt. eigenvalues --    0.10946   0.11785   0.11785   0.12838   0.12839
 Alpha virt. eigenvalues --    0.13537   0.17608   0.17609   0.19247   0.23893

 Mulliken charges:
               1
     1  Br  -0.061093
     2  C   -0.701676
     3  H    0.254322
     4  H    0.254279
     5  H    0.254167
 Sum of Mulliken charges =  -0.00000

 Dipole moment (field-independent basis, Debye):
    X=             -1.9324    Y=             -0.0000    Z=              0.0000  Tot=              1.9324
 Quadrupole moment (field-independent basis, Debye-Ang):
   XX=            -22.0899   YY=            -25.8382   ZZ=            -25.8390
   XY=              0.0002   XZ=             -0.0001   YZ=             -0.0000

  Exact polarizability:      45.672      -0.003      32.833      -0.000       0.007      32.838
 Approx polarizability:      48.312       0.001      34.972      -0.000       0.000      34.972

 1\1\GINC-NODE144\SP\RwB97XD\Aug-CC-pVTZ\C1H3Br1\LIUCHW\08-Jan-2020\0\\
 #p wB97XD/aug-cc-pvtz NoSymm MaxDisk=100GB polar\\polar\\0,1\Br,0,0.42
 1721,-0.000002,0.000001\C,0,-1.52901,0.000035,-0.000022\H,0,-1.861978,
 1.015429,-0.20079\H,0,-1.862074,-0.681716,-0.77888\H,0,-1.862115,-0.33
 3845,0.979757\\Version=ES64L-G16RevC.01\HF=-2614.1767589\RMSD=4.159e-0
 9\Dipole=-0.7602622,-0.0000167,0.0000171\Polar=45.6717317,-0.0027461,3
 2.8332309,-0.0001142,0.0070429,32.8375994\HyperPolar=22.9094891,0.0132
 848,35.359946,3.9620645,0.040644,0.0687872,-1.6901607,35.4251114,-2.62

 Normal termination of Gaussian 16 at Wed Jan  8 10:58:15 2020.
