 Gaussian 16, Revision C.01,
 Gaussian 16:  ES64L-G16RevC.01  3-Jul-2019

 ------------------------------------------------
 #p wB97XD/aug-cc-pvtz NoSymm MaxDisk=100GB polar
 ------------------------------------------------

 -----
 polar
 -----
 Symbolic Z-matrix:
 Charge = -2 Multiplicity = 1

                          Input orientation:
 ---------------------------------------------------------------------
 Center     Atomic      Atomic             Coordinates (Angstroms)
 Number     Number       Type             X           Y           Z
 ---------------------------------------------------------------------
      1         15           0        0.164109   -0.063559    0.000281
      2          8           0       -1.376862    0.828907   -0.003215
      3          8           0        0.062398   -0.899359   -1.296149
      4          8           0        0.058472   -0.895264    1.299045
      5          8           0        1.196726    1.075781   -0.000002
      6          1           0       -1.987512    0.072863   -0.001646
 ---------------------------------------------------------------------

 SCF Done:  E(RwB97XD) =  -642.943940495     A.U. after   14 cycles

 Alpha  occ. eigenvalues --  -76.94368 -18.88637 -18.80875 -18.80800 -18.80799
 Alpha  occ. eigenvalues --   -6.34873  -4.50030  -4.49555  -4.49547  -0.74169
 Alpha  occ. eigenvalues --   -0.67472  -0.62032  -0.61742  -0.23987  -0.17261
 Alpha  occ. eigenvalues --   -0.12126  -0.09832  -0.07982  -0.04312  -0.00280
 Alpha  occ. eigenvalues --   -0.00031   0.00074   0.03092   0.04190   0.06351
 Alpha virt. eigenvalues --    0.24297   0.30976   0.31244   0.31252   0.35925
 Alpha virt. eigenvalues --    0.40151   0.41478   0.41882   0.42038   0.42775
 Alpha virt. eigenvalues --    0.47777   0.49658   0.50879   0.51370   0.51557

 Mulliken charges:
               1
     1  P    1.420818
     2  O   -0.608915
     3  O   -0.978037
     4  O   -0.978062
     5  O   -0.987056
     6  H    0.131252
 Sum of Mulliken charges =  -2.00000

 Dipole moment (field-independent basis, Debye):
    X=             -2.5726    Y=              0.1951    Z=             -0.0024  Tot=              2.5800
 Quadrupole moment (field-independent basis, Debye-Ang):
   XX=            -48.2652   YY=            -55.4990   ZZ=            -56.2546
   XY=             -0.8567   XZ=              0.0101   YZ=             -0.0034

  Exact polarizability:      65.710       0.644      62.612       0.000       0.002      63.047
 Approx polarizability:      57.857       1.860      56.950      -0.003       0.000      56.192

 Normal termination of Gaussian 16 at Wed Jan  8 10:58:51 2020.
