 Gaussian 16, Revision C.01,
 Gaussian 16:  ES64L-G16RevC.01  3-Jul-2019

 ------------------------------------------------
 #p wB97XD/aug-cc-pvtz NoSymm MaxDisk=100GB polar
 ------------------------------------------------

 -----
 polar
 -----
 Symbolic Z-matrix:
 Charge = -1 Multiplicity = 1

                          Input orientation:
 ---------------------------------------------------------------------
 Center     Atomic      Atomic             Coordinates (Angstroms)
 Number     Number       Type             X           Y           Z
 ---------------------------------------------------------------------
      1         15           0        0.000021    0.114610    0.130138
      2          8           0       -0.000299   -0.871648    1.280099
      3          8           0        1.299424   -0.331266   -0.838388
      4          8           0        0.000288    1.606230    0.257073
      5          8           0       -1.299395   -0.330773   -0.838600
      6          1           0        1.609522   -1.150101   -0.416697
      7          1           0       -1.609981   -1.149389   -0.416842
 ---------------------------------------------------------------------

 SCF Done:  E(RwB97XD) =  -643.687791924     A.U. after   12 cycles

 Alpha  occ. eigenvalues --  -77.16354 -19.09218 -19.09217 -19.01615 -19.01068
 Alpha  occ. eigenvalues --   -6.57005  -4.72028  -4.71915  -4.71544  -0.97860
 Alpha  occ. eigenvalues --   -0.93180  -0.86800  -0.84030  -0.49369  -0.41882
 Alpha  occ. eigenvalues --   -0.37463  -0.33591  -0.32416  -0.26967  -0.26027
 Alpha  occ. eigenvalues --   -0.23983  -0.20867  -0.18802  -0.17851  -0.16869
 Alpha virt. eigenvalues --    0.13610   0.14782   0.19674   0.19785   0.21461
 Alpha virt. eigenvalues --    0.23432   0.27557   0.27722   0.28418   0.28553
 Alpha virt. eigenvalues --    0.29551   0.33633   0.34541   0.36170   0.36261

 Mulliken charges:
               1
     1  P    1.570702
     2  O   -0.893618
     3  O   -0.541528
     4  O   -0.920197
     5  O   -0.541546
     6  H    0.163090
     7  H    0.163097
 Sum of Mulliken charges =  -1.00000

 Dipole moment (field-independent basis, Debye):
    X=             -0.0005    Y=             -3.2787    Z=             -1.4246  Tot=              3.5748
 Quadrupole moment (field-independent basis, Debye-Ang):
   XX=            -38.6968   YY=            -44.6234   ZZ=            -47.0055
   XY=             -0.0015   XZ=              0.0009   YZ=              2.2444

  Exact polarizability:      46.111       0.001      48.653      -0.000      -0.386      44.570
 Approx polarizability:      44.388       0.001      50.321      -0.001      -1.911      44.685

 Normal termination of Gaussian 16 at Wed Jan  8 05:37:46 2020.
