 Gaussian 16, Revision C.01,
 Gaussian 16:  ES64L-G16RevC.01  3-Jul-2019

 ------------------------------------------------
 #p wB97XD/aug-cc-pvtz NoSymm MaxDisk=100GB polar
 ------------------------------------------------

 -----
 polar
 -----
 Symbolic Z-matrix:
 Charge =  0 Multiplicity = 1

                          Input orientation:
 ---------------------------------------------------------------------
 Center     Atomic      Atomic             Coordinates (Angstroms)
 Number     Number       Type             X           Y           Z
 ---------------------------------------------------------------------
      1         15           0       -0.085638   -0.089654   -0.087355
      2          8           0       -0.724033    0.843000    1.082354
      3          8           0        0.916977    0.969950   -0.781347
      4          8           0       -1.088905   -0.801284   -0.902822
      5          8           0        0.988275   -1.052033    0.619198
      6          1           0        0.434999    1.715967   -1.181952
      7          1           0        1.716964   -0.551972    1.029798
      8          1           0       -1.605916    0.503749    1.323416
 ---------------------------------------------------------------------

 SCF Done:  E(RwB97XD) =  -644.224905019     A.U. after   12 cycles

 Alpha  occ. eigenvalues --  -77.39991 -19.31134 -19.30791 -19.30740 -19.22650
 Alpha  occ. eigenvalues --   -6.80672  -4.95613  -4.95587  -4.95283  -1.21826
 Alpha  occ. eigenvalues --   -1.15347  -1.15185  -1.07580  -0.75171  -0.67328
 Alpha  occ. eigenvalues --   -0.66197  -0.56780  -0.55084  -0.51265  -0.49350
 Alpha  occ. eigenvalues --   -0.48663  -0.46542  -0.44450  -0.40247  -0.39617
 Alpha virt. eigenvalues --    0.01851   0.03973   0.04088   0.07719   0.08737
 Alpha virt. eigenvalues --    0.09261   0.09553   0.12810   0.13058   0.14032
 Alpha virt. eigenvalues --    0.14582   0.14895   0.18015   0.19006   0.19536

 Mulliken charges:
               1
     1  P    1.665808
     2  O   -0.450370
     3  O   -0.444075
     4  O   -0.836420
     5  O   -0.424819
     6  H    0.157892
     7  H    0.177772
     8  H    0.154212
 Sum of Mulliken charges =  -0.00000

 Dipole moment (field-independent basis, Debye):
    X=              0.9628    Y=              2.7471    Z=              1.8960  Tot=              3.4739
 Quadrupole moment (field-independent basis, Debye-Ang):
   XX=            -32.4001   YY=            -36.2368   ZZ=            -34.3493
   XY=             -2.3060   XZ=             -2.0123   YZ=             -4.6491

  Exact polarizability:      40.476       0.726      38.519       0.847       0.025      37.983
 Approx polarizability:      42.850       1.869      40.720       1.961       0.757      39.076

 Normal termination of Gaussian 16 at Wed Jan  8 05:38:11 2020.
