 Gaussian 16, Revision C.01,
 Gaussian 16:  ES64L-G16RevC.01  3-Jul-2019

 ------------------------------------------------
 #p wB97XD/aug-cc-pvtz NoSymm MaxDisk=100GB polar
 ------------------------------------------------

 -----
 polar
 -----
 Symbolic Z-matrix:
 Charge =  1 Multiplicity = 1

                          Input orientation:
 ---------------------------------------------------------------------
 Center     Atomic      Atomic             Coordinates (Angstroms)
 Number     Number       Type             X           Y           Z
 ---------------------------------------------------------------------
      1          7           0        0.709022   -0.000024    0.000000
      2          1           0        1.087009    0.477331   -0.828896
      3          1           0        1.087009    0.479365    0.827721
      4          1           0        1.087194   -0.956471    0.001174
      5          6           0       -0.800615   -0.000010    0.000000
      6          1           0       -1.140229   -0.515671    0.895728
      7          1           0       -1.140219    1.033547   -0.001269
      8          1           0       -1.140228   -0.517869   -0.894460
 ---------------------------------------------------------------------

 SCF Done:  E(RwB97XD) =  -96.2269778183     A.U. after    9 cycles

 Alpha  occ. eigenvalues --  -14.78393 -10.54757  -1.32159  -1.03170  -0.89222
 Alpha  occ. eigenvalues --   -0.89220  -0.79202  -0.71015  -0.71015
 Alpha virt. eigenvalues --   -0.14254  -0.09063  -0.09062  -0.08910  -0.05188
 Alpha virt. eigenvalues --   -0.05187  -0.05177  -0.02340  -0.02340  -0.02210
 Alpha virt. eigenvalues --   -0.01099  -0.00869  -0.00869   0.01870   0.01871

 Mulliken charges:
               1
     1  N    0.330737
     2  H    0.090422
     3  H    0.090422
     4  H    0.090330
     5  C   -0.414781
     6  H    0.270974
     7  H    0.270924
     8  H    0.270972
 Sum of Mulliken charges =   1.00000

 Dipole moment (field-independent basis, Debye):
    X=              2.2047    Y=              0.0003    Z=             -0.0000  Tot=              2.2047
 Quadrupole moment (field-independent basis, Debye-Ang):
   XX=             -6.6097   YY=            -10.0162   ZZ=            -10.0168
   XY=             -0.0001   XZ=             -0.0000   YZ=              0.0000

  Exact polarizability:      22.225      -0.000      19.277      -0.000       0.000      19.276
 Approx polarizability:      21.300      -0.000      20.372      -0.000       0.000      20.372

 Normal termination of Gaussian 16 at Wed Jan  8 11:00:40 2020.
