 Gaussian 16, Revision C.01,
 Gaussian 16:  ES64L-G16RevC.01  3-Jul-2019

 ------------------------------------------------
 #p wB97XD/aug-cc-pvtz NoSymm MaxDisk=100GB polar
 ------------------------------------------------

 -----
 polar
 -----
 Symbolic Z-matrix:
 Charge =  1 Multiplicity = 1

                          Input orientation:
 ---------------------------------------------------------------------
 Center     Atomic      Atomic             Coordinates (Angstroms)
 Number     Number       Type             X           Y           Z
 ---------------------------------------------------------------------
      1          6           0       -0.687856    0.973933    0.000000
      2          6           0        0.683164    0.977107    0.000010
      3          7           0        1.074310   -0.342221   -0.000014
      4          6           0        0.002786   -1.146523    0.000017
      5          7           0       -1.072643   -0.347279   -0.000009
      6          1           0       -2.034536   -0.681561   -0.000017
      7          1           0        2.037855   -0.671929   -0.000037
      8          1           0       -1.398824    1.786514   -0.000006
      9          1           0        1.390112    1.793181    0.000024
     10          1           0        0.005158   -2.226806    0.000031
 ---------------------------------------------------------------------

 SCF Done:  E(RwB97XD) =  -226.600160250     A.U. after   12 cycles

 Alpha  occ. eigenvalues --  -14.72577 -14.72575 -10.59270 -10.53537 -10.53464
 Alpha  occ. eigenvalues --   -1.36983  -1.23430  -1.08240  -0.97566  -0.93099
 Alpha  occ. eigenvalues --   -0.88472  -0.80955  -0.76635  -0.75576  -0.73895
 Alpha  occ. eigenvalues --   -0.72586  -0.62341  -0.53718
 Alpha virt. eigenvalues --   -0.14501  -0.10312  -0.10146  -0.08419  -0.07043
 Alpha virt. eigenvalues --   -0.05645  -0.05385  -0.05295  -0.04458  -0.01461
 Alpha virt. eigenvalues --   -0.01069  -0.01012  -0.00931  -0.00714  -0.00046

 Mulliken charges:
               1
     1  C   -0.107183
     2  C   -0.107146
     3  N    0.060984
     4  C   -0.229765
     5  N    0.061050
     6  H    0.061867
     7  H    0.061893
     8  H    0.392517
     9  H    0.392498
    10  H    0.413284
 Sum of Mulliken charges =   1.00000

 Dipole moment (field-independent basis, Debye):
    X=              0.0035    Y=             -1.4267    Z=             -0.0000  Tot=              1.4267
 Quadrupole moment (field-independent basis, Debye-Ang):
   XX=            -12.2782   YY=            -16.1808   ZZ=            -29.7634
   XY=              0.0082   XZ=             -0.0000   YZ=              0.0000

  Exact polarizability:      48.109      -0.007      50.813       0.000      -0.000      27.455
 Approx polarizability:      57.975      -0.002      58.245       0.000      -0.000      31.515

 Normal termination of Gaussian 16 at Wed Jan  8 11:06:36 2020.
