 Gaussian 16, Revision C.01,
 Gaussian 16:  ES64L-G16RevC.01  3-Jul-2019

 ------------------------------------------------
 #p wB97XD/aug-cc-pvtz NoSymm MaxDisk=100GB polar
 ------------------------------------------------

 -----
 polar
 -----
 Symbolic Z-matrix:
 Charge =  1 Multiplicity = 1

                          Input orientation:
 ---------------------------------------------------------------------
 Center     Atomic      Atomic             Coordinates (Angstroms)
 Number     Number       Type             X           Y           Z
 ---------------------------------------------------------------------
      1          6           0        0.000239    0.000000    0.000007
      2          7           0        1.335169   -0.003741    0.000009
      3          7           0       -0.664547    1.157910    0.000006
      4          7           0       -0.671031   -1.154168   -0.000037
      5          1           0       -1.682490   -1.179744   -0.000032
      6          1           0       -0.191748   -2.045412    0.000221
      7          1           0        1.863477   -0.866956   -0.000149
      8          1           0        1.868304    0.856501    0.000105
      9          1           0       -0.180275    2.046448   -0.000135
     10          1           0       -1.675844    1.189165    0.000108
 ---------------------------------------------------------------------

 SCF Done:  E(RwB97XD) =  -205.788541763     A.U. after   10 cycles

 Alpha  occ. eigenvalues --  -14.67257 -14.67246 -14.67245 -10.64645  -1.32562
 Alpha  occ. eigenvalues --   -1.20407  -1.20396  -0.95652  -0.88425  -0.88421
 Alpha  occ. eigenvalues --   -0.78444  -0.78411  -0.78368  -0.73808  -0.57013
 Alpha  occ. eigenvalues --   -0.57004
 Alpha virt. eigenvalues --   -0.11344  -0.10958  -0.08238  -0.08236  -0.05737
 Alpha virt. eigenvalues --   -0.05734  -0.04231  -0.02702  -0.02243  -0.01644
 Alpha virt. eigenvalues --   -0.00607  -0.00606   0.00178   0.00180   0.01202

 Mulliken charges:
               1
     1  C    0.873343
     2  N   -0.081594
     3  N   -0.081123
     4  N   -0.081127
     5  H    0.061577
     6  H    0.061822
     7  H    0.061856
     8  H    0.061856
     9  H    0.061817
    10  H    0.061573
 Sum of Mulliken charges =   1.00000

 Dipole moment (field-independent basis, Debye):
    X=              0.0038    Y=              0.0000    Z=              0.0002  Tot=              0.0038
 Quadrupole moment (field-independent basis, Debye-Ang):
   XX=             -9.4204   YY=             -9.4398   ZZ=            -26.1252
   XY=             -0.0001   XZ=             -0.0005   YZ=             -0.0008

  Exact polarizability:      40.871      -0.000      40.851       0.000       0.000      24.245
 Approx polarizability:      42.507      -0.000      42.493       0.000       0.000      25.969

 Normal termination of Gaussian 16 at Wed Jan  8 11:04:11 2020.
