 Gaussian 16, Revision C.01,
 Gaussian 16:  ES64L-G16RevC.01  3-Jul-2019

 ------------------------------------------------
 #p wB97XD/aug-cc-pvtz NoSymm MaxDisk=100GB polar
 ------------------------------------------------

 -----
 polar
 -----
 Symbolic Z-matrix:
 Charge = -1 Multiplicity = 1

                          Input orientation:
 ---------------------------------------------------------------------
 Center     Atomic      Atomic             Coordinates (Angstroms)
 Number     Number       Type             X           Y           Z
 ---------------------------------------------------------------------
      1          6           0        1.346881   -0.062276    0.000068
      2          6           0       -0.212806    0.002482   -0.000580
      3          8           0       -0.813488   -1.109489    0.000152
      4          8           0       -0.685329    1.175902    0.000150
      5          1           0        1.738394    0.461483    0.880363
      6          1           0        1.708591   -1.095312    0.000327
      7          1           0        1.739099    0.461290   -0.880027
 ---------------------------------------------------------------------

 SCF Done:  E(RwB97XD) =  -228.537716868     A.U. after   13 cycles

 Alpha  occ. eigenvalues --  -18.99128 -18.98917 -10.17661 -10.10155  -0.91568
 Alpha  occ. eigenvalues --   -0.83085  -0.62912  -0.39548  -0.33466  -0.32656
 Alpha  occ. eigenvalues --   -0.31311  -0.27362  -0.24748  -0.13258  -0.11990
 Alpha  occ. eigenvalues --   -0.11740
 Alpha virt. eigenvalues --    0.13778   0.14874   0.14952   0.18990   0.22425
 Alpha virt. eigenvalues --    0.23263   0.23454   0.25221   0.25258   0.25899
 Alpha virt. eigenvalues --    0.30554   0.30561   0.32375   0.33502   0.35641

 Mulliken charges:
               1
     1  C   -0.780372
     2  C    0.510765
     3  O   -0.742539
     4  O   -0.765549
     5  H    0.245998
     6  H    0.285717
     7  H    0.245981
 Sum of Mulliken charges =  -1.00000

 Dipole moment (field-independent basis, Debye):
    X=              3.7519    Y=             -0.1853    Z=             -0.0008  Tot=              3.7564
 Quadrupole moment (field-independent basis, Debye-Ang):
   XX=            -32.6653   YY=            -36.2062   ZZ=            -25.7566
   XY=             -0.1869   XZ=              0.0013   YZ=              0.0002

  Exact polarizability:      52.473       0.420      50.345      -0.002      -0.000      34.793
 Approx polarizability:      45.023       0.825      51.984      -0.004      -0.000      35.826

 Normal termination of Gaussian 16 at Wed Jan  8 11:01:40 2020.
