 Gaussian 16, Revision C.01,
 Gaussian 16:  ES64L-G16RevC.01  3-Jul-2019

 ------------------------------------------------
 #p wB97XD/aug-cc-pvtz NoSymm MaxDisk=100GB polar
 ------------------------------------------------

 -----
 polar
 -----
 Symbolic Z-matrix:
 Charge =  0 Multiplicity = 1

                          Input orientation:
 ---------------------------------------------------------------------
 Center     Atomic      Atomic             Coordinates (Angstroms)
 Number     Number       Type             X           Y           Z
 ---------------------------------------------------------------------
      1          6           0        0.000000    0.415956    0.000000
      2          1           0       -0.334090    1.460397    0.000000
      3          7           0        1.224527    0.020987    0.000000
      4          1           0        1.841528    0.833911    0.000000
      5          7           0       -1.036619   -0.472011    0.000000
      6          1           0       -0.826090   -1.459266    0.000000
      7          1           0       -1.996703   -0.173610    0.000000
 ---------------------------------------------------------------------

 SCF Done:  E(RwB97XD) =  -150.017091661     A.U. after   12 cycles

 Alpha  occ. eigenvalues --  -14.45412 -14.39737 -10.36085  -1.04444  -0.94607
 Alpha  occ. eigenvalues --   -0.70926  -0.64884  -0.54816  -0.53537  -0.46315
 Alpha  occ. eigenvalues --   -0.35103  -0.32225
 Alpha virt. eigenvalues --    0.02628   0.03926   0.04801   0.06599   0.08348
 Alpha virt. eigenvalues --    0.09488   0.10493   0.11471   0.12376   0.13347
 Alpha virt. eigenvalues --    0.14362   0.15926   0.16419   0.17716   0.18083

 Mulliken charges:
               1
     1  C   -0.037708
     2  H    0.454779
     3  N   -0.537618
     4  H    0.129066
     5  N   -0.164550
     6  H    0.103670
     7  H    0.052361
 Sum of Mulliken charges =  -0.00000

 Dipole moment (field-independent basis, Debye):
    X=             -2.7043    Y=              1.1438    Z=              0.0000  Tot=              2.9363
 Quadrupole moment (field-independent basis, Debye-Ang):
   XX=            -16.8739   YY=            -15.6130   ZZ=            -21.0918
   XY=              2.9791   XZ=              0.0000   YZ=             -0.0000

  Exact polarizability:      44.452       2.054      31.979      -0.000       0.000      24.838
 Approx polarizability:      45.448       0.629      32.416      -0.000       0.000      25.005

 Normal termination of Gaussian 16 at Wed Mar 23 18:43:06 2011.
