 Gaussian 16, Revision C.01,
 Gaussian 16:  ES64L-G16RevC.01  3-Jul-2019

 ------------------------------------------------
 #p wB97XD/aug-cc-pvtz NoSymm MaxDisk=100GB polar
 ------------------------------------------------

 -----
 polar
 -----
 Symbolic Z-matrix:
 Charge =  0 Multiplicity = 1

                          Input orientation:
 ---------------------------------------------------------------------
 Center     Atomic      Atomic             Coordinates (Angstroms)
 Number     Number       Type             X           Y           Z
 ---------------------------------------------------------------------
      1          6           0        0.000000    0.422539    0.000000
      2          1           0       -0.440817    1.435583    0.000000
      3          8           0        1.208273    0.222011    0.000000
      4          7           0       -0.948290   -0.554866    0.000000
      5          1           0       -0.653458   -1.521717    0.000000
      6          1           0       -1.933882   -0.341131    0.000000
 ---------------------------------------------------------------------

 SCF Done:  E(RwB97XD) =  -169.908535503     A.U. after   11 cycles

 Alpha  occ. eigenvalues --  -19.22838 -14.47361 -10.39880  -1.14005  -1.01808
 Alpha  occ. eigenvalues --   -0.72905  -0.65453  -0.57659  -0.50893  -0.50112
 Alpha  occ. eigenvalues --   -0.36836  -0.35227
 Alpha virt. eigenvalues --    0.02284   0.03948   0.05201   0.07305   0.09051
 Alpha virt. eigenvalues --    0.09950   0.10607   0.11983   0.13091   0.14240
 Alpha virt. eigenvalues --    0.15435   0.17180   0.20452   0.20816   0.21907

 Mulliken charges:
               1
     1  C    0.115865
     2  H    0.443994
     3  O   -0.606762
     4  N   -0.148749
     5  H    0.112378
     6  H    0.083273
 Sum of Mulliken charges =  -0.00000

 Dipole moment (field-independent basis, Debye):
    X=             -4.0251    Y=             -0.6087    Z=              0.0000  Tot=              4.0709
 Quadrupole moment (field-independent basis, Debye-Ang):
   XX=            -18.5397   YY=            -14.7538   ZZ=            -18.9727
   XY=             -0.0650   XZ=              0.0000   YZ=              0.0000

  Exact polarizability:      35.224       2.190      28.222      -0.000      -0.000      20.268
 Approx polarizability:      38.080       1.386      27.704      -0.000      -0.000      20.744

 Normal termination of Gaussian 16 at Wed Mar 23 18:44:19 2011.
