 Gaussian 16, Revision C.01,
 Gaussian 16:  ES64L-G16RevC.01  3-Jul-2019

 ------------------------------------------------
 #p wB97XD/aug-cc-pvtz NoSymm MaxDisk=100GB polar
 ------------------------------------------------

 -----
 polar
 -----
 Symbolic Z-matrix:
 Charge =  0 Multiplicity = 1

                          Input orientation:
 ---------------------------------------------------------------------
 Center     Atomic      Atomic             Coordinates (Angstroms)
 Number     Number       Type             X           Y           Z
 ---------------------------------------------------------------------
      1          6           0        0.000000    0.424505    0.000000
      2          1           0       -0.377375    1.453724    0.000000
      3          8           0        1.170428    0.103674    0.000000
      4          8           0       -1.041947   -0.436822    0.000000
      5          1           0       -0.650466   -1.335567    0.000000
 ---------------------------------------------------------------------

 SCF Done:  E(RwB97XD) =  -189.778858778     A.U. after   11 cycles

 Alpha  occ. eigenvalues --  -19.32383 -19.26440 -10.43768  -1.22463  -1.13597
 Alpha  occ. eigenvalues --   -0.76811  -0.61758  -0.59374  -0.54850  -0.50678
 Alpha  occ. eigenvalues --   -0.42762  -0.38778
 Alpha virt. eigenvalues --    0.03135   0.03978   0.05086   0.08370   0.08582
 Alpha virt. eigenvalues --    0.10402   0.13117   0.13701   0.15932   0.17609
 Alpha virt. eigenvalues --    0.17841   0.21029   0.22312   0.23476   0.24511

 Mulliken charges:
               1
     1  C    0.169678
     2  H    0.440914
     3  O   -0.538438
     4  O   -0.283314
     5  H    0.211160
 Sum of Mulliken charges =  -0.00000

 Dipole moment (field-independent basis, Debye):
    X=             -1.5790    Y=             -0.2175    Z=             -0.0000  Tot=              1.5939
 Quadrupole moment (field-independent basis, Debye-Ang):
   XX=            -22.2124   YY=            -12.7400   ZZ=            -17.0777
   XY=             -0.0863   XZ=              0.0000   YZ=             -0.0000

  Exact polarizability:      27.583       0.600      23.908      -0.000       0.000      16.358
 Approx polarizability:      30.918      -0.231      23.750      -0.000       0.000      17.077

 Normal termination of Gaussian 16 at Wed Jan  8 05:38:25 2020.
