 Gaussian 16, Revision C.01,
 Gaussian 16:  ES64L-G16RevC.01  3-Jul-2019

 ------------------------------------------------
 #p wB97XD/aug-cc-pvtz NoSymm MaxDisk=100GB polar
 ------------------------------------------------

 -----
 polar
 -----
 Symbolic Z-matrix:
 Charge =  0 Multiplicity = 1

                          Input orientation:
 ---------------------------------------------------------------------
 Center     Atomic      Atomic             Coordinates (Angstroms)
 Number     Number       Type             X           Y           Z
 ---------------------------------------------------------------------
      1          6           0       -0.000030    0.004737    0.762949
      2          6           0        0.000029   -0.004736   -0.762950
      3          1           0        0.745142    0.702745    1.153735
      4          1           0       -0.975010    0.304770    1.156143
      5          1           0        0.229726   -0.985922    1.164235
      6          1           0       -0.229657    0.985932   -1.164250
      7          1           0        0.975002   -0.304839   -1.156124
      8          1           0       -0.745193   -0.702697   -1.153735
 ---------------------------------------------------------------------

 SCF Done:  E(RwB97XD) =  -79.8331743765     A.U. after    9 cycles

 Alpha  occ. eigenvalues --  -10.27129 -10.27106  -0.85131  -0.70908  -0.52090
 Alpha  occ. eigenvalues --   -0.52089  -0.44992  -0.42369  -0.42368
 Alpha virt. eigenvalues --    0.03408   0.04500   0.04629   0.04629   0.07084
 Alpha virt. eigenvalues --    0.07084   0.10384   0.12310   0.12315   0.12316
 Alpha virt. eigenvalues --    0.13312   0.14221   0.14221   0.17659   0.20217

 Mulliken charges:
               1
     1  C   -0.773060
     2  C   -0.773058
     3  H    0.257588
     4  H    0.257710
     5  H    0.257761
     6  H    0.257760
     7  H    0.257711
     8  H    0.257588
 Sum of Mulliken charges =  -0.00000

 Dipole moment (field-independent basis, Debye):
    X=             -0.0000    Y=              0.0000    Z=              0.0000  Tot=              0.0000
 Quadrupole moment (field-independent basis, Debye-Ang):
   XX=            -14.8105   YY=            -14.8105   ZZ=            -15.5473
   XY=             -0.0000   XZ=              0.0001   YZ=             -0.0047

  Exact polarizability:      27.513       0.003      27.517       0.000       0.021      31.276
 Approx polarizability:      28.217      -0.000      28.217      -0.000       0.002      28.588

 Normal termination of Gaussian 16 at Wed Jan  8 11:02:39 2020.
