 Gaussian 16, Revision C.01,
 Gaussian 16:  ES64L-G16RevC.01  3-Jul-2019

 ------------------------------------------------
 #p wB97XD/aug-cc-pvtz NoSymm MaxDisk=100GB polar
 ------------------------------------------------

 -----
 polar
 -----
 Symbolic Z-matrix:
 Charge =  0 Multiplicity = 1

                          Input orientation:
 ---------------------------------------------------------------------
 Center     Atomic      Atomic             Coordinates (Angstroms)
 Number     Number       Type             X           Y           Z
 ---------------------------------------------------------------------
      1          6           0        0.078489    0.560095    0.047482
      2          6           0       -1.210346   -0.242303   -0.021761
      3          8           0        1.236798   -0.260905   -0.111011
      4          1           0        0.126789    1.278777   -0.773643
      5          1           0        0.127217    1.129645    0.986606
      6          1           0       -2.084951    0.411905    0.047224
      7          1           0        1.248126   -0.883595    0.635026
      8          1           0       -1.264196   -0.962108    0.801736
      9          1           0       -1.256227   -0.794133   -0.963193
 ---------------------------------------------------------------------

 SCF Done:  E(RwB97XD) =  -155.055241789     A.U. after   11 cycles

 Alpha  occ. eigenvalues --  -19.25271 -10.33172 -10.27862  -1.11955  -0.84794
 Alpha  occ. eigenvalues --   -0.71908  -0.59292  -0.54129  -0.52068  -0.46871
 Alpha  occ. eigenvalues --   -0.45629  -0.41322  -0.36210
 Alpha virt. eigenvalues --    0.03063   0.04150   0.04433   0.04797   0.06746
 Alpha virt. eigenvalues --    0.06855   0.10230   0.10504   0.11996   0.12316
 Alpha virt. eigenvalues --    0.12792   0.13302   0.13884   0.16844   0.17930

 Mulliken charges:
               1
     1  C   -0.087665
     2  C   -0.869990
     3  O   -0.538135
     4  H    0.286941
     5  H    0.253255
     6  H    0.272555
     7  H    0.157226
     8  H    0.263662
     9  H    0.262151
 Sum of Mulliken charges =  -0.00000

 Dipole moment (field-independent basis, Debye):
    X=             -1.2716    Y=             -0.0812    Z=              1.1845  Tot=              1.7397
 Quadrupole moment (field-independent basis, Debye-Ang):
   XX=            -22.3775   YY=            -18.7866   ZZ=            -19.1052
   XY=             -0.8829   XZ=              1.8064   YZ=             -1.4848

  Exact polarizability:      35.962      -0.355      33.472       0.208      -0.192      31.252
 Approx polarizability:      33.656      -1.213      33.914      -0.211      -0.821      33.127

 Normal termination of Gaussian 16 at Wed Jan  8 11:01:36 2020.
