 Gaussian 16, Revision C.01,
 Gaussian 16:  ES64L-G16RevC.01  3-Jul-2019

 ------------------------------------------------
 #p wB97XD/aug-cc-pvtz NoSymm MaxDisk=100GB polar
 ------------------------------------------------

 -----
 polar
 -----
 Symbolic Z-matrix:
 Charge =  0 Multiplicity = 1

                          Input orientation:
 ---------------------------------------------------------------------
 Center     Atomic      Atomic             Coordinates (Angstroms)
 Number     Number       Type             X           Y           Z
 ---------------------------------------------------------------------
      1          6           0       -2.626001   -1.318179    0.000146
      2          6           0       -0.178565   -0.390987    0.000220
      3          6           0       -1.602875   -0.227181   -0.000033
      4          6           0        0.403793    0.906525   -0.000151
      5          6           0       -1.834322    1.130850   -0.000064
      6          6           0        2.043251   -1.318898    0.000032
      7          6           0        2.597826   -0.020132   -0.000076
      8          6           0        0.668844   -1.514967   -0.000286
      9          6           0        1.789452    1.109864    0.000296
     10          7           0       -0.632840    1.811685   -0.000102
     11          1           0        2.709393   -2.178516   -0.000358
     12          1           0        3.678948    0.097859    0.000269
     13          1           0        0.253776   -2.521368   -0.000066
     14          1           0        2.219400    2.109780    0.000285
     15          1           0       -3.637670   -0.901379   -0.000193
     16          1           0       -2.528162   -1.958841    0.883284
     17          1           0       -2.773748    1.671056   -0.000361
     18          1           0       -0.532652    2.817675   -0.000120
     19          1           0       -2.527829   -1.959432   -0.882530
 ---------------------------------------------------------------------

 SCF Done:  E(RwB97XD) =  -403.136139772     A.U. after   14 cycles

 Alpha  occ. eigenvalues --  -14.47840 -10.31929 -10.31634 -10.28923 -10.28499
 Alpha  occ. eigenvalues --  -10.28412 -10.28284 -10.28187 -10.27996 -10.27878
 Alpha  occ. eigenvalues --   -1.07969  -0.93801  -0.89482  -0.83271  -0.82423
 Alpha  occ. eigenvalues --   -0.78586  -0.71408  -0.68285  -0.64854  -0.62438
 Alpha  occ. eigenvalues --   -0.57039  -0.55636  -0.52411  -0.52150  -0.51272
 Alpha  occ. eigenvalues --   -0.49343  -0.48459  -0.47313  -0.45792  -0.42938
 Alpha  occ. eigenvalues --   -0.42180  -0.41165  -0.35313  -0.29619  -0.27415
 Alpha virt. eigenvalues --    0.02698   0.03393   0.03533   0.04239   0.04572
 Alpha virt. eigenvalues --    0.04739   0.05706   0.06458   0.06654   0.07957
 Alpha virt. eigenvalues --    0.08167   0.09072   0.09232   0.09761   0.10253

 Mulliken charges:
               1
     1  C   -0.962821
     2  C    0.836835
     3  C    0.494764
     4  C    0.190071
     5  C   -1.175358
     6  C   -0.696271
     7  C   -0.267432
     8  C   -0.616315
     9  C   -1.117844
    10  N   -0.068618
    11  H    0.487495
    12  H    0.514605
    13  H    0.441792
    14  H    0.527906
    15  H    0.226694
    16  H    0.289280
    17  H    0.709084
    18  H   -0.103347
    19  H    0.289478
 Sum of Mulliken charges =  -0.00000

 Dipole moment (field-independent basis, Debye):
    X=             -0.9470    Y=              1.7747    Z=             -0.0001  Tot=              2.0116
 Quadrupole moment (field-independent basis, Debye-Ang):
   XX=            -54.2330   YY=            -48.2622   ZZ=            -64.1210
   XY=             -0.8349   XZ=              0.0008   YZ=             -0.0003

  Exact polarizability:     150.829      -5.899     125.458       0.001       0.002      68.607
 Approx polarizability:     159.163      -8.704     151.185       0.001       0.005      82.889

 Normal termination of Gaussian 16 at Wed Jan  8 12:50:48 2020.
