 Gaussian 16, Revision C.01,
 Gaussian 16:  ES64L-G16RevC.01  3-Jul-2019

 ------------------------------------------------
 #p wB97XD/aug-cc-pvtz NoSymm MaxDisk=100GB polar
 ------------------------------------------------

 -----
 polar
 -----
 Symbolic Z-matrix:
 Charge =  0 Multiplicity = 1

                          Input orientation:
 ---------------------------------------------------------------------
 Center     Atomic      Atomic             Coordinates (Angstroms)
 Number     Number       Type             X           Y           Z
 ---------------------------------------------------------------------
      1          6           0       -2.885924    0.013908    0.015716
      2          6           0        1.436767   -0.014969    0.004159
      3          6           0        0.746622    1.198645   -0.002873
      4          6           0        0.728457   -1.219350   -0.002469
      5          6           0       -0.649816    1.200480   -0.008860
      6          6           0       -0.663691   -1.198665   -0.008951
      7          6           0       -1.379325    0.007343   -0.016126
      8          8           0        2.810188   -0.096878    0.008805
      9          1           0        1.293682    2.141008   -0.003590
     10          1           0        3.169611    0.807592    0.012685
     11          1           0        1.282435   -2.154041   -0.002401
     12          1           0       -1.176719    2.153303   -0.017134
     13          1           0       -1.206062   -2.142934   -0.017400
     14          1           0       -3.295486   -0.815632   -0.568167
     15          1           0       -3.283494    0.945375   -0.397312
     16          1           0       -3.264002   -0.083994    1.039292
 ---------------------------------------------------------------------

 SCF Done:  E(RwB97XD) =  -346.793912760     A.U. after   13 cycles

 Alpha  occ. eigenvalues --  -19.28518 -10.35179 -10.29506 -10.29324 -10.29259
 Alpha  occ. eigenvalues --  -10.29136 -10.28681 -10.28135  -1.16049  -0.95646
 Alpha  occ. eigenvalues --   -0.86663  -0.84844  -0.77868  -0.71682  -0.68222
 Alpha  occ. eigenvalues --   -0.63347  -0.57597  -0.55409  -0.52286  -0.51080
 Alpha  occ. eigenvalues --   -0.50793  -0.49282  -0.48946  -0.45785  -0.43768
 Alpha  occ. eigenvalues --   -0.41958  -0.41596  -0.33317  -0.29522
 Alpha virt. eigenvalues --    0.02860   0.03393   0.03871   0.04766   0.04842
 Alpha virt. eigenvalues --    0.04956   0.05267   0.06808   0.07083   0.07704
 Alpha virt. eigenvalues --    0.08682   0.09933   0.10428   0.10920   0.11165

 Mulliken charges:
               1
     1  C   -0.868792
     2  C    1.101693
     3  C   -0.924992
     4  C   -0.997965
     5  C   -0.952863
     6  C   -0.957049
     7  C    1.027748
     8  O   -0.784221
     9  H    0.662524
    10  H    0.153661
    11  H    0.733490
    12  H    0.479317
    13  H    0.453716
    14  H    0.286120
    15  H    0.275874
    16  H    0.311742
 Sum of Mulliken charges =  -0.00000

 Dipole moment (field-independent basis, Debye):
    X=             -0.4586    Y=              1.2713    Z=              0.0387  Tot=              1.3521
 Quadrupole moment (field-independent basis, Debye-Ang):
   XX=            -44.1611   YY=            -42.2206   ZZ=            -51.1628
   XY=              4.9302   XZ=             -0.0362   YZ=              0.0214

  Exact polarizability:     115.244       1.306      93.161      -0.179       0.002      56.042
 Approx polarizability:     118.950       0.882     110.540      -0.048      -0.000      66.036

 Normal termination of Gaussian 16 at Wed Jan  8 06:19:49 2020.
