 Gaussian 16, Revision C.01,
 Gaussian 16:  ES64L-G16RevC.01  3-Jul-2019

 ------------------------------------------------
 #p wB97XD/aug-cc-pvtz NoSymm MaxDisk=100GB polar
 ------------------------------------------------

 -----
 polar
 -----
 Symbolic Z-matrix:
 Charge =  1 Multiplicity = 1

                          Input orientation:
 ---------------------------------------------------------------------
 Center     Atomic      Atomic             Coordinates (Angstroms)
 Number     Number       Type             X           Y           Z
 ---------------------------------------------------------------------
      1          6           0        1.960326   -0.047463    0.064961
      2          6           0       -0.511949   -0.007021   -0.023889
      3          7           0        0.641876   -0.670578   -0.075010
      4          7           0       -0.522796    1.330121   -0.011577
      5          7           0       -1.671150   -0.677289    0.038626
      6          1           0        0.603294   -1.654968   -0.314134
      7          1           0        0.290221    1.867774   -0.281247
      8          1           0       -1.359475    1.844616    0.232121
      9          1           0       -1.698833   -1.660354    0.276212
     10          1           0       -2.554063   -0.221269   -0.151253
     11          1           0        1.959950    0.628070    0.922143
     12          1           0        2.249187    0.486641   -0.844262
     13          1           0        2.683944   -0.839384    0.249720
 ---------------------------------------------------------------------

 SCF Done:  E(RwB97XD) =  -245.100452577     A.U. after   11 cycles

 Alpha  occ. eigenvalues --  -14.66787 -14.66296 -14.65967 -10.62932 -10.49319
 Alpha  occ. eigenvalues --   -1.31591  -1.20431  -1.19220  -0.99963  -0.92351
 Alpha  occ. eigenvalues --   -0.87664  -0.84272  -0.78750  -0.77815  -0.73726
 Alpha  occ. eigenvalues --   -0.71989  -0.67237  -0.65821  -0.56261  -0.53833
 Alpha virt. eigenvalues --   -0.10453  -0.10341  -0.08024  -0.07533  -0.05776
 Alpha virt. eigenvalues --   -0.05464  -0.04853  -0.03580  -0.02841  -0.02467
 Alpha virt. eigenvalues --   -0.01657  -0.00922  -0.00651   0.00088   0.00479

 Mulliken charges:
               1
     1  C   -0.556350
     2  C    0.694899
     3  N   -0.016280
     4  N   -0.129535
     5  N   -0.206970
     6  H    0.076440
     7  H    0.089710
     8  H    0.069874
     9  H    0.057804
    10  H    0.062299
    11  H    0.346695
    12  H    0.291598
    13  H    0.219817
 Sum of Mulliken charges =   1.00000

 Dipole moment (field-independent basis, Debye):
    X=             -1.3999    Y=             -0.0196    Z=             -0.1622  Tot=              1.4094
 Quadrupole moment (field-independent basis, Debye-Ang):
   XX=            -12.5645   YY=            -16.4440   ZZ=            -31.0814
   XY=             -0.2968   XZ=             -0.6549   YZ=             -0.1436

  Exact polarizability:      58.797       0.017      49.648      -0.559       0.010      33.975
 Approx polarizability:      56.853      -0.520      54.199      -0.788       0.039      37.732

 Normal termination of Gaussian 16 at Wed Jan  8 11:52:16 2020.
