 Gaussian 16, Revision C.01,
 Gaussian 16:  ES64L-G16RevC.01  3-Jul-2019

 ------------------------------------------------
 #p wB97XD/aug-cc-pvtz NoSymm MaxDisk=100GB polar
 ------------------------------------------------

 -----
 polar
 -----
 Symbolic Z-matrix:
 Charge =  0 Multiplicity = 1

                          Input orientation:
 ---------------------------------------------------------------------
 Center     Atomic      Atomic             Coordinates (Angstroms)
 Number     Number       Type             X           Y           Z
 ---------------------------------------------------------------------
      1          6           0       -2.151102   -0.006527    0.000048
      2          6           0       -0.657833    0.018788   -0.000031
      3          6           0        0.186367    1.110604   -0.000019
      4          6           0        1.344840   -0.770571   -0.000045
      5          7           0        0.076107   -1.150789   -0.000038
      6          7           0        1.460500    0.589315    0.000086
      7          1           0       -2.530263   -0.530145   -0.882116
      8          1           0       -2.556878    1.009098   -0.000389
      9          1           0        0.000336    2.175157   -0.000399
     10          1           0        2.204627   -1.427737    0.000019
     11          1           0        2.322506    1.119564    0.000159
     12          1           0       -2.530212   -0.529384    0.882680
 ---------------------------------------------------------------------

 SCF Done:  E(RwB97XD) =  -265.544395115     A.U. after   13 cycles

 Alpha  occ. eigenvalues --  -14.49563 -14.41472 -10.34135 -10.31128 -10.30590
 Alpha  occ. eigenvalues --  -10.27466  -1.11475  -0.96990  -0.86109  -0.79098
 Alpha  occ. eigenvalues --   -0.70552  -0.66164  -0.63624  -0.53735  -0.53079
 Alpha  occ. eigenvalues --   -0.51974  -0.48193  -0.47102  -0.45672  -0.35954
 Alpha  occ. eigenvalues --   -0.35606  -0.30088
 Alpha virt. eigenvalues --    0.02388   0.03600   0.04120   0.05252   0.05477
 Alpha virt. eigenvalues --    0.06292   0.07740   0.09248   0.09974   0.10102
 Alpha virt. eigenvalues --    0.10323   0.10341   0.11462   0.11914   0.12678

 Mulliken charges:
               1
     1  C   -0.665703
     2  C    0.878962
     3  C   -0.742888
     4  C   -0.582608
     5  N   -0.657845
     6  N    0.036804
     7  H    0.263558
     8  H    0.274514
     9  H    0.418540
    10  H    0.500212
    11  H    0.012864
    12  H    0.263589
 Sum of Mulliken charges =  -0.00000

 Dipole moment (field-independent basis, Debye):
    X=              2.1165    Y=              2.7548    Z=             -0.0001  Tot=              3.4739
 Quadrupole moment (field-independent basis, Debye-Ang):
   XX=            -26.8508   YY=            -36.1293   ZZ=            -38.1350
   XY=              0.6477   XZ=              0.0005   YZ=             -0.0009

  Exact polarizability:      75.921      -0.152      66.377      -0.000       0.001      43.604
 Approx polarizability:      78.621       1.575      77.314       0.000       0.002      49.643

 Normal termination of Gaussian 16 at Wed Mar 23 18:52:01 2011.
