 Gaussian 16, Revision C.01,
 Gaussian 16:  ES64L-G16RevC.01  3-Jul-2019

 ------------------------------------------------
 #p wB97XD/aug-cc-pvtz NoSymm MaxDisk=100GB polar
 ------------------------------------------------

 -----
 polar
 -----
 Symbolic Z-matrix:
 Charge =  0 Multiplicity = 1

                          Input orientation:
 ---------------------------------------------------------------------
 Center     Atomic      Atomic             Coordinates (Angstroms)
 Number     Number       Type             X           Y           Z
 ---------------------------------------------------------------------
      1          6           0       -0.000878    0.036440    0.370067
      2          6           0       -1.314062   -0.565968   -0.088875
      3          6           0        1.203513   -0.763630   -0.105035
      4          8           0        0.025214    1.364988   -0.168032
      5          1           0        0.007348    0.082112    1.470740
      6          1           0       -1.437471   -1.577392    0.308153
      7          1           0        1.206259   -0.806807   -1.197642
      8          1           0        2.138340   -0.296447    0.223819
      9          1           0        1.181803   -1.783879    0.290151
     10          1           0        0.855279    1.778992    0.124476
     11          1           0       -1.335396   -0.609148   -1.181377
     12          1           0       -2.149309    0.051617    0.248995
 ---------------------------------------------------------------------

 SCF Done:  E(RwB97XD) =  -194.376420988     A.U. after   11 cycles

 Alpha  occ. eigenvalues --  -19.25047 -10.33755 -10.27690 -10.27042  -1.11928
 Alpha  occ. eigenvalues --   -0.87282  -0.78932  -0.67881  -0.60340  -0.54277
 Alpha  occ. eigenvalues --   -0.52416  -0.47609  -0.46506  -0.45355  -0.43908
 Alpha  occ. eigenvalues --   -0.40945  -0.35925
 Alpha virt. eigenvalues --    0.02994   0.04135   0.04261   0.04583   0.06270
 Alpha virt. eigenvalues --    0.06490   0.06848   0.06879   0.10218   0.10951
 Alpha virt. eigenvalues --    0.12081   0.12717   0.13081   0.13402   0.13536

 Mulliken charges:
               1
     1  C    0.578586
     2  C   -0.973225
     3  C   -1.031876
     4  O   -0.613433
     5  H    0.284276
     6  H    0.287344
     7  H    0.277327
     8  H    0.252634
     9  H    0.277254
    10  H    0.137164
    11  H    0.276591
    12  H    0.247358
 Sum of Mulliken charges =  -0.00000

 Dipole moment (field-independent basis, Debye):
    X=              1.1217    Y=             -0.8075    Z=              0.9177  Tot=              1.6590
 Quadrupole moment (field-independent basis, Debye-Ang):
   XX=            -25.4839   YY=            -27.0863   ZZ=            -26.8084
   XY=              2.5950   XZ=              0.3220   YZ=              1.1720

  Exact polarizability:      48.384       0.501      46.379       0.108      -0.075      42.157
 Approx polarizability:      46.435       0.822      47.161       0.550      -0.673      45.533

 Normal termination of Gaussian 16 at Wed Jan  8 11:11:23 2020.
