 Gaussian 16, Revision C.01,
 Gaussian 16:  ES64L-G16RevC.01  3-Jul-2019

 ------------------------------------------------
 #p wB97XD/aug-cc-pvtz NoSymm MaxDisk=100GB polar
 ------------------------------------------------

 -----
 polar
 -----
 Symbolic Z-matrix:
 Charge =  0 Multiplicity = 1

                          Input orientation:
 ---------------------------------------------------------------------
 Center     Atomic      Atomic             Coordinates (Angstroms)
 Number     Number       Type             X           Y           Z
 ---------------------------------------------------------------------
      1          6           0        0.000000    0.000000    0.608832
      2          1           0        0.000000    0.000000    1.675015
      3          6           0        0.000000    0.000000   -0.608831
      4          1           0        0.000000    0.000000   -1.675024
 ---------------------------------------------------------------------

 SCF Done:  E(RwB97XD) =  -77.3267789144     A.U. after   10 cycles

 Alpha  occ. eigenvalues --  -10.30248 -10.30020  -0.85231  -0.66347  -0.58673
 Alpha  occ. eigenvalues --   -0.37762  -0.37762
 Alpha virt. eigenvalues --    0.03429   0.03512   0.07592   0.07592   0.09755
 Alpha virt. eigenvalues --    0.09755   0.10750   0.10830   0.13841   0.13841
 Alpha virt. eigenvalues --    0.13971   0.20715   0.24252   0.24819   0.27264

 Mulliken charges:
               1
     1  C   -0.453422
     2  H    0.453434
     3  C   -0.453443
     4  H    0.453431
 Sum of Mulliken charges =  -0.00000

 Dipole moment (field-independent basis, Debye):
    X=              0.0000    Y=             -0.0000    Z=             -0.0000  Tot=              0.0000
 Quadrupole moment (field-independent basis, Debye-Ang):
   XX=            -13.7625   YY=            -13.7625   ZZ=             -6.7898
   XY=             -0.0000   XZ=              0.0000   YZ=             -0.0000

  Exact polarizability:      19.846       0.000      19.846      -0.000      -0.000      32.053
 Approx polarizability:      18.596       0.000      18.596      -0.000       0.000      39.726

 Normal termination of Gaussian 16 at Wed Jan  8 05:41:17 2020.
