 Gaussian 16, Revision C.01,
 Gaussian 16:  ES64L-G16RevC.01  3-Jul-2019

 ------------------------------------------------
 #p wB97XD/aug-cc-pvtz NoSymm MaxDisk=100GB polar
 ------------------------------------------------

 -----
 polar
 -----
 Symbolic Z-matrix:
 Charge =  0 Multiplicity = 1

                          Input orientation:
 ---------------------------------------------------------------------
 Center     Atomic      Atomic             Coordinates (Angstroms)
 Number     Number       Type             X           Y           Z
 ---------------------------------------------------------------------
      1          7           0       -0.298196   -1.193518    0.002480
      2          6           0       -0.898977    0.007815   -0.003881
      3          6           0       -0.184222    1.218899   -0.009890
      4          6           0        1.202608    1.170410    0.004731
      5          6           0        1.842061   -0.072778    0.006377
      6          6           0        1.047630   -1.214468    0.002431
      7          1           0       -0.713372    2.168510   -0.028731
      8          1           0        1.780003    2.091919    0.005873
      9          1           0        2.924629   -0.153118    0.013551
     10          1           0        1.497893   -2.205873    0.004857
     11          7           0       -2.290467   -0.006996   -0.083525
     12          1           0       -2.754574    0.755431    0.397035
     13          1           0       -2.668537   -0.912539    0.176114
 ---------------------------------------------------------------------

 SCF Done:  E(RwB97XD) =  -303.653857814     A.U. after   14 cycles

 Alpha  occ. eigenvalues --  -14.44505 -14.42841 -10.36413 -10.32387 -10.30977
 Alpha  occ. eigenvalues --  -10.29527 -10.28886  -1.06393  -0.98848  -0.90220
 Alpha  occ. eigenvalues --   -0.84162  -0.73129  -0.71306  -0.62257  -0.60771
 Alpha  occ. eigenvalues --   -0.57160  -0.53985  -0.52398  -0.50190  -0.48465
 Alpha  occ. eigenvalues --   -0.45585  -0.40939  -0.36367  -0.34730  -0.29965
 Alpha virt. eigenvalues --    0.02754   0.03482   0.03733   0.03916   0.05109
 Alpha virt. eigenvalues --    0.05284   0.05984   0.07169   0.08793   0.09877
 Alpha virt. eigenvalues --    0.10709   0.10908   0.10962   0.11243   0.11473

 Mulliken charges:
               1
     1  N   -0.360054
     2  C    0.814131
     3  C   -0.567703
     4  C   -0.697946
     5  C   -0.132985
     6  C   -0.567054
     7  H    0.373679
     8  H    0.573584
     9  H    0.301657
    10  H    0.599876
    11  N   -0.455478
    12  H    0.049968
    13  H    0.068325
 Sum of Mulliken charges =  -0.00000

 Dipole moment (field-independent basis, Debye):
    X=             -0.0730    Y=              1.7093    Z=              1.0054  Tot=              1.9844
 Quadrupole moment (field-independent basis, Debye-Ang):
   XX=            -33.4548   YY=            -38.9719   ZZ=            -44.7218
   XY=             -1.7156   XZ=             -3.2121   YZ=              0.2656

  Exact polarizability:      99.751      -1.309      80.929       0.307       0.036      47.410
 Approx polarizability:     106.955      -1.713      94.719       0.507       0.113      54.769

 Normal termination of Gaussian 16 at Wed Jan  8 11:44:35 2020.
