 Gaussian 16, Revision C.01,
 Gaussian 16:  ES64L-G16RevC.01  3-Jul-2019

 ------------------------------------------------
 #p wB97XD/aug-cc-pvtz NoSymm MaxDisk=100GB polar
 ------------------------------------------------

 -----
 polar
 -----
 Symbolic Z-matrix:
 Charge =  0 Multiplicity = 1

                          Input orientation:
 ---------------------------------------------------------------------
 Center     Atomic      Atomic             Coordinates (Angstroms)
 Number     Number       Type             X           Y           Z
 ---------------------------------------------------------------------
      1          8           0       -2.300400    0.004863    0.000341
      2          7           0       -0.301045   -1.117338   -0.000269
      3          6           0        1.120717    1.201013    0.000054
      4          6           0        1.807530   -0.046191    0.000064
      5          6           0        1.063900   -1.191128    0.000123
      6          6           0       -1.066186    0.062201   -0.000339
      7          6           0       -0.246855    1.258827   -0.000163
      8          1           0        1.694820    2.124946    0.000100
      9          1           0        2.889716   -0.099450    0.000379
     10          1           0        1.490361   -2.189170    0.000173
     11          1           0       -0.778932    2.204492    0.000023
     12          1           0       -0.860086   -1.966684    0.000048
 ---------------------------------------------------------------------

 SCF Done:  E(RwB97XD) =  -323.526724028     A.U. after   14 cycles

 Alpha  occ. eigenvalues --  -19.21038 -14.50334 -10.39553 -10.36180 -10.32429
 Alpha  occ. eigenvalues --  -10.30620 -10.30243  -1.13603  -1.06156  -0.92666
 Alpha  occ. eigenvalues --   -0.86448  -0.75572  -0.73717  -0.65795  -0.60101
 Alpha  occ. eigenvalues --   -0.58251  -0.55426  -0.53599  -0.51737  -0.47904
 Alpha  occ. eigenvalues --   -0.46557  -0.43526  -0.39674  -0.34333  -0.30268
 Alpha virt. eigenvalues --    0.01194   0.02272   0.03153   0.03997   0.05331
 Alpha virt. eigenvalues --    0.05817   0.06288   0.07462   0.09141   0.09914
 Alpha virt. eigenvalues --    0.10413   0.10452   0.10871   0.11075   0.11266

 Mulliken charges:
               1
     1  O   -0.864302
     2  N    0.131220
     3  C   -0.582242
     4  C   -0.153463
     5  C   -0.432485
     6  C    0.383625
     7  C   -0.283610
     8  H    0.632979
     9  H    0.261372
    10  H    0.564550
    11  H    0.321799
    12  H    0.020558
 Sum of Mulliken charges =  -0.00000

 Dipole moment (field-independent basis, Debye):
    X=              4.3008    Y=             -1.4024    Z=             -0.0002  Tot=              4.5237
 Quadrupole moment (field-independent basis, Debye-Ang):
   XX=            -47.7206   YY=            -31.0819   ZZ=            -43.0166
   XY=              0.8314   XZ=              0.0031   YZ=             -0.0005

  Exact polarizability:      93.751      -1.218      76.978       0.001      -0.001      43.188
 Approx polarizability:     106.435      -0.529      86.308      -0.001      -0.002      50.098

 1\1\GINC-NODE35\SP\RwB97XD\Aug-CC-pVTZ\C5H5N1O1\LIUCHW\08-Jan-2020\0\\
 #p wB97XD/aug-cc-pvtz NoSymm MaxDisk=100GB polar\\polar\\0,1\O,0,-2.30
 04,0.004863,0.000341\N,0,-0.301045,-1.117338,-0.000269\C,0,1.120717,1.
 201013,0.000054\C,0,1.80753,-0.046191,0.000064\C,0,1.0639,-1.191128,0.
 000123\C,0,-1.066186,0.062201,-0.000339\C,0,-0.246855,1.258827,-0.0001
 63\H,0,1.69482,2.124946,0.0001\H,0,2.889716,-0.09945,0.000379\H,0,1.49
 0361,-2.18917,0.000173\H,0,-0.778932,2.204492,0.000023\H,0,-0.860086,-
 1.966684,0.000048\\Version=ES64L-G16RevC.01\HF=-323.526724\RMSD=7.443e

 Normal termination of Gaussian 16 at Wed Jan  8 11:18:32 2020.
