 Gaussian 16, Revision C.01,
 Gaussian 16:  ES64L-G16RevC.01  3-Jul-2019

 ------------------------------------------------
 #p wB97XD/aug-cc-pvtz NoSymm MaxDisk=100GB polar
 ------------------------------------------------

 -----
 polar
 -----
 Symbolic Z-matrix:
 Charge =  0 Multiplicity = 1

                          Input orientation:
 ---------------------------------------------------------------------
 Center     Atomic      Atomic             Coordinates (Angstroms)
 Number     Number       Type             X           Y           Z
 ---------------------------------------------------------------------
      1         16           0        0.000000    0.000000    0.102114
      2          1           0        0.000000    0.974504   -0.816911
      3          1           0        0.000000   -0.974504   -0.816911
 ---------------------------------------------------------------------

 SCF Done:  E(RwB97XD) =  -399.410099892     A.U. after   10 cycles

 Alpha  occ. eigenvalues --  -89.05986  -8.07133  -6.02067  -6.01753  -6.01158
 Alpha  occ. eigenvalues --   -0.84305  -0.53250  -0.45158  -0.34809
 Alpha virt. eigenvalues --    0.02834   0.05125   0.08565   0.09315   0.10139
 Alpha virt. eigenvalues --    0.11833   0.13622   0.17402   0.19286   0.21034
 Alpha virt. eigenvalues --    0.21483   0.27678   0.31602   0.33268   0.34456

 Mulliken charges:
               1
     1  S   -0.381167
     2  H    0.190584
     3  H    0.190584
 Sum of Mulliken charges =  -0.00000

 Dipole moment (field-independent basis, Debye):
    X=             -0.0000    Y=             -0.0000    Z=             -1.0527  Tot=              1.0527
 Quadrupole moment (field-independent basis, Debye-Ang):
   XX=            -16.6141   YY=            -12.1648   ZZ=            -13.5295
   XY=             -0.0000   XZ=              0.0000   YZ=             -0.0000

  Exact polarizability:      25.300       0.000      24.463      -0.000       0.000      24.302
 Approx polarizability:      23.729       0.000      27.493      -0.000       0.000      26.108

 Normal termination of Gaussian 16 at Wed Jan  8 05:42:43 2020.
