 Gaussian 16, Revision C.01,
 Gaussian 16:  ES64L-G16RevC.01  3-Jul-2019

 ------------------------------------------------
 #p wB97XD/aug-cc-pvtz NoSymm MaxDisk=100GB polar
 ------------------------------------------------

 -----
 polar
 -----
 Symbolic Z-matrix:
 Charge =  0 Multiplicity = 1

                          Input orientation:
 ---------------------------------------------------------------------
 Center     Atomic      Atomic             Coordinates (Angstroms)
 Number     Number       Type             X           Y           Z
 ---------------------------------------------------------------------
      1          6           0       -0.000122   -0.698101    1.135693
      2          6           0       -0.000122    0.698096    1.135682
      3          7           0       -0.000129    1.417607    0.000000
      4          6           0       -0.000122    0.698096   -1.135682
      5          6           0       -0.000122   -0.698101   -1.135693
      6          7           0        0.000133   -1.417601    0.000000
      7          1           0        0.000835   -1.258258    2.068561
      8          1           0        0.000613    1.258266    2.068554
      9          1           0        0.000613    1.258266   -2.068554
     10          1           0        0.000835   -1.258258   -2.068561
 ---------------------------------------------------------------------

 SCF Done:  E(RwB97XD) =  -264.310508934     A.U. after   10 cycles

 Alpha  occ. eigenvalues --  -14.46511 -14.46507 -10.34305 -10.34302 -10.34243
 Alpha  occ. eigenvalues --  -10.34241  -1.08908  -1.01485  -0.88451  -0.76357
 Alpha  occ. eigenvalues --   -0.75674  -0.62554  -0.61013  -0.58439  -0.53038
 Alpha  occ. eigenvalues --   -0.52335  -0.47722  -0.41711  -0.40893  -0.36054
 Alpha  occ. eigenvalues --   -0.34385
 Alpha virt. eigenvalues --    0.00142   0.03052   0.03264   0.03688   0.04171
 Alpha virt. eigenvalues --    0.05067   0.08269   0.08696   0.09881   0.10500
 Alpha virt. eigenvalues --    0.10514   0.11031   0.11307   0.12179   0.12435

 Mulliken charges:
               1
     1  C   -0.260382
     2  C   -0.260375
     3  N   -0.462605
     4  C   -0.260375
     5  C   -0.260382
     6  N   -0.462591
     7  H    0.491677
     8  H    0.491678
     9  H    0.491678
    10  H    0.491677
 Sum of Mulliken charges =  -0.00000

 Dipole moment (field-independent basis, Debye):
    X=              0.0014    Y=             -0.0000    Z=              0.0000  Tot=              0.0014
 Quadrupole moment (field-independent basis, Debye-Ang):
   XX=            -36.0728   YY=            -41.2496   ZZ=            -26.4437
   XY=              0.0004   XZ=              0.0000   YZ=             -0.0000

  Exact polarizability:      37.377      -0.001      65.624       0.000      -0.000      74.700
 Approx polarizability:      43.399      -0.002      78.080      -0.000      -0.000      86.473

 Normal termination of Gaussian 16 at Wed Jan  8 11:14:43 2020.
