 Gaussian 16, Revision C.01,
 Gaussian 16:  ES64L-G16RevC.01  3-Jul-2019

 ------------------------------------------------
 #p wB97XD/aug-cc-pvtz NoSymm MaxDisk=100GB polar
 ------------------------------------------------

 -----
 polar
 -----
 Symbolic Z-matrix:
 Charge =  0 Multiplicity = 1

                          Input orientation:
 ---------------------------------------------------------------------
 Center     Atomic      Atomic             Coordinates (Angstroms)
 Number     Number       Type             X           Y           Z
 ---------------------------------------------------------------------
      1          7           0       -1.126545   -1.236286    0.000006
      2          6           0        0.230868   -1.486880   -0.000029
      3          6           0        1.151288   -0.493423   -0.000015
      4          6           0        0.680244    0.891039   -0.000139
      5          7           0       -0.715909    1.027304   -0.000013
      6          6           0       -1.682096    0.032777    0.000149
      7          6           0        2.630019   -0.723796    0.000032
      8          8           0        1.407977    1.882846    0.000044
      9          8           0       -2.888457    0.244379   -0.000034
     10          1           0       -1.797166   -1.995596   -0.000048
     11          1           0       -1.070378    1.980602   -0.000027
     12          1           0        0.507185   -2.537485   -0.000057
     13          1           0        3.090047   -0.264069   -0.879085
     14          1           0        3.090022   -0.263938    0.879093
     15          1           0        2.859370   -1.792748    0.000113
 ---------------------------------------------------------------------

 SCF Done:  E(RwB97XD) =  -454.161864291     A.U. after   14 cycles

 Alpha  occ. eigenvalues --  -19.24002 -19.23688 -14.51410 -14.50020 -10.45050
 Alpha  occ. eigenvalues --  -10.41668 -10.37438 -10.32227 -10.29749  -1.18516
 Alpha  occ. eigenvalues --   -1.14996  -1.08691  -1.03492  -0.92649  -0.82095
 Alpha  occ. eigenvalues --   -0.78159  -0.76513  -0.66830  -0.66216  -0.61450
 Alpha  occ. eigenvalues --   -0.58278  -0.56904  -0.53735  -0.52256  -0.52254
 Alpha  occ. eigenvalues --   -0.49579  -0.49129  -0.47893  -0.45219  -0.39002
 Alpha  occ. eigenvalues --   -0.37777  -0.36060  -0.32723
 Alpha virt. eigenvalues --    0.01296   0.01875   0.03305   0.04089   0.05002
 Alpha virt. eigenvalues --    0.05227   0.06291   0.06617   0.07586   0.07841
 Alpha virt. eigenvalues --    0.09010   0.09612   0.09617   0.10522   0.10748

 Mulliken charges:
               1
     1  N    0.024181
     2  C   -0.588649
     3  C    0.905548
     4  C    0.342479
     5  N    0.201666
     6  C    0.162803
     7  C   -0.787957
     8  O   -0.908303
     9  O   -0.756711
    10  H    0.008608
    11  H    0.038412
    12  H    0.564784
    13  H    0.305184
    14  H    0.305166
    15  H    0.182790
 Sum of Mulliken charges =  -0.00000

 Dipole moment (field-independent basis, Debye):
    X=              0.9940    Y=             -4.4179    Z=             -0.0001  Tot=              4.5283
 Quadrupole moment (field-independent basis, Debye-Ang):
   XX=            -62.9213   YY=            -47.0590   ZZ=            -52.2537
   XY=             -3.1272   XZ=             -0.0005   YZ=             -0.0001

  Exact polarizability:     109.971       6.120      88.233       0.000       0.000      50.489
 Approx polarizability:     113.610      12.618     101.183       0.001       0.001      60.465

 1\1\GINC-NODE73\SP\RwB97XD\Aug-CC-pVTZ\C5H6N2O2\LIUCHW\08-Jan-2020\0\\
 #p wB97XD/aug-cc-pvtz NoSymm MaxDisk=100GB polar\\polar\\0,1\N,0,-1.12
 6545,-1.236286,0.000006\C,0,0.230868,-1.48688,-0.000029\C,0,1.151288,-
 0.493423,-0.000015\C,0,0.680244,0.891039,-0.000139\N,0,-0.715909,1.027
 304,-0.000013\C,0,-1.682096,0.032777,0.000149\C,0,2.630019,-0.723796,0
 .000032\O,0,1.407977,1.882846,0.000044\O,0,-2.888457,0.244379,-0.00003
 4\H,0,-1.797166,-1.995596,-0.000048\H,0,-1.070378,1.980602,-0.000027\H
 ,0,0.507185,-2.537485,-0.000057\H,0,3.090047,-0.264069,-0.879085\H,0,3

 Normal termination of Gaussian 16 at Wed Jan  8 06:26:12 2020.
