 Gaussian 16, Revision C.01,
 Gaussian 16:  ES64L-G16RevC.01  3-Jul-2019

 ------------------------------------------------
 #p wB97XD/aug-cc-pvtz NoSymm MaxDisk=100GB polar
 ------------------------------------------------

 -----
 polar
 -----
 Symbolic Z-matrix:
 Charge =  0 Multiplicity = 1

                          Input orientation:
 ---------------------------------------------------------------------
 Center     Atomic      Atomic             Coordinates (Angstroms)
 Number     Number       Type             X           Y           Z
 ---------------------------------------------------------------------
      1          7           0        1.951416    0.524104    0.000005
      2          6           0        1.228246   -0.607247   -0.000003
      3          6           0       -0.178907   -0.517183   -0.000011
      4          6           0       -0.710338    0.775580    0.000000
      5          7           0       -0.027943    1.933285    0.000005
      6          6           0        1.291143    1.704536    0.000012
      7          7           0       -1.165147   -1.483895   -0.000017
      8          6           0       -2.285524   -0.774308    0.000044
      9          7           0       -2.074713    0.581354   -0.000023
     10          7           0        1.866471   -1.800049   -0.000006
     11          1           0        1.926683    2.587590    0.000002
     12          1           0       -3.283141   -1.195537    0.000068
     13          1           0       -2.775252    1.313444   -0.000084
     14          1           0        2.875604   -1.818006    0.000009
     15          1           0        1.337797   -2.659359    0.000002
 ---------------------------------------------------------------------

 SCF Done:  E(RwB97XD) =  -467.330250903     A.U. after   14 cycles

 Alpha  occ. eigenvalues --  -14.50922 -14.46214 -14.44354 -14.43543 -14.42876
 Alpha  occ. eigenvalues --  -10.38274 -10.37133 -10.36514 -10.35431 -10.31734
 Alpha  occ. eigenvalues --   -1.14316  -1.08254  -1.03974  -0.99148  -0.96008
 Alpha  occ. eigenvalues --   -0.86605  -0.76491  -0.74769  -0.72732  -0.67620
 Alpha  occ. eigenvalues --   -0.64379  -0.60784  -0.58868  -0.56415  -0.54757
 Alpha  occ. eigenvalues --   -0.52975  -0.50718  -0.49784  -0.44923  -0.41275
 Alpha  occ. eigenvalues --   -0.38314  -0.37654  -0.34974  -0.34111  -0.29980
 Alpha virt. eigenvalues --    0.02378   0.03252   0.03308   0.03921   0.04919
 Alpha virt. eigenvalues --    0.05766   0.06323   0.07058   0.08368   0.09099
 Alpha virt. eigenvalues --    0.09393   0.09796   0.09932   0.10007   0.10889

 Mulliken charges:
               1
     1  N   -0.483144
     2  C    0.622047
     3  C    1.032057
     4  C    0.484918
     5  N   -0.610311
     6  C   -0.480656
     7  N   -0.759525
     8  C   -0.601962
     9  N    0.061154
    10  N   -0.402944
    11  H    0.565410
    12  H    0.542813
    13  H   -0.022027
    14  H    0.016413
    15  H    0.035758
 Sum of Mulliken charges =  -0.00000

 Dipole moment (field-independent basis, Debye):
    X=             -2.1546    Y=             -1.1695    Z=             -0.0000  Tot=              2.4515
 Quadrupole moment (field-independent basis, Debye-Ang):
   XX=            -43.5298   YY=            -56.8913   ZZ=            -59.3425
   XY=             -7.1799   XZ=              0.0002   YZ=             -0.0004

  Exact polarizability:     124.612      -0.796     109.052      -0.000      -0.000      53.968
 Approx polarizability:     137.878      -3.644     128.665      -0.001       0.000      65.433

 Normal termination of Gaussian 16 at Wed Jan  8 12:04:36 2020.
