 Gaussian 16, Revision C.01,
 Gaussian 16:  ES64L-G16RevC.01  3-Jul-2019

 ------------------------------------------------
 #p wB97XD/aug-cc-pvtz NoSymm MaxDisk=100GB polar
 ------------------------------------------------

 -----
 polar
 -----
 Symbolic Z-matrix:
 Charge =  0 Multiplicity = 1

                          Input orientation:
 ---------------------------------------------------------------------
 Center     Atomic      Atomic             Coordinates (Angstroms)
 Number     Number       Type             X           Y           Z
 ---------------------------------------------------------------------
      1          6           0        0.000007   -0.537072    0.000000
      2          8           0        0.000007    0.684027    0.000000
      3          1           0       -0.000046   -1.124893    0.934537
      4          1           0       -0.000046   -1.124893   -0.934537
 ---------------------------------------------------------------------

 SCF Done:  E(RwB97XD) =  -114.508204584     A.U. after   10 cycles

 Alpha  occ. eigenvalues --  -19.27576 -10.39239  -1.15969  -0.73923  -0.58897
 Alpha  occ. eigenvalues --   -0.54426  -0.48751  -0.36126
 Alpha virt. eigenvalues --    0.01263   0.02947   0.04534   0.07837   0.09091
 Alpha virt. eigenvalues --    0.12673   0.13338   0.17172   0.19478   0.19857
 Alpha virt. eigenvalues --    0.20516   0.23738   0.24497   0.26701   0.29907

 Mulliken charges:
               1
     1  C   -0.181956
     2  O   -0.489824
     3  H    0.335890
     4  H    0.335890
 Sum of Mulliken charges =  -0.00000

 Dipole moment (field-independent basis, Debye):
    X=             -0.0001    Y=             -2.5283    Z=              0.0000  Tot=              2.5283
 Quadrupole moment (field-independent basis, Debye-Ang):
   XX=            -11.7110   YY=            -12.0990   ZZ=            -11.5184
   XY=              0.0000   XZ=             -0.0000   YZ=              0.0000

  Exact polarizability:      13.144       0.000      22.793      -0.000      -0.000      17.857
 Approx polarizability:      13.575      -0.000      25.297       0.000      -0.000      16.539

 Normal termination of Gaussian 16 at Wed Jan  8 11:07:37 2020.
