 Gaussian 16, Revision C.01,
 Gaussian 16:  ES64L-G16RevC.01  3-Jul-2019

 ------------------------------------------------
 #p wB97XD/aug-cc-pvtz NoSymm MaxDisk=100GB polar
 ------------------------------------------------

 -----
 polar
 -----
 Symbolic Z-matrix:
 Charge =  0 Multiplicity = 1

                          Input orientation:
 ---------------------------------------------------------------------
 Center     Atomic      Atomic             Coordinates (Angstroms)
 Number     Number       Type             X           Y           Z
 ---------------------------------------------------------------------
      1          7           0       -0.000160    0.010687    1.453987
      2          6           0        0.000011   -0.008707   -1.188925
      3          6           0        0.000142    0.002051    0.274304
      4          1           0       -0.683822   -0.775847   -1.557601
      5          1           0        1.003861   -0.221770   -1.561652
      6          1           0       -0.319832    0.962744   -1.570932
 ---------------------------------------------------------------------

 SCF Done:  E(RwB97XD) =  -132.752189148     A.U. after   11 cycles

 Alpha  occ. eigenvalues --  -14.44343 -10.34324 -10.33959  -1.00181  -0.88012
 Alpha  occ. eigenvalues --   -0.61069  -0.55631  -0.55630  -0.45660  -0.41329
 Alpha  occ. eigenvalues --   -0.41328
 Alpha virt. eigenvalues --    0.02333   0.04412   0.04412   0.06499   0.09187
 Alpha virt. eigenvalues --    0.09189   0.10158   0.11176   0.11176   0.11384
 Alpha virt. eigenvalues --    0.12189   0.12191   0.17745   0.17748   0.17842

 Mulliken charges:
               1
     1  N   -0.459467
     2  C   -0.483823
     3  C    0.161019
     4  H    0.260741
     5  H    0.260843
     6  H    0.260687
 Sum of Mulliken charges =  -0.00000

 Dipole moment (field-independent basis, Debye):
    X=              0.0003    Y=             -0.0303    Z=             -4.1112  Tot=              4.1114
 Quadrupole moment (field-independent basis, Debye-Ang):
   XX=            -17.6558   YY=            -17.6557   ZZ=            -20.6983
   XY=             -0.0000   XZ=              0.0006   YZ=             -0.0227

  Exact polarizability:      24.774       0.001      24.771      -0.004       0.120      41.126
 Approx polarizability:      26.005       0.000      26.005      -0.005       0.150      46.462

 Normal termination of Gaussian 16 at Wed Jan  8 11:10:22 2020.
