 Gaussian 16, Revision C.01,
 Gaussian 16:  ES64L-G16RevC.01  3-Jul-2019

 ------------------------------------------------
 #p wB97XD/aug-cc-pvtz NoSymm MaxDisk=100GB polar
 ------------------------------------------------

 -----
 polar
 -----
 Symbolic Z-matrix:
 Charge =  0 Multiplicity = 1

                          Input orientation:
 ---------------------------------------------------------------------
 Center     Atomic      Atomic             Coordinates (Angstroms)
 Number     Number       Type             X           Y           Z
 ---------------------------------------------------------------------
      1          7           0       -0.000026    0.574270   -0.152852
      2          6           0        1.206364   -0.225897    0.020817
      3          6           0       -1.206327   -0.225891    0.020801
      4          1           0        0.000004    1.321218    0.539468
      5          1           0        1.250801   -0.770966    0.979268
      6          1           0        2.085155    0.419410   -0.053728
      7          1           0        1.260303   -0.963577   -0.785169
      8          1           0       -2.085197    0.419340   -0.053676
      9          1           0       -1.250835   -0.771009    0.979261
     10          1           0       -1.260277   -0.963584   -0.785169
 ---------------------------------------------------------------------

 SCF Done:  E(RwB97XD) =  -135.173370033     A.U. after   11 cycles

 Alpha  occ. eigenvalues --  -14.42167 -10.29807 -10.29807  -0.99894  -0.79561
 Alpha  occ. eigenvalues --   -0.72112  -0.57614  -0.53019  -0.51934  -0.47000
 Alpha  occ. eigenvalues --   -0.44641  -0.44202  -0.30889
 Alpha virt. eigenvalues --    0.03176   0.04353   0.04453   0.04937   0.06626
 Alpha virt. eigenvalues --    0.06667   0.06937   0.10245   0.11630   0.12379
 Alpha virt. eigenvalues --    0.12420   0.13822   0.14030   0.14816   0.15011

 Mulliken charges:
               1
     1  N   -0.235026
     2  C   -0.834166
     3  C   -0.834191
     4  H    0.038576
     5  H    0.307366
     6  H    0.301019
     7  H    0.324008
     8  H    0.301028
     9  H    0.307365
    10  H    0.324021
 Sum of Mulliken charges =  -0.00000

 Dipole moment (field-independent basis, Debye):
    X=              0.0002    Y=             -0.2493    Z=              1.0473  Tot=              1.0765
 Quadrupole moment (field-independent basis, Debye-Ang):
   XX=            -19.8383   YY=            -20.7042   ZZ=            -21.6726
   XY=              0.0001   XZ=             -0.0001   YZ=              2.1365

  Exact polarizability:      42.295      -0.000      37.233      -0.000      -1.090      35.394
 Approx polarizability:      38.920      -0.000      38.559      -0.000      -0.232      36.884

 Normal termination of Gaussian 16 at Wed Mar 23 18:55:24 2011.
