 Gaussian 16, Revision C.01,
 Gaussian 16:  ES64L-G16RevC.01  3-Jul-2019

 ------------------------------------------------
 #p wB97XD/aug-cc-pvtz NoSymm MaxDisk=100GB polar
 ------------------------------------------------

 -----
 polar
 -----
 Symbolic Z-matrix:
 Charge =  0 Multiplicity = 1

                          Input orientation:
 ---------------------------------------------------------------------
 Center     Atomic      Atomic             Coordinates (Angstroms)
 Number     Number       Type             X           Y           Z
 ---------------------------------------------------------------------
      1          6           0       -0.000073   -0.000110   -0.376912
      2          6           0       -0.008921    1.451878    0.096353
      3          6           0        1.262113   -0.718157    0.096329
      4          6           0       -1.253100   -0.733616    0.096331
      5          1           0        0.000127    0.000158   -1.475521
      6          1           0       -0.009250    1.495716    1.191299
      7          1           0        0.873563    1.991540   -0.261773
      8          1           0       -0.898118    1.980323   -0.261897
      9          1           0        1.300865   -0.738827    1.191245
     10          1           0        2.164530   -0.213134   -0.262689
     11          1           0        1.287664   -1.752607   -0.260801
     12          1           0       -1.291052   -0.756768    1.191296
     13          1           0       -1.266734   -1.767667   -0.262541
     14          1           0       -2.161705   -0.238705   -0.261226
 ---------------------------------------------------------------------

 SCF Done:  E(RwB97XD) =  -158.466949877     A.U. after   10 cycles

 Alpha  occ. eigenvalues --  -10.28626 -10.26837 -10.26836 -10.26834  -0.90293
 Alpha  occ. eigenvalues --   -0.77732  -0.77729  -0.65058  -0.55165  -0.51659
 Alpha  occ. eigenvalues --   -0.51657  -0.46550  -0.46547  -0.44321  -0.40703
 Alpha  occ. eigenvalues --   -0.40695  -0.40082
 Alpha virt. eigenvalues --    0.03252   0.04211   0.04212   0.04220   0.06265
 Alpha virt. eigenvalues --    0.06265   0.06540   0.06700   0.06701   0.08267
 Alpha virt. eigenvalues --    0.10759   0.12334   0.12334   0.13029   0.13120

 Mulliken charges:
               1
     1  C    0.567193
     2  C   -1.087089
     3  C   -1.086994
     4  C   -1.087120
     5  H    0.334683
     6  H    0.276977
     7  H    0.254694
     8  H    0.254873
     9  H    0.276998
    10  H    0.254814
    11  H    0.254604
    12  H    0.276938
    13  H    0.254674
    14  H    0.254753
 Sum of Mulliken charges =  -0.00000

 Dipole moment (field-independent basis, Debye):
    X=             -0.0001    Y=             -0.0002    Z=             -0.1394  Tot=              0.1394
 Quadrupole moment (field-independent basis, Debye-Ang):
   XX=            -28.8296   YY=            -28.8331   ZZ=            -28.1709
   XY=              0.0008   XZ=             -0.0007   YZ=             -0.0009

  Exact polarizability:      55.097      -0.001      55.086      -0.000       0.002      48.688
 Approx polarizability:      54.156      -0.001      54.153      -0.000      -0.000      54.033

 Normal termination of Gaussian 16 at Wed Jan  8 11:35:11 2020.
