 Gaussian 16, Revision C.01,
 Gaussian 16:  ES64L-G16RevC.01  3-Jul-2019

 ------------------------------------------------
 #p wB97XD/aug-cc-pvtz NoSymm MaxDisk=100GB polar
 ------------------------------------------------

 -----
 polar
 -----
 Symbolic Z-matrix:
 Charge =  0 Multiplicity = 1

                          Input orientation:
 ---------------------------------------------------------------------
 Center     Atomic      Atomic             Coordinates (Angstroms)
 Number     Number       Type             X           Y           Z
 ---------------------------------------------------------------------
      1          7           0        0.000000    0.000019   -0.396565
      2          6           0        1.362588   -0.216622    0.065412
      3          6           0       -0.493746    1.288328    0.065404
      4          6           0       -0.868871   -1.071753    0.065435
      5          1           0        2.008183    0.578399   -0.317920
      6          1           0        1.729669   -1.172727   -0.317761
      7          1           0        1.444318   -0.229328    1.168446
      8          1           0        0.151009    2.084275   -0.317382
      9          1           0       -0.523710    1.365420    1.168436
     10          1           0       -1.504859    1.450054   -0.318288
     11          1           0       -1.880555   -0.911556   -0.317459
     12          1           0       -0.920581   -1.136068    1.168460
     13          1           0       -0.503305   -2.028317   -0.318089
 ---------------------------------------------------------------------

 SCF Done:  E(RwB97XD) =  -174.483042015     A.U. after   11 cycles

 Alpha  occ. eigenvalues --  -14.42979 -10.29846 -10.29846 -10.29846  -1.02209
 Alpha  occ. eigenvalues --   -0.79993  -0.79992  -0.68342  -0.55571  -0.55191
 Alpha  occ. eigenvalues --   -0.55191  -0.47661  -0.47660  -0.44935  -0.43968
 Alpha  occ. eigenvalues --   -0.43967  -0.29933
 Alpha virt. eigenvalues --    0.03207   0.04321   0.04321   0.04889   0.06248
 Alpha virt. eigenvalues --    0.06248   0.06688   0.06688   0.08287   0.09337
 Alpha virt. eigenvalues --    0.11997   0.12892   0.12892   0.13355   0.13356

 Mulliken charges:
               1
     1  N    0.058096
     2  C   -0.936820
     3  C   -0.937080
     4  C   -0.936768
     5  H    0.296299
     6  H    0.295796
     7  H    0.325344
     8  H    0.296132
     9  H    0.325353
    10  H    0.296255
    11  H    0.296018
    12  H    0.325353
    13  H    0.296024
 Sum of Mulliken charges =   0.00000

 Dipole moment (field-independent basis, Debye):
    X=              0.0000    Y=             -0.0001    Z=              0.6592  Tot=              0.6592
 Quadrupole moment (field-independent basis, Debye-Ang):
   XX=            -26.3318   YY=            -26.3320   ZZ=            -29.8916
   XY=              0.0002   XZ=              0.0003   YZ=              0.0006

  Exact polarizability:      52.553       0.005      52.546       0.004      -0.002      47.919
 Approx polarizability:      51.819       0.001      51.818       0.000       0.001      51.429

 Normal termination of Gaussian 16 at Wed Jan  8 11:21:17 2020.
