 Gaussian 16, Revision C.01,
 Gaussian 16:  ES64L-G16RevC.01  3-Jul-2019

 ------------------------------------------------
 #p wB97XD/aug-cc-pvtz NoSymm MaxDisk=100GB polar
 ------------------------------------------------

 -----
 polar
 -----
 Symbolic Z-matrix:
 Charge =  1 Multiplicity = 1

                          Input orientation:
 ---------------------------------------------------------------------
 Center     Atomic      Atomic             Coordinates (Angstroms)
 Number     Number       Type             X           Y           Z
 ---------------------------------------------------------------------
      1          7           0       -0.000010   -0.000014   -0.343327
      2          6           0        1.197334   -0.786062    0.104303
      3          6           0       -1.279418   -0.643880    0.104302
      4          6           0        0.082093    1.429960    0.104306
      5          1           0        0.000000    0.000007   -1.371878
      6          1           0        1.210132   -0.792403    1.194077
      7          1           0        1.114190   -1.802526   -0.279336
      8          1           0        2.096699   -0.307460   -0.282181
      9          1           0       -1.291364   -0.651664    1.194079
     10          1           0       -2.118109   -0.063687   -0.279444
     11          1           0       -1.314612   -1.662105   -0.282054
     12          1           0        1.003889    1.866177   -0.279475
     13          1           0       -0.782150    1.969501   -0.282041
     14          1           0        0.081342    1.444150    1.194079
 ---------------------------------------------------------------------

 SCF Done:  E(RwB97XD) =  -174.862060981     A.U. after   10 cycles

 Alpha  occ. eigenvalues --  -14.75808 -10.52012 -10.52012 -10.52012  -1.30438
 Alpha  occ. eigenvalues --   -1.03036  -1.03036  -0.95603  -0.84165  -0.78157
 Alpha  occ. eigenvalues --   -0.78157  -0.70002  -0.70002  -0.67515  -0.67210
 Alpha  occ. eigenvalues --   -0.67210  -0.67018
 Alpha virt. eigenvalues --   -0.11250  -0.08124  -0.07099  -0.07099  -0.06247
 Alpha virt. eigenvalues --   -0.04766  -0.04766  -0.03942  -0.03781  -0.03781
 Alpha virt. eigenvalues --   -0.01189  -0.01102  -0.00114  -0.00114   0.00311

 Mulliken charges:
               1
     1  N    0.428751
     2  C   -0.691013
     3  C   -0.690932
     4  C   -0.690945
     5  H   -0.011984
     6  H    0.325490
     7  H    0.279860
     8  H    0.280062
     9  H    0.325495
    10  H    0.279916
    11  H    0.279923
    12  H    0.279699
    13  H    0.280180
    14  H    0.325499
 Sum of Mulliken charges =   1.00000

 Dipole moment (field-independent basis, Debye):
    X=              0.0000    Y=              0.0000    Z=             -0.8707  Tot=              0.8707
 Quadrupole moment (field-independent basis, Debye-Ang):
   XX=            -19.0076   YY=            -19.0077   ZZ=            -21.4626
   XY=             -0.0000   XZ=             -0.0000   YZ=             -0.0001

  Exact polarizability:      44.557      -0.002      44.565       0.002       0.003      38.233
 Approx polarizability:      44.979      -0.000      44.979       0.000      -0.000      43.662

 Normal termination of Gaussian 16 at Wed Jan  8 11:35:34 2020.
