 Gaussian 16, Revision C.01,
 Gaussian 16:  ES64L-G16RevC.01  3-Jul-2019

 ------------------------------------------------
 #p wB97XD/aug-cc-pvtz NoSymm MaxDisk=100GB polar
 ------------------------------------------------

 -----
 polar
 -----
 Symbolic Z-matrix:
 Charge =  0 Multiplicity = 1

                          Input orientation:
 ---------------------------------------------------------------------
 Center     Atomic      Atomic             Coordinates (Angstroms)
 Number     Number       Type             X           Y           Z
 ---------------------------------------------------------------------
      1          6           0        0.492420    0.646216    0.090578
      2          6           0        1.632748   -0.351447   -0.054129
      3         16           0       -1.160846   -0.099253   -0.078193
      4          1           0        0.555523    1.177741    1.043458
      5          1           0        0.541158    1.398816   -0.701036
      6          1           0        2.597119    0.162119    0.012837
      7          1           0       -1.045479   -0.947133    0.955419
      8          1           0        1.577258   -0.866587   -1.015550
      9          1           0        1.596948   -1.105521    0.737256
 ---------------------------------------------------------------------

 SCF Done:  E(RwB97XD) =  -478.037733862     A.U. after   12 cycles

 Alpha  occ. eigenvalues --  -89.04576 -10.32173 -10.28571  -8.05614  -6.00580
 Alpha  occ. eigenvalues --   -6.00230  -5.99630  -0.90326  -0.80163  -0.70202
 Alpha  occ. eigenvalues --   -0.55867  -0.52199  -0.49394  -0.46072  -0.43963
 Alpha  occ. eigenvalues --   -0.40414  -0.31961
 Alpha virt. eigenvalues --    0.03041   0.04119   0.04490   0.04740   0.06370
 Alpha virt. eigenvalues --    0.06734   0.08346   0.09534   0.10663   0.10889
 Alpha virt. eigenvalues --    0.12613   0.12683   0.13298   0.13903   0.13937

 Mulliken charges:
               1
     1  C   -0.350493
     2  C   -0.839269
     3  S   -0.305602
     4  H    0.243315
     5  H    0.260219
     6  H    0.250713
     7  H    0.169360
     8  H    0.289507
     9  H    0.282250
 Sum of Mulliken charges =  -0.00000

 Dipole moment (field-independent basis, Debye):
    X=              1.5872    Y=              0.1502    Z=              0.6577  Tot=              1.7247
 Quadrupole moment (field-independent basis, Debye-Ang):
   XX=            -29.1127   YY=            -27.0767   ZZ=            -27.0050
   XY=              1.3001   XZ=             -0.5653   YZ=             -1.7109

  Exact polarizability:      57.282       1.369      46.595      -0.460       0.275      43.782
 Approx polarizability:      55.318       2.864      50.958       0.127      -1.706      49.535

 Normal termination of Gaussian 16 at Wed Jan  8 11:16:46 2020.
