 Gaussian 16, Revision C.01,
 Gaussian 16:  ES64L-G16RevC.01  3-Jul-2019

 ------------------------------------------------
 #p wB97XD/aug-cc-pvtz NoSymm MaxDisk=100GB polar
 ------------------------------------------------

 -----
 polar
 -----
 Symbolic Z-matrix:
 Charge =  0 Multiplicity = 1

                          Input orientation:
 ---------------------------------------------------------------------
 Center     Atomic      Atomic             Coordinates (Angstroms)
 Number     Number       Type             X           Y           Z
 ---------------------------------------------------------------------
      1          6           0       -2.420556    0.000000    0.011830
      2          6           0        1.902671   -0.000004    0.009396
      3          6           0        1.199640   -1.206301    0.001859
      4          6           0        1.199647    1.206296    0.001858
      5          6           0       -0.196199   -1.202962   -0.008214
      6          6           0       -0.196194    1.202967   -0.008213
      7          6           0       -0.913640    0.000005   -0.016536
      8          1           0        2.989942   -0.000005    0.014497
      9          1           0        1.738227   -2.151233    0.003065
     10          1           0        1.738240    2.151225    0.003061
     11          1           0       -0.737133   -2.148074   -0.018350
     12          1           0       -0.737121    2.148083   -0.018346
     13          1           0       -2.823768   -0.885150   -0.488432
     14          1           0       -2.823770    0.885345   -0.488088
     15          1           0       -2.796830   -0.000201    1.040719
 ---------------------------------------------------------------------

 SCF Done:  E(RwB97XD) =  -271.562578715     A.U. after   12 cycles

 Alpha  occ. eigenvalues --  -10.30066 -10.29083 -10.29076 -10.28832 -10.28789
 Alpha  occ. eigenvalues --  -10.28789 -10.28287  -0.95726  -0.87129  -0.84260
 Alpha  occ. eigenvalues --   -0.78184  -0.69794  -0.67594  -0.60027  -0.54699
 Alpha  occ. eigenvalues --   -0.54127  -0.50852  -0.50339  -0.49159  -0.46821
 Alpha  occ. eigenvalues --   -0.44395  -0.42184  -0.41888  -0.32923  -0.31892
 Alpha virt. eigenvalues --    0.03213   0.03550   0.03775   0.04704   0.04934
 Alpha virt. eigenvalues --    0.05123   0.05314   0.06108   0.06683   0.07669
 Alpha virt. eigenvalues --    0.08972   0.10244   0.10953   0.11059   0.11531

 Mulliken charges:
               1
     1  C   -0.870393
     2  C   -0.467060
     3  C   -0.431187
     4  C   -0.431127
     5  C   -1.119435
     6  C   -1.119426
     7  C    1.199630
     8  H    0.479348
     9  H    0.458187
    10  H    0.458186
    11  H    0.493620
    12  H    0.493623
    13  H    0.274878
    14  H    0.274860
    15  H    0.306297
 Sum of Mulliken charges =  -0.00000

 Dipole moment (field-independent basis, Debye):
    X=             -0.4055    Y=             -0.0000    Z=              0.0390  Tot=              0.4074
 Quadrupole moment (field-independent basis, Debye-Ang):
   XX=            -38.1867   YY=            -38.5614   ZZ=            -45.9811
   XY=              0.0000   XZ=             -0.0329   YZ=              0.0000

  Exact polarizability:     103.419       0.000      90.110      -0.127      -0.000      54.168
 Approx polarizability:     108.885       0.000     105.342      -0.014      -0.000      63.287

 Normal termination of Gaussian 16 at Wed Jan  8 11:42:39 2020.
