 Gaussian 16, Revision C.01,
 Gaussian 16:  ES64L-G16RevC.01  3-Jul-2019

 ------------------------------------------------
 #p wB97XD/aug-cc-pvtz NoSymm MaxDisk=100GB polar
 ------------------------------------------------

 -----
 polar
 -----
 Symbolic Z-matrix:
 Charge =  1 Multiplicity = 1

                          Input orientation:
 ---------------------------------------------------------------------
 Center     Atomic      Atomic             Coordinates (Angstroms)
 Number     Number       Type             X           Y           Z
 ---------------------------------------------------------------------
      1          7           0       -0.000007    0.542895    0.000013
      2          6           0        1.259820   -0.277179   -0.000001
      3          6           0       -1.259808   -0.277179   -0.000003
      4          1           0       -0.000006    1.164062    0.819627
      5          1           0       -0.000005    1.164036   -0.819679
      6          1           0        1.262377   -0.897187    0.895109
      7          1           0        1.261058   -0.899215   -0.893701
      8          1           0        2.116691    0.395310   -0.001420
      9          1           0       -2.116701    0.395288    0.000387
     10          1           0       -1.261921   -0.897926   -0.894596
     11          1           0       -1.261512   -0.898491    0.894209
 ---------------------------------------------------------------------

 SCF Done:  E(RwB97XD) =  -135.544945691     A.U. after   10 cycles

 Alpha  occ. eigenvalues --  -14.76841 -10.53209 -10.53208  -1.31048  -1.04029
 Alpha  occ. eigenvalues --   -0.99337  -0.88632  -0.81825  -0.77212  -0.70443
 Alpha  occ. eigenvalues --   -0.69806  -0.68939  -0.68393
 Alpha virt. eigenvalues --   -0.12679  -0.08790  -0.08339  -0.07657  -0.06186
 Alpha virt. eigenvalues --   -0.04947  -0.04304  -0.03601  -0.03493  -0.03134
 Alpha virt. eigenvalues --   -0.00993  -0.00870  -0.00589   0.00108   0.00519

 Mulliken charges:
               1
     1  N    0.411444
     2  C   -0.554626
     3  C   -0.554631
     4  H    0.000217
     5  H    0.000326
     6  H    0.294290
     7  H    0.294206
     8  H    0.260139
     9  H    0.260138
    10  H    0.294289
    11  H    0.294209
 Sum of Mulliken charges =   1.00000

 Dipole moment (field-independent basis, Debye):
    X=              0.0000    Y=              1.5011    Z=             -0.0001  Tot=              1.5011
 Quadrupole moment (field-independent basis, Debye-Ang):
   XX=            -12.5014   YY=            -14.4133   ZZ=            -15.9391
   XY=              0.0000   XZ=             -0.0000   YZ=             -0.0000

  Exact polarizability:      35.340      -0.000      30.122      -0.000      -0.000      28.865
 Approx polarizability:      33.341      -0.000      32.243      -0.000      -0.000      31.787

 Normal termination of Gaussian 16 at Wed Mar 23 18:58:09 2011.
