 Gaussian 16, Revision C.01,
 Gaussian 16:  ES64L-G16RevC.01  3-Jul-2019

 ------------------------------------------------
 #p wB97XD/aug-cc-pvtz NoSymm MaxDisk=100GB polar
 ------------------------------------------------

 -----
 polar
 -----
 Symbolic Z-matrix:
 Charge =  0 Multiplicity = 1

                          Input orientation:
 ---------------------------------------------------------------------
 Center     Atomic      Atomic             Coordinates (Angstroms)
 Number     Number       Type             X           Y           Z
 ---------------------------------------------------------------------
      1          8           0        0.026746    1.397915    0.000111
      2          6           0       -0.005405    0.171024   -0.000432
      3          6           0        1.280999   -0.635167    0.000057
      4          6           0       -1.307151   -0.595645    0.000060
      5          1           0        1.106529   -1.712684    0.000250
      6          1           0        1.868758   -0.363297   -0.880903
      7          1           0        1.868385   -0.362933    0.881156
      8          1           0       -1.361530   -1.243866    0.881295
      9          1           0       -2.144690    0.102111    0.000299
     10          1           0       -1.362079   -1.243923   -0.881094
 ---------------------------------------------------------------------

 SCF Done:  E(RwB97XD) =  -193.165453447     A.U. after   11 cycles

 Alpha  occ. eigenvalues --  -19.24094 -10.38524 -10.29468 -10.29335  -1.13732
 Alpha  occ. eigenvalues --   -0.87274  -0.81432  -0.62889  -0.55057  -0.55043
 Alpha  occ. eigenvalues --   -0.54492  -0.49544  -0.48441  -0.46550  -0.43012
 Alpha  occ. eigenvalues --   -0.33718
 Alpha virt. eigenvalues --    0.02773   0.03847   0.03961   0.04828   0.05295
 Alpha virt. eigenvalues --    0.06482   0.06514   0.08336   0.10740   0.11286
 Alpha virt. eigenvalues --    0.11964   0.12173   0.12957   0.13465   0.13793

 Mulliken charges:
               1
     1  O   -0.793619
     2  C    0.653251
     3  C   -0.725295
     4  C   -0.731378
     5  H    0.286611
     6  H    0.244674
     7  H    0.244610
     8  H    0.283058
     9  H    0.254974
    10  H    0.283114
 Sum of Mulliken charges =  -0.00000

 Dipole moment (field-independent basis, Debye):
    X=             -0.0455    Y=             -3.1314    Z=             -0.0003  Tot=              3.1318
 Quadrupole moment (field-independent basis, Debye-Ang):
   XX=            -23.2556   YY=            -29.2046   ZZ=            -24.0847
   XY=              0.0113   XZ=             -0.0000   YZ=             -0.0007

  Exact polarizability:      46.164       0.218      46.313      -0.000       0.002      34.330
 Approx polarizability:      42.606       0.386      50.811      -0.000       0.004      38.077

 Normal termination of Gaussian 16 at Wed Jan  8 11:17:27 2020.
