 Gaussian 16, Revision C.01,
 Gaussian 16:  ES64L-G16RevC.01  3-Jul-2019

 ------------------------------------------------
 #p wB97XD/aug-cc-pvtz NoSymm MaxDisk=100GB polar
 ------------------------------------------------

 -----
 polar
 -----
 Symbolic Z-matrix:
 Charge =  0 Multiplicity = 1

                          Input orientation:
 ---------------------------------------------------------------------
 Center     Atomic      Atomic             Coordinates (Angstroms)
 Number     Number       Type             X           Y           Z
 ---------------------------------------------------------------------
      1          6           0       -1.222960    0.721528   -0.000842
      2          6           0       -1.222956   -0.721524    0.000574
      3          6           0        1.222957    0.721529   -0.000620
      4          6           0        1.222959   -0.721526    0.000347
      5          6           0       -0.000001    1.405688    0.000623
      6          6           0        0.000000   -1.405684   -0.000157
      7          6           0       -2.473310    1.407577    0.000361
      8          6           0       -2.473305   -1.407578   -0.000227
      9          6           0        2.473310    1.407577    0.000135
     10          6           0        2.473306   -1.407578    0.000000
     11          6           0       -3.658245    0.711046   -0.000225
     12          6           0       -3.658242   -0.711052    0.000104
     13          6           0        3.658245    0.711048   -0.000124
     14          6           0        3.658244   -0.711051    0.000001
     15          1           0       -0.000006    2.496771    0.000097
     16          1           0       -0.000001   -2.496768    0.000405
     17          1           0       -2.472890    2.496824   -0.000078
     18          1           0       -2.472884   -2.496825   -0.000007
     19          1           0        2.472892    2.496824   -0.000113
     20          1           0        2.472888   -2.496824    0.000027
     21          1           0       -4.604295    1.247663    0.000274
     22          1           0       -4.604291   -1.247673   -0.000292
     23          1           0        4.604293    1.247669    0.000060
     24          1           0        4.604291   -1.247674   -0.000068
 ---------------------------------------------------------------------

 SCF Done:  E(RwB97XD) =  -539.508886470     A.U. after   12 cycles

 Alpha  occ. eigenvalues --  -10.30635 -10.30634 -10.30593 -10.30588 -10.29745
 Alpha  occ. eigenvalues --  -10.29741 -10.29718 -10.29718 -10.29710 -10.29710
 Alpha  occ. eigenvalues --  -10.29641 -10.29640 -10.29602 -10.29601  -0.98780
 Alpha  occ. eigenvalues --   -0.95565  -0.90491  -0.88815  -0.85438  -0.84143
 Alpha  occ. eigenvalues --   -0.80324  -0.74426  -0.71347  -0.69788  -0.68763
 Alpha  occ. eigenvalues --   -0.63421  -0.61589  -0.59713  -0.55519  -0.55301
 Alpha  occ. eigenvalues --   -0.54194  -0.53630  -0.51225  -0.50148  -0.49715
 Alpha  occ. eigenvalues --   -0.49355  -0.47606  -0.46372  -0.45639  -0.43184
 Alpha  occ. eigenvalues --   -0.41884  -0.41044  -0.39201  -0.38746  -0.34016
 Alpha  occ. eigenvalues --   -0.31602  -0.26656
 Alpha virt. eigenvalues --   -0.01296   0.03103   0.03217   0.03256   0.03679
 Alpha virt. eigenvalues --    0.04227   0.04249   0.05468   0.05833   0.05977
 Alpha virt. eigenvalues --    0.06877   0.07499   0.07549   0.08826   0.08882

 Mulliken charges:
               1
     1  C    1.085209
     2  C    1.085239
     3  C    1.085003
     4  C    1.085050
     5  C   -1.282384
     6  C   -1.282426
     7  C   -1.028776
     8  C   -1.028778
     9  C   -1.028552
    10  C   -1.028560
    11  C   -0.357943
    12  C   -0.357925
    13  C   -0.357882
    14  C   -0.357869
    15  H    0.065721
    16  H    0.065707
    17  H    0.380944
    18  H    0.380953
    19  H    0.380985
    20  H    0.380992
    21  H    0.528852
    22  H    0.528856
    23  H    0.528789
    24  H    0.528793
 Sum of Mulliken charges =  -0.00000

 Dipole moment (field-independent basis, Debye):
    X=              0.0000    Y=             -0.0000    Z=             -0.0001  Tot=              0.0001
 Quadrupole moment (field-independent basis, Debye-Ang):
   XX=            -70.6227   YY=            -71.0022   ZZ=            -88.0854
   XY=             -0.0000   XZ=              0.0000   YZ=             -0.0009

  Exact polarizability:     287.262       0.000     168.194      -0.000       0.009      87.211
 Approx polarizability:     297.080      -0.000     215.561      -0.000       0.024     110.089

 Normal termination of Gaussian 16 at Wed Mar 23 22:01:57 2011.
