 Gaussian 16, Revision C.01,
 Gaussian 16:  ES64L-G16RevC.01  3-Jul-2019

 ------------------------------------------------
 #p wB97XD/aug-cc-pvtz NoSymm MaxDisk=100GB polar
 ------------------------------------------------

 -----
 polar
 -----
 Symbolic Z-matrix:
 Charge =  0 Multiplicity = 1

                          Input orientation:
 ---------------------------------------------------------------------
 Center     Atomic      Atomic             Coordinates (Angstroms)
 Number     Number       Type             X           Y           Z
 ---------------------------------------------------------------------
      1          6           0        0.738871    0.000048   -0.000008
      2          6           0        1.453731    1.117889    0.458433
      3          6           0        2.848738    1.118214    0.456028
      4          6           0        3.550753   -0.000056    0.000023
      5          6           0        2.848678   -1.118243   -0.456090
      6          6           0        1.453667   -1.117855   -0.458408
      7          6           0       -0.738878    0.000049    0.000003
      8          6           0       -1.453717    1.117898   -0.458424
      9          6           0       -2.848732    1.118212   -0.456037
     10          6           0       -3.550754   -0.000051   -0.000017
     11          6           0       -2.848684   -1.118245    0.456080
     12          6           0       -1.453668   -1.117853    0.458418
     13          1           0        0.909373    1.978647    0.841728
     14          1           0        3.389044    1.988843    0.820895
     15          1           0        4.638070   -0.000069   -0.000014
     16          1           0        3.388919   -1.988937   -0.820892
     17          1           0        0.909259   -1.978521   -0.841838
     18          1           0       -0.909379    1.978658   -0.841739
     19          1           0       -3.389046    1.988853   -0.820863
     20          1           0       -4.638071   -0.000068   -0.000018
     21          1           0       -3.388933   -1.988930    0.820898
     22          1           0       -0.909264   -1.978520    0.841839
 ---------------------------------------------------------------------

 SCF Done:  E(RwB97XD) =  -463.294347399     A.U. after   12 cycles

 Alpha  occ. eigenvalues --  -10.30521 -10.30488 -10.29544 -10.29544 -10.29533
 Alpha  occ. eigenvalues --  -10.29533 -10.29432 -10.29431 -10.29426 -10.29426
 Alpha  occ. eigenvalues --  -10.29393 -10.29393  -0.97390  -0.95024  -0.88021
 Alpha  occ. eigenvalues --   -0.85170  -0.84447  -0.82067  -0.72116  -0.71457
 Alpha  occ. eigenvalues --   -0.68815  -0.67184  -0.62467  -0.59053  -0.56042
 Alpha  occ. eigenvalues --   -0.55333  -0.53040  -0.52806  -0.51145  -0.50628
 Alpha  occ. eigenvalues --   -0.50539  -0.46806  -0.45227  -0.45060  -0.43447
 Alpha  occ. eigenvalues --   -0.41972  -0.41879  -0.35617  -0.33483  -0.33323
 Alpha  occ. eigenvalues --   -0.30485
 Alpha virt. eigenvalues --    0.02671   0.03026   0.03318   0.03459   0.04269
 Alpha virt. eigenvalues --    0.04395   0.04891   0.05032   0.05257   0.05409
 Alpha virt. eigenvalues --    0.05886   0.06649   0.07022   0.07790   0.09372

 Mulliken charges:
               1
     1  C    1.645087
     2  C   -1.178251
     3  C   -0.657041
     4  C   -0.346439
     5  C   -0.656803
     6  C   -1.177819
     7  C    1.645153
     8  C   -1.178224
     9  C   -0.657009
    10  C   -0.346443
    11  C   -0.656861
    12  C   -1.177862
    13  H    0.458085
    14  H    0.466988
    15  H    0.521111
    16  H    0.466974
    17  H    0.458090
    18  H    0.458087
    19  H    0.466992
    20  H    0.521116
    21  H    0.466976
    22  H    0.458093
 Sum of Mulliken charges =  -0.00000

 Dipole moment (field-independent basis, Debye):
    X=             -0.0000    Y=              0.0000    Z=             -0.0000  Tot=              0.0000
 Quadrupole moment (field-independent basis, Debye-Ang):
   XX=            -62.0930   YY=            -63.9659   ZZ=            -74.6375
   XY=              0.0000   XZ=              0.0000   YZ=             -0.0000

  Exact polarizability:     202.382       0.000     136.452       0.001      -0.000      89.580
 Approx polarizability:     198.623       0.000     170.401       0.001      -0.000     109.987

 Normal termination of Gaussian 16 at Wed Jan  8 14:16:53 2020.
