 Gaussian 16, Revision C.01,
 Gaussian 16:  ES64L-G16RevC.01  3-Jul-2019

 ------------------------------------------------
 #p wB97XD/aug-cc-pvtz NoSymm MaxDisk=100GB polar
 ------------------------------------------------

 -----
 polar
 -----
 Symbolic Z-matrix:
 Charge =  0 Multiplicity = 1

                          Input orientation:
 ---------------------------------------------------------------------
 Center     Atomic      Atomic             Coordinates (Angstroms)
 Number     Number       Type             X           Y           Z
 ---------------------------------------------------------------------
      1          6           0       -1.159229   -0.882363   -0.232673
      2          6           0       -1.343764    0.562742    0.232668
      3          6           0       -0.184530    1.445104   -0.232670
      4          6           0        1.159231    0.882358    0.232677
      5          6           0        1.343759   -0.562742   -0.232683
      6          6           0        0.184533   -1.445101    0.232680
      7          1           0       -1.202375   -0.915216   -1.330118
      8          1           0       -1.981956   -1.508590    0.133131
      9          1           0       -2.297453    0.962130   -0.133146
     10          1           0       -1.393795    0.583692    1.330112
     11          1           0       -0.191393    1.498904   -1.330114
     12          1           0       -0.315497    2.470718    0.133140
     13          1           0        1.981957    1.508585   -0.133124
     14          1           0        1.202383    0.915194    1.330123
     15          1           0        1.393766   -0.583685   -1.330129
     16          1           0        2.297454   -0.962131    0.133111
     17          1           0        0.315500   -2.470719   -0.133113
     18          1           0        0.191407   -1.498881    1.330127
 ---------------------------------------------------------------------

 SCF Done:  E(RwB97XD) =  -235.892332839     A.U. after    9 cycles

 Alpha  occ. eigenvalues --  -10.27404 -10.27392 -10.27392 -10.27369 -10.27369
 Alpha  occ. eigenvalues --  -10.27357  -0.92814  -0.83508  -0.83508  -0.69642
 Alpha  occ. eigenvalues --   -0.69642  -0.63987  -0.56607  -0.52424  -0.51903
 Alpha  occ. eigenvalues --   -0.51903  -0.45766  -0.45766  -0.45295  -0.41825
 Alpha  occ. eigenvalues --   -0.41825  -0.39257  -0.37352  -0.37352
 Alpha virt. eigenvalues --    0.03269   0.03842   0.03842   0.04042   0.05557
 Alpha virt. eigenvalues --    0.05557   0.05990   0.06074   0.06074   0.08040
 Alpha virt. eigenvalues --    0.08040   0.08191   0.11420   0.11625   0.11625

 Mulliken charges:
               1
     1  C   -0.498977
     2  C   -0.498720
     3  C   -0.499448
     4  C   -0.498975
     5  C   -0.498718
     6  C   -0.499447
     7  H    0.183197
     8  H    0.315948
     9  H    0.315684
    10  H    0.183255
    11  H    0.183124
    12  H    0.315938
    13  H    0.315945
    14  H    0.183200
    15  H    0.183258
    16  H    0.315679
    17  H    0.315933
    18  H    0.183126
 Sum of Mulliken charges =  -0.00000

 Dipole moment (field-independent basis, Debye):
    X=              0.0000    Y=             -0.0000    Z=             -0.0000  Tot=              0.0000
 Quadrupole moment (field-independent basis, Debye-Ang):
   XX=            -40.3146   YY=            -40.3144   ZZ=            -39.6763
   XY=              0.0000   XZ=             -0.0000   YZ=             -0.0000

  Exact polarizability:      74.039       0.004      74.054       0.001       0.003      64.628
 Approx polarizability:      74.823       0.000      74.822      -0.000      -0.000      75.707

 Normal termination of Gaussian 16 at Wed Jan  8 11:56:57 2020.
