 Gaussian 16, Revision C.01,
 Gaussian 16:  ES64L-G16RevC.01  3-Jul-2019

 ------------------------------------------------
 #p wB97XD/aug-cc-pvtz NoSymm MaxDisk=100GB polar
 ------------------------------------------------

 -----
 polar
 -----
 Symbolic Z-matrix:
 Charge =  0 Multiplicity = 1

                          Input orientation:
 ---------------------------------------------------------------------
 Center     Atomic      Atomic             Coordinates (Angstroms)
 Number     Number       Type             X           Y           Z
 ---------------------------------------------------------------------
      1          8           0       -0.000001    0.601143    0.000000
      2          6           0       -1.166990   -0.200491    0.000000
      3          6           0        1.166992   -0.200492    0.000000
      4          1           0       -1.214726   -0.840982    0.892165
      5          1           0       -1.214720   -0.840989   -0.892160
      6          1           0       -2.018895    0.480344   -0.000005
      7          1           0        2.018894    0.480348   -0.000003
      8          1           0        1.214725   -0.840980    0.892165
      9          1           0        1.214721   -0.840986   -0.892161
 ---------------------------------------------------------------------

 SCF Done:  E(RwB97XD) =  -155.036691370     A.U. after   10 cycles

 Alpha  occ. eigenvalues --  -19.25789 -10.32510 -10.32509  -1.13494  -0.81780
 Alpha  occ. eigenvalues --   -0.73539  -0.56230  -0.56078  -0.56066  -0.48028
 Alpha  occ. eigenvalues --   -0.45913  -0.40975  -0.34528
 Alpha virt. eigenvalues --    0.03237   0.04313   0.04887   0.05006   0.06550
 Alpha virt. eigenvalues --    0.06807   0.08776   0.12084   0.12428   0.12549
 Alpha virt. eigenvalues --    0.13150   0.14034   0.15119   0.16473   0.16781

 Mulliken charges:
               1
     1  O   -0.463585
     2  C   -0.662169
     3  C   -0.662168
     4  H    0.308483
     5  H    0.308483
     6  H    0.276995
     7  H    0.276995
     8  H    0.308483
     9  H    0.308483
 Sum of Mulliken charges =  -0.00000

 Dipole moment (field-independent basis, Debye):
    X=              0.0000    Y=             -1.3308    Z=             -0.0000  Tot=              1.3308
 Quadrupole moment (field-independent basis, Debye-Ang):
   XX=            -17.4102   YY=            -21.3011   ZZ=            -20.1071
   XY=             -0.0000   XZ=              0.0000   YZ=              0.0000

  Exact polarizability:      38.430       0.000      31.892      -0.000      -0.000      31.120
 Approx polarizability:      35.154      -0.000      33.520      -0.000      -0.000      31.700

 Normal termination of Gaussian 16 at Wed Jan  8 11:21:04 2020.
