 Gaussian 16, Revision C.01,
 Gaussian 16:  ES64L-G16RevC.01  3-Jul-2019

 ------------------------------------------------
 #p wB97XD/aug-cc-pvtz NoSymm MaxDisk=100GB polar
 ------------------------------------------------

 -----
 polar
 -----
 Symbolic Z-matrix:
 Charge =  0 Multiplicity = 1

                          Input orientation:
 ---------------------------------------------------------------------
 Center     Atomic      Atomic             Coordinates (Angstroms)
 Number     Number       Type             X           Y           Z
 ---------------------------------------------------------------------
      1          6           0        1.226244    0.703382    0.000050
      2          6           0        1.226243   -0.703387   -0.000054
      3          6           0       -1.226247    0.703383   -0.000059
      4          6           0       -1.226255   -0.703368    0.000041
      5          6           0        0.000010    1.375466    0.000108
      6          6           0        0.000004   -1.375462   -0.000118
      7          6           0        2.519645    1.475263   -0.000141
      8          6           0        2.519641   -1.475270    0.000149
      9          6           0       -2.519639    1.475291    0.000085
     10          6           0       -2.519643   -1.475291   -0.000076
     11          1           0       -0.000001    2.466053    0.000059
     12          1           0       -0.000013   -2.466049   -0.000100
     13          1           0        3.126202    1.244533   -0.883141
     14          1           0        2.327582    2.551662    0.003354
     15          1           0        3.129552    1.239330    0.879122
     16          1           0        2.327574   -2.551668   -0.003542
     17          1           0        3.126085   -1.244680    0.883263
     18          1           0        3.129661   -1.239199   -0.878998
     19          1           0       -2.327576    2.551697   -0.000081
     20          1           0       -3.128045    1.241853   -0.880905
     21          1           0       -3.127707    1.242055    0.881361
     22          1           0       -3.127828   -1.242192    0.881161
     23          1           0       -2.327573   -2.551694   -0.000350
     24          1           0       -3.127935   -1.241742   -0.881111
 ---------------------------------------------------------------------

 SCF Done:  E(RwB97XD) =  -389.521454619     A.U. after   11 cycles

 Alpha  occ. eigenvalues --  -10.28871 -10.28869 -10.28816 -10.28811 -10.27808
 Alpha  occ. eigenvalues --  -10.27808 -10.27806 -10.27805 -10.27776 -10.27771
 Alpha  occ. eigenvalues --   -0.95937  -0.89404  -0.86394  -0.82235  -0.80492
 Alpha  occ. eigenvalues --   -0.76146  -0.73098  -0.68417  -0.63389  -0.57319
 Alpha  occ. eigenvalues --   -0.55708  -0.52412  -0.52274  -0.51096  -0.49080
 Alpha  occ. eigenvalues --   -0.48192  -0.47959  -0.47831  -0.47114  -0.46983
 Alpha  occ. eigenvalues --   -0.45923  -0.44368  -0.41410  -0.40541  -0.40381
 Alpha  occ. eigenvalues --   -0.31208  -0.29470
 Alpha virt. eigenvalues --    0.03091   0.03270   0.03399   0.04455   0.04557
 Alpha virt. eigenvalues --    0.04894   0.05684   0.06206   0.06578   0.06589
 Alpha virt. eigenvalues --    0.06622   0.06798   0.07059   0.07453   0.08797

 Mulliken charges:
               1
     1  C    0.656980
     2  C    0.656999
     3  C    0.657128
     4  C    0.657095
     5  C   -1.063513
     6  C   -1.063521
     7  C   -1.059262
     8  C   -1.059260
     9  C   -1.059225
    10  C   -1.059223
    11  H    0.311158
    12  H    0.311153
    13  H    0.288327
    14  H    0.203659
    15  H    0.286384
    16  H    0.203659
    17  H    0.288317
    18  H    0.286394
    19  H    0.203704
    20  H    0.287265
    21  H    0.287407
    22  H    0.287252
    23  H    0.203707
    24  H    0.287416
 Sum of Mulliken charges =  -0.00000

 Dipole moment (field-independent basis, Debye):
    X=              0.0000    Y=             -0.0000    Z=              0.0001  Tot=              0.0001
 Quadrupole moment (field-independent basis, Debye-Ang):
   XX=            -57.3322   YY=            -58.7847   ZZ=            -64.6381
   XY=              0.0000   XZ=             -0.0001   YZ=             -0.0008

  Exact polarizability:     156.277       0.000     130.027      -0.000      -0.002      80.165
 Approx polarizability:     154.827       0.000     145.076      -0.000      -0.002      98.781

 Normal termination of Gaussian 16 at Wed Jan  8 13:45:34 2020.
