 Gaussian 16, Revision C.01,
 Gaussian 16:  ES64L-G16RevC.01  3-Jul-2019

 ------------------------------------------------
 #p wB97XD/aug-cc-pvtz NoSymm MaxDisk=100GB polar
 ------------------------------------------------

 -----
 polar
 -----
 Symbolic Z-matrix:
 Charge =  0 Multiplicity = 1

                          Input orientation:
 ---------------------------------------------------------------------
 Center     Atomic      Atomic             Coordinates (Angstroms)
 Number     Number       Type             X           Y           Z
 ---------------------------------------------------------------------
      1          6           0       -0.508883    1.311513   -0.022742
      2          6           0       -1.390194    0.215043    0.022743
      3          6           0        0.881345    1.096475    0.022656
      4          6           0       -0.881344   -1.096434   -0.022694
      5          6           0        1.390227   -0.215011   -0.022790
      6          6           0        0.508906   -1.311493    0.022668
      7          6           0       -1.055667    2.720313   -0.087490
      8          6           0       -2.883650    0.445894    0.087530
      9          6           0        1.828174    2.274273    0.087493
     10          6           0       -1.828227   -2.274190   -0.087496
     11          6           0        2.883666   -0.446030   -0.087431
     12          6           0        1.055673   -2.720304    0.087475
     13          1           0       -1.222899    3.150782    0.908240
     14          1           0       -0.373152    3.383870   -0.621998
     15          1           0       -2.007085    2.749497   -0.622120
     16          1           0       -3.116960    1.369020    0.621618
     17          1           0       -3.340182    0.515872   -0.908178
     18          1           0       -3.384581   -0.363222    0.622576
     19          1           0        2.744052    2.014632    0.621917
     20          1           0        1.378059    3.112902    0.622231
     21          1           0        2.117431    2.634316   -0.908223
     22          1           0       -1.377806   -3.113031   -0.621631
     23          1           0       -2.118086   -2.633848    0.908185
     24          1           0       -2.743812   -2.014710   -0.622521
     25          1           0        3.340077   -0.515951    0.908336
     26          1           0        3.116894   -1.369235   -0.621408
     27          1           0        3.384810    0.362943   -0.622492
     28          1           0        0.372926   -3.383839    0.621717
     29          1           0        1.223247   -3.150744   -0.908208
     30          1           0        2.006912   -2.749552    0.622420
 ---------------------------------------------------------------------

 SCF Done:  E(RwB97XD) =  -468.145185030     A.U. after   10 cycles

 Alpha  occ. eigenvalues --  -10.28318 -10.28292 -10.28292 -10.28231 -10.28231
 Alpha  occ. eigenvalues --  -10.28208 -10.27372 -10.27371 -10.27371 -10.27370
 Alpha  occ. eigenvalues --  -10.27369 -10.27368  -0.95913  -0.88943  -0.88941
 Alpha  occ. eigenvalues --   -0.81898  -0.81897  -0.79358  -0.78688  -0.72654
 Alpha  occ. eigenvalues --   -0.72653  -0.63417  -0.63416  -0.58962  -0.54078
 Alpha  occ. eigenvalues --   -0.53034  -0.50567  -0.50566  -0.49857  -0.49853
 Alpha  occ. eigenvalues --   -0.49535  -0.48072  -0.48070  -0.47119  -0.46209
 Alpha  occ. eigenvalues --   -0.46209  -0.45549  -0.45549  -0.44447  -0.43176
 Alpha  occ. eigenvalues --   -0.39722  -0.39319  -0.39319  -0.28922  -0.28922
 Alpha virt. eigenvalues --    0.03102   0.03299   0.03299   0.04168   0.04492
 Alpha virt. eigenvalues --    0.04492   0.05277   0.05277   0.06038   0.06536
 Alpha virt. eigenvalues --    0.06710   0.06710   0.07087   0.07739   0.07740

 Mulliken charges:
               1
     1  C    0.350375
     2  C    0.348330
     3  C    0.352224
     4  C    0.352398
     5  C    0.348598
     6  C    0.350577
     7  C   -1.107180
     8  C   -1.106379
     9  C   -1.105303
    10  C   -1.105193
    11  C   -1.106572
    12  C   -1.107050
    13  H    0.432797
    14  H    0.162605
    15  H    0.161278
    16  H    0.161346
    17  H    0.432743
    18  H    0.162303
    19  H    0.160256
    20  H    0.160844
    21  H    0.433463
    22  H    0.160812
    23  H    0.433477
    24  H    0.160191
    25  H    0.432774
    26  H    0.161237
    27  H    0.162380
    28  H    0.162555
    29  H    0.432858
    30  H    0.161257
 Sum of Mulliken charges =  -0.00000

 Dipole moment (field-independent basis, Debye):
    X=              0.0000    Y=             -0.0000    Z=              0.0001  Tot=              0.0001
 Quadrupole moment (field-independent basis, Debye-Ang):
   XX=            -71.4409   YY=            -71.4447   ZZ=            -77.0341
   XY=             -0.0023   XZ=             -0.0010   YZ=             -0.0008

  Exact polarizability:     171.184       0.015     171.171      -0.003       0.004      96.294
 Approx polarizability:     177.960       0.002     177.955      -0.002      -0.001     122.683

 Normal termination of Gaussian 16 at Wed Jan  8 16:00:36 2020.
