 Gaussian 16, Revision C.01,
 Gaussian 16:  ES64L-G16RevC.01  3-Jul-2019

 ------------------------------------------------
 #p wB97XD/aug-cc-pvtz NoSymm MaxDisk=100GB polar
 ------------------------------------------------

 -----
 polar
 -----
 Symbolic Z-matrix:
 Charge =  0 Multiplicity = 1

                          Input orientation:
 ---------------------------------------------------------------------
 Center     Atomic      Atomic             Coordinates (Angstroms)
 Number     Number       Type             X           Y           Z
 ---------------------------------------------------------------------
      1          6           0       -0.994386   -0.998241   -0.000206
      2          6           0        1.363158   -0.367543   -0.000213
      3          6           0       -0.361745    1.359014    0.000037
      4          6           0        0.362376   -1.343466   -0.000230
      5          6           0       -1.339152    0.356539   -0.000007
      6          6           0        0.983668    0.980294   -0.000019
      7          6           0       -2.067165   -2.057910    0.000182
      8          6           0        2.822320   -0.746941    0.000189
      9          6           0       -0.763035    2.812432    0.000040
     10          1           0        0.644208   -2.396416   -0.000461
     11          1           0       -2.392888    0.639248   -0.000066
     12          1           0        1.754919    1.751248   -0.000087
     13          1           0       -1.629241   -3.059942   -0.004206
     14          1           0       -2.706459   -1.974048    0.885177
     15          1           0       -2.712258   -1.968775   -0.880054
     16          1           0        3.335996   -0.346313   -0.879940
     17          1           0        2.945416   -1.833564   -0.004312
     18          1           0        3.333555   -0.353974    0.885203
     19          1           0       -1.363320    3.057415    0.882416
     20          1           0       -1.362560    3.057634   -0.882795
     21          1           0        0.116387    3.462416    0.000495
 ---------------------------------------------------------------------

 SCF Done:  E(RwB97XD) =  -350.201306629     A.U. after   12 cycles

 Alpha  occ. eigenvalues --  -10.29534 -10.29513 -10.29491 -10.27919 -10.27915
 Alpha  occ. eigenvalues --  -10.27913 -10.27790 -10.27739 -10.27688  -0.95802
 Alpha  occ. eigenvalues --   -0.87744  -0.87733  -0.79591  -0.77284  -0.77235
 Alpha  occ. eigenvalues --   -0.66162  -0.66134  -0.58185  -0.56301  -0.51484
 Alpha  occ. eigenvalues --   -0.51410  -0.49735  -0.49691  -0.48571  -0.48406
 Alpha  occ. eigenvalues --   -0.47661  -0.47354  -0.44343  -0.41790  -0.41100
 Alpha  occ. eigenvalues --   -0.41017  -0.31061  -0.30800
 Alpha virt. eigenvalues --    0.03108   0.03429   0.03455   0.04446   0.04797
 Alpha virt. eigenvalues --    0.04882   0.04913   0.05689   0.06275   0.06588
 Alpha virt. eigenvalues --    0.06937   0.07125   0.07434   0.08836   0.09742

 Mulliken charges:
               1
     1  C    1.075652
     2  C    1.124302
     3  C    1.125399
     4  C   -1.158940
     5  C   -1.330726
     6  C   -1.271171
     7  C   -0.893841
     8  C   -0.843447
     9  C   -0.959012
    10  H    0.155549
    11  H    0.271625
    12  H    0.250735
    13  H    0.258836
    14  H    0.280378
    15  H    0.279594
    16  H    0.281035
    17  H    0.256521
    18  H    0.281872
    19  H    0.283358
    20  H    0.283347
    21  H    0.248937
 Sum of Mulliken charges =  -0.00000

 Dipole moment (field-independent basis, Debye):
    X=             -0.0524    Y=              0.0514    Z=              0.0010  Tot=              0.0734
 Quadrupole moment (field-independent basis, Debye-Ang):
   XX=            -51.0821   YY=            -51.5036   ZZ=            -58.3093
   XY=             -0.0005   XZ=              0.0003   YZ=             -0.0009

  Exact polarizability:     128.835      -0.003     127.134       0.001      -0.002      72.145
 Approx polarizability:     136.363       0.002     134.099       0.000      -0.000      86.920

 Normal termination of Gaussian 16 at Wed Jan  8 13:39:18 2020.
