 Gaussian 16, Revision C.01,
 Gaussian 16:  ES64L-G16RevC.01  3-Jul-2019

 ------------------------------------------------
 #p wB97XD/aug-cc-pvtz NoSymm MaxDisk=100GB polar
 ------------------------------------------------

 -----
 polar
 -----
 Symbolic Z-matrix:
 Charge =  0 Multiplicity = 1

                          Input orientation:
 ---------------------------------------------------------------------
 Center     Atomic      Atomic             Coordinates (Angstroms)
 Number     Number       Type             X           Y           Z
 ---------------------------------------------------------------------
      1          6           0       -1.223722   -0.271341   -0.016284
      2          6           0        1.223595   -0.271559   -0.016244
      3          6           0       -0.000079   -0.950890   -0.018767
      4          6           0       -1.209485    1.128478    0.001230
      5          6           0        1.209556    1.128339    0.001263
      6          6           0        0.000117    1.824020    0.004162
      7          6           0       -2.525446   -1.030761    0.013810
      8          6           0        2.525419   -1.030812    0.013786
      9          1           0       -0.000173   -2.041262   -0.040551
     10          1           0       -2.150374    1.676514   -0.003760
     11          1           0        2.150542    1.676224   -0.003711
     12          1           0        0.000184    2.911872    0.008118
     13          1           0       -3.317677   -0.474381   -0.495471
     14          1           0       -2.425245   -2.003511   -0.476283
     15          1           0       -2.855762   -1.210277    1.042905
     16          1           0        3.314999   -0.479151   -0.504698
     17          1           0        2.861243   -1.200959    1.042689
     18          1           0        2.422535   -2.007915   -0.466969
 ---------------------------------------------------------------------

 SCF Done:  E(RwB97XD) =  -310.881953389     A.U. after   12 cycles

 Alpha  occ. eigenvalues --  -10.29781 -10.29779 -10.28793 -10.28277 -10.28275
 Alpha  occ. eigenvalues --  -10.28231 -10.28096 -10.28096  -0.95778  -0.88008
 Alpha  occ. eigenvalues --   -0.85566  -0.78680  -0.77439  -0.68833  -0.66088
 Alpha  occ. eigenvalues --   -0.58998  -0.55542  -0.53062  -0.51154  -0.49932
 Alpha  occ. eigenvalues --   -0.49391  -0.48489  -0.47814  -0.45539  -0.43059
 Alpha  occ. eigenvalues --   -0.41610  -0.41408  -0.32096  -0.31184
 Alpha virt. eigenvalues --    0.03178   0.03465   0.03660   0.04456   0.04862
 Alpha virt. eigenvalues --    0.04976   0.05167   0.05789   0.06527   0.06688
 Alpha virt. eigenvalues --    0.07469   0.08239   0.08529   0.10725   0.11024

 Mulliken charges:
               1
     1  C    1.058516
     2  C    1.058408
     3  C   -1.286465
     4  C   -1.026825
     5  C   -1.028338
     6  C   -0.672397
     7  C   -0.873252
     8  C   -0.875448
     9  H    0.370224
    10  H    0.421687
    11  H    0.421861
    12  H    0.700699
    13  H    0.275912
    14  H    0.271064
    15  H    0.319017
    16  H    0.276091
    17  H    0.318888
    18  H    0.270356
 Sum of Mulliken charges =  -0.00000

 Dipole moment (field-independent basis, Debye):
    X=              0.0007    Y=             -0.3795    Z=              0.0786  Tot=              0.3875
 Quadrupole moment (field-independent basis, Debye-Ang):
   XX=            -44.3152   YY=            -45.4233   ZZ=            -52.1384
   XY=              0.0018   XZ=             -0.0001   YZ=             -0.0217

  Exact polarizability:     119.693       0.007     104.964      -0.000      -0.098      63.227
 Approx polarizability:     123.078       0.010     119.319       0.000       0.044      75.119

 Normal termination of Gaussian 16 at Wed Jan  8 12:37:41 2020.
