 Gaussian 16, Revision C.01,
 Gaussian 16:  ES64L-G16RevC.01  3-Jul-2019

 ------------------------------------------------
 #p wB97XD/aug-cc-pvtz NoSymm MaxDisk=100GB polar
 ------------------------------------------------

 -----
 polar
 -----
 Symbolic Z-matrix:
 Charge =  0 Multiplicity = 1

                          Input orientation:
 ---------------------------------------------------------------------
 Center     Atomic      Atomic             Coordinates (Angstroms)
 Number     Number       Type             X           Y           Z
 ---------------------------------------------------------------------
      1          6           0        1.241622    1.403437   -0.000010
      2          6           0        2.432527    0.707306    0.000007
      3          6           0        2.432527   -0.707307   -0.000006
      4          6           0        1.241622   -1.403437    0.000027
      5          6           0        0.000000   -0.716494   -0.000089
      6          6           0       -1.241622   -1.403436    0.000044
      7          6           0       -2.432528   -0.707307   -0.000035
      8          6           0       -2.432527    0.707306    0.000036
      9          6           0       -1.241623    1.403437   -0.000028
     10          6           0        0.000000    0.716493    0.000037
     11          1           0        1.240655    2.492653   -0.000015
     12          1           0        3.376982    1.246639    0.000029
     13          1           0        3.376983   -1.246639    0.000045
     14          1           0        1.240652   -2.492653   -0.000008
     15          1           0       -1.240651   -2.492652   -0.000043
     16          1           0       -3.376983   -1.246638    0.000075
     17          1           0       -3.376983    1.246637    0.000000
     18          1           0       -1.240654    2.492653    0.000017
 ---------------------------------------------------------------------

 SCF Done:  E(RwB97XD) =  -385.879516744     A.U. after   11 cycles

 Alpha  occ. eigenvalues --  -10.30459 -10.30411 -10.29611 -10.29610 -10.29600
 Alpha  occ. eigenvalues --  -10.29598 -10.29540 -10.29540 -10.29503 -10.29502
 Alpha  occ. eigenvalues --   -0.97897  -0.92446  -0.87639  -0.84268  -0.81921
 Alpha  occ. eigenvalues --   -0.72311  -0.70791  -0.69220  -0.60734  -0.60275
 Alpha  occ. eigenvalues --   -0.58545  -0.53767  -0.53011  -0.50430  -0.50330
 Alpha  occ. eigenvalues --   -0.48650  -0.48630  -0.45462  -0.42138  -0.41860
 Alpha  occ. eigenvalues --   -0.41389  -0.37180  -0.32183  -0.29200
 Alpha virt. eigenvalues --    0.01405   0.03159   0.03345   0.03531   0.04280
 Alpha virt. eigenvalues --    0.04550   0.04750   0.06325   0.06503   0.07044
 Alpha virt. eigenvalues --    0.08289   0.08835   0.09369   0.09533   0.10229

 Mulliken charges:
               1
     1  C   -0.948216
     2  C   -0.375851
     3  C   -0.375854
     4  C   -0.948213
     5  C    0.963297
     6  C   -0.948218
     7  C   -0.375854
     8  C   -0.375851
     9  C   -0.948215
    10  C    0.963301
    11  H    0.371722
    12  H    0.470697
    13  H    0.470696
    14  H    0.371722
    15  H    0.371722
    16  H    0.470697
    17  H    0.470697
    18  H    0.371721
 Sum of Mulliken charges =  -0.00000

 Dipole moment (field-independent basis, Debye):
    X=              0.0000    Y=              0.0000    Z=              0.0000  Tot=              0.0000
 Quadrupole moment (field-independent basis, Debye-Ang):
   XX=            -51.1913   YY=            -51.3847   ZZ=            -63.9585
   XY=              0.0000   XZ=             -0.0000   YZ=              0.0000

  Exact polarizability:     168.776      -0.000     124.260       0.000      -0.000      66.253
 Approx polarizability:     185.857       0.000     152.334      -0.000      -0.001      80.752

 Normal termination of Gaussian 16 at Wed Jan  8 07:27:08 2020.
