 Gaussian 16, Revision C.01,
 Gaussian 16:  ES64L-G16RevC.01  3-Jul-2019

 ------------------------------------------------
 #p wB97XD/aug-cc-pvtz NoSymm MaxDisk=100GB polar
 ------------------------------------------------

 -----
 polar
 -----
 Symbolic Z-matrix:
 Charge =  0 Multiplicity = 1

                          Input orientation:
 ---------------------------------------------------------------------
 Center     Atomic      Atomic             Coordinates (Angstroms)
 Number     Number       Type             X           Y           Z
 ---------------------------------------------------------------------
      1          6           0       -0.476028    0.702875    0.000020
      2          6           0       -0.476030   -0.702874   -0.000050
      3          6           0        0.743331    1.382699    0.000039
      4          6           0        0.743328   -1.382700   -0.000078
      5          6           0       -1.771070    1.463611    0.000030
      6          6           0       -1.771073   -1.463608    0.000045
      7          6           0        1.955110    0.695797    0.000005
      8          6           0        1.955107   -0.695800   -0.000052
      9          1           0        0.739883    2.465729    0.000095
     10          1           0        0.739881   -2.465730   -0.000146
     11          1           0       -2.372940    1.222707   -0.877324
     12          1           0       -2.373771    1.221308    0.876418
     13          1           0       -1.589277    2.536232    0.000951
     14          1           0       -2.374054   -1.220980   -0.876056
     15          1           0       -1.589281   -2.536229   -0.001326
     16          1           0       -2.372661   -1.223029    0.877685
     17          1           0        2.888084    1.242660    0.000023
     18          1           0        2.888080   -1.242665   -0.000081
 ---------------------------------------------------------------------

 SCF Done:  E(RwB97XD) =  -310.882975768     A.U. after   11 cycles

 Alpha  occ. eigenvalues --  -10.29442 -10.29385 -10.28405 -10.28361 -10.28314
 Alpha  occ. eigenvalues --  -10.28299 -10.27997 -10.27995  -0.96039  -0.87708
 Alpha  occ. eigenvalues --   -0.86152  -0.79446  -0.76950  -0.68896  -0.66448
 Alpha  occ. eigenvalues --   -0.58893  -0.55943  -0.53320  -0.52476  -0.49626
 Alpha  occ. eigenvalues --   -0.48604  -0.48492  -0.47004  -0.46839  -0.43692
 Alpha  occ. eigenvalues --   -0.41436  -0.41374  -0.32175  -0.31173
 Alpha virt. eigenvalues --    0.03177   0.03527   0.03569   0.04728   0.04795
 Alpha virt. eigenvalues --    0.05063   0.05996   0.06266   0.06647   0.06748
 Alpha virt. eigenvalues --    0.06899   0.08768   0.08892   0.10066   0.10676

 Mulliken charges:
               1
     1  C    0.772318
     2  C    0.772315
     3  C   -1.080572
     4  C   -1.080570
     5  C   -0.911241
     6  C   -0.911241
     7  C   -0.492056
     8  C   -0.492052
     9  H    0.442661
    10  H    0.442661
    11  H    0.289889
    12  H    0.289331
    13  H    0.179499
    14  H    0.289349
    15  H    0.179499
    16  H    0.289871
    17  H    0.510170
    18  H    0.510169
 Sum of Mulliken charges =  -0.00000

 Dipole moment (field-independent basis, Debye):
    X=             -0.6970    Y=             -0.0000    Z=              0.0001  Tot=              0.6970
 Quadrupole moment (field-independent basis, Debye-Ang):
   XX=            -45.2902   YY=            -45.1411   ZZ=            -52.1279
   XY=              0.0000   XZ=             -0.0001   YZ=              0.0001

  Exact polarizability:     116.243       0.000     104.890      -0.001       0.000      62.366
 Approx polarizability:     122.957       0.000     118.013      -0.001       0.001      74.712

 Normal termination of Gaussian 16 at Wed Jan  8 13:03:34 2020.
