 Gaussian 16, Revision C.01,
 Gaussian 16:  ES64L-G16RevC.01  3-Jul-2019

 ------------------------------------------------
 #p wB97XD/aug-cc-pvtz NoSymm MaxDisk=100GB polar
 ------------------------------------------------

 -----
 polar
 -----
 Symbolic Z-matrix:
 Charge =  0 Multiplicity = 1

                          Input orientation:
 ---------------------------------------------------------------------
 Center     Atomic      Atomic             Coordinates (Angstroms)
 Number     Number       Type             X           Y           Z
 ---------------------------------------------------------------------
      1          8           0        0.000010   -1.381368   -0.301054
      2          6           0        1.167097   -0.730788    0.202676
      3          6           0        1.167083    0.730806   -0.202673
      4          8           0       -0.000009    1.381369    0.301051
      5          6           0       -1.167096    0.730791   -0.202665
      6          6           0       -1.167082   -0.730809    0.202666
      7          1           0        1.198912   -0.808561    1.300206
      8          1           0        2.024616   -1.263306   -0.218869
      9          1           0        2.024597    1.263338    0.218866
     10          1           0        1.198901    0.808571   -1.300205
     11          1           0       -1.198925    0.808565   -1.300195
     12          1           0       -2.024620    1.263297    0.218888
     13          1           0       -2.024602   -1.263328   -0.218881
     14          1           0       -1.198907   -0.808581    1.300196
 ---------------------------------------------------------------------

 SCF Done:  E(RwB97XD) =  -307.679622432     A.U. after   11 cycles

 Alpha  occ. eigenvalues --  -19.26170 -19.26169 -10.33435 -10.33435 -10.33410
 Alpha  occ. eigenvalues --  -10.33409  -1.15940  -1.12043  -0.88124  -0.79642
 Alpha  occ. eigenvalues --   -0.75921  -0.67730  -0.60095  -0.56899  -0.56574
 Alpha  occ. eigenvalues --   -0.56395  -0.53763  -0.48660  -0.45886  -0.45073
 Alpha  occ. eigenvalues --   -0.44757  -0.39190  -0.37455  -0.32726
 Alpha virt. eigenvalues --    0.03325   0.03773   0.04140   0.04708   0.05582
 Alpha virt. eigenvalues --    0.05913   0.05947   0.08268   0.08830   0.09926
 Alpha virt. eigenvalues --    0.11312   0.11492   0.12060   0.12715   0.12896

 Mulliken charges:
               1
     1  O   -0.650110
     2  C   -0.256320
     3  C   -0.256318
     4  O   -0.650109
     5  C   -0.256320
     6  C   -0.256314
     7  H    0.267692
     8  H    0.313678
     9  H    0.313681
    10  H    0.267692
    11  H    0.267692
    12  H    0.313681
    13  H    0.313683
    14  H    0.267692
 Sum of Mulliken charges =  -0.00000

 Dipole moment (field-independent basis, Debye):
    X=              0.0000    Y=              0.0000    Z=              0.0000  Tot=              0.0000
 Quadrupole moment (field-independent basis, Debye-Ang):
   XX=            -30.7848   YY=            -42.3940   ZZ=            -36.9634
   XY=              0.0001   XZ=              0.0000   YZ=             -2.4067

  Exact polarizability:      63.384       0.000      54.127       0.000      -0.809      52.045
 Approx polarizability:      63.474       0.000      56.497       0.000       1.582      58.399

 Normal termination of Gaussian 16 at Wed Jan  8 06:45:42 2020.
