 Gaussian 16, Revision C.01,
 Gaussian 16:  ES64L-G16RevC.01  3-Jul-2019

 ------------------------------------------------
 #p wB97XD/aug-cc-pvtz NoSymm MaxDisk=100GB polar
 ------------------------------------------------

 -----
 polar
 -----
 Symbolic Z-matrix:
 Charge =  0 Multiplicity = 1

                          Input orientation:
 ---------------------------------------------------------------------
 Center     Atomic      Atomic             Coordinates (Angstroms)
 Number     Number       Type             X           Y           Z
 ---------------------------------------------------------------------
      1          6           0        1.434758   -0.001300    0.035597
      2          6           0       -1.434760   -0.001306   -0.035635
      3          6           0        0.732341   -1.241391   -0.062663
      4          6           0        0.734914    1.244560    0.018843
      5          6           0       -0.732322   -1.241399    0.062690
      6          6           0       -0.734934    1.244556   -0.018801
      7          6           0        2.869480    0.000476   -0.010001
      8          6           0       -2.869481    0.000454    0.009895
      9          6           0        1.469126   -2.421614   -0.154705
     10          6           0        1.471321    2.421167    0.155013
     11          6           0       -1.469097   -2.421617    0.154799
     12          6           0       -1.471351    2.421167   -0.154931
     13          6           0        3.567798   -1.229208   -0.076463
     14          6           0        3.569239    1.225875    0.101983
     15          6           0       -3.567781   -1.229239    0.076375
     16          6           0       -3.569250    1.225852   -0.102065
     17          6           0        2.873669   -2.415902   -0.190886
     18          6           0        2.876195    2.416867    0.166171
     19          6           0       -2.873642   -2.415918    0.190900
     20          6           0       -2.876222    2.416856   -0.166150
     21          1           0        0.958401   -3.374244   -0.260948
     22          1           0        0.965182    3.380877    0.202952
     23          1           0       -0.958367   -3.374234    0.261151
     24          1           0       -0.965222    3.380886   -0.202776
     25          1           0        4.656570   -1.218126   -0.092044
     26          1           0        4.658081    1.215567    0.093060
     27          1           0       -4.656555   -1.218177    0.091880
     28          1           0       -4.658093    1.215532   -0.093211
     29          1           0        3.410359   -3.359031   -0.267634
     30          1           0        3.413237    3.358196    0.260654
     31          1           0       -3.410324   -3.359048    0.267702
     32          1           0       -3.413273    3.358185   -0.260586
 ---------------------------------------------------------------------

 SCF Done:  E(RwB97XD) =  -769.371141569     A.U. after   13 cycles

 Alpha  occ. eigenvalues --  -10.31055 -10.31024 -10.31021 -10.30989 -10.30813
 Alpha  occ. eigenvalues --  -10.30811 -10.30639 -10.30639 -10.29689 -10.29689
 Alpha  occ. eigenvalues --  -10.29673 -10.29673 -10.29619 -10.29616 -10.29615
 Alpha  occ. eigenvalues --  -10.29613 -10.29587 -10.29586 -10.29572 -10.29571
 Alpha  occ. eigenvalues --   -1.00112  -0.97303  -0.94288  -0.91944  -0.91290
 Alpha  occ. eigenvalues --   -0.85407  -0.85316  -0.85030  -0.83975  -0.79443
 Alpha  occ. eigenvalues --   -0.74379  -0.73266  -0.72376  -0.71004  -0.69093
 Alpha  occ. eigenvalues --   -0.64305  -0.62841  -0.62535  -0.60131  -0.58712
 Alpha  occ. eigenvalues --   -0.57632  -0.56662  -0.54886  -0.54272  -0.51924
 Alpha  occ. eigenvalues --   -0.51259  -0.51145  -0.50662  -0.49902  -0.49306
 Alpha  occ. eigenvalues --   -0.47861  -0.47718  -0.46156  -0.46003  -0.44688
 Alpha  occ. eigenvalues --   -0.43986  -0.43582  -0.41152  -0.40737  -0.40274
 Alpha  occ. eigenvalues --   -0.40185  -0.33552  -0.33305  -0.32743  -0.32285
 Alpha  occ. eigenvalues --   -0.25309
 Alpha virt. eigenvalues --   -0.02646   0.02940   0.03016   0.03058   0.03120
 Alpha virt. eigenvalues --    0.03879   0.03970   0.04351   0.05167   0.05173
 Alpha virt. eigenvalues --    0.05296   0.05305   0.06138   0.06262   0.07032

 Mulliken charges:
               1
     1  C    0.957664
     2  C    0.957576
     3  C    0.595100
     4  C    0.548077
     5  C    0.595231
     6  C    0.547969
     7  C    0.452972
     8  C    0.453108
     9  C   -1.018761
    10  C   -1.112842
    11  C   -1.018845
    12  C   -1.112843
    13  C   -0.900165
    14  C   -0.912436
    15  C   -0.900116
    16  C   -0.912428
    17  C   -0.629552
    18  C   -0.618802
    19  C   -0.629549
    20  C   -0.618747
    21  H    0.302886
    22  H    0.378850
    23  H    0.302907
    24  H    0.378869
    25  H    0.411092
    26  H    0.433118
    27  H    0.411093
    28  H    0.433139
    29  H    0.562041
    30  H    0.550685
    31  H    0.562029
    32  H    0.550683
 Sum of Mulliken charges =  -0.00000

 Dipole moment (field-independent basis, Debye):
    X=              0.0000    Y=             -0.0062    Z=              0.0001  Tot=              0.0062
 Quadrupole moment (field-independent basis, Debye-Ang):
   XX=            -99.4824   YY=            -98.6914   ZZ=           -122.6864
   XY=             -0.0001   XZ=             -0.0834   YZ=             -0.0001

  Exact polarizability:     361.134      -0.000     290.583       1.200      -0.000     114.694
 Approx polarizability:     385.038      -0.000     360.910       2.516      -0.000     152.381

 Normal termination of Gaussian 16 at Wed Jan  8 23:56:26 2020.
