 Gaussian 16, Revision C.01,
 Gaussian 16:  ES64L-G16RevC.01  3-Jul-2019

 ------------------------------------------------
 #p wB97XD/aug-cc-pvtz NoSymm MaxDisk=100GB polar
 ------------------------------------------------

 -----
 polar
 -----
 Symbolic Z-matrix:
 Charge =  0 Multiplicity = 1

                          Input orientation:
 ---------------------------------------------------------------------
 Center     Atomic      Atomic             Coordinates (Angstroms)
 Number     Number       Type             X           Y           Z
 ---------------------------------------------------------------------
      1          6           0        0.726364   -0.381497   -0.000115
      2          6           0       -0.726365   -0.381497    0.000099
      3          6           0        1.419749    0.865280    0.000110
      4          6           0       -1.419749    0.865281   -0.000105
      5          6           0        0.681929    2.092482   -0.000013
      6          6           0       -0.681929    2.092483    0.000002
      7          6           0        1.495975   -1.568661   -0.000038
      8          6           0       -1.495975   -1.568661    0.000034
      9          6           0        2.833350    0.881225    0.000040
     10          6           0       -2.833350    0.881225   -0.000032
     11          6           0        2.880333   -1.528053   -0.000073
     12          6           0       -2.880333   -1.528053    0.000071
     13          6           0        3.558589   -0.295505    0.000034
     14          6           0       -3.558589   -0.295505   -0.000016
     15          1           0        1.233860    3.031545    0.000063
     16          1           0       -1.233860    3.031546   -0.000085
     17          1           0        1.006775   -2.538255   -0.000164
     18          1           0       -1.006775   -2.538255    0.000143
     19          1           0        3.345158    1.842659    0.000114
     20          1           0       -3.345158    1.842659   -0.000092
     21          1           0        3.445136   -2.457593   -0.000089
     22          1           0       -3.445138   -2.457592    0.000095
     23          1           0        4.645757   -0.269995    0.000022
     24          1           0       -4.645757   -0.269995    0.000002
 ---------------------------------------------------------------------

 SCF Done:  E(RwB97XD) =  -539.519734797     A.U. after   13 cycles

 Alpha  occ. eigenvalues --  -10.30904 -10.30864 -10.30553 -10.30550 -10.29672
 Alpha  occ. eigenvalues --  -10.29661 -10.29660 -10.29621 -10.29621 -10.29594
 Alpha  occ. eigenvalues --  -10.29577 -10.29576 -10.29515 -10.29515  -0.98840
 Alpha  occ. eigenvalues --   -0.95347  -0.91242  -0.87980  -0.85899  -0.82563
 Alpha  occ. eigenvalues --   -0.81892  -0.73059  -0.72323  -0.70764  -0.67889
 Alpha  occ. eigenvalues --   -0.62672  -0.62306  -0.58884  -0.56910  -0.56791
 Alpha  occ. eigenvalues --   -0.52673  -0.51977  -0.51457  -0.51086  -0.49791
 Alpha  occ. eigenvalues --   -0.49620  -0.47871  -0.45376  -0.44862  -0.44525
 Alpha  occ. eigenvalues --   -0.41658  -0.40744  -0.40528  -0.37065  -0.34541
 Alpha  occ. eigenvalues --   -0.30059  -0.28829
 Alpha virt. eigenvalues --    0.01253   0.01696   0.03086   0.03156   0.03248
 Alpha virt. eigenvalues --    0.04281   0.04294   0.05375   0.05635   0.05810
 Alpha virt. eigenvalues --    0.07344   0.08173   0.08191   0.08278   0.08766

 Mulliken charges:
               1
     1  C    1.096402
     2  C    1.096404
     3  C    1.003636
     4  C    1.003634
     5  C   -0.753494
     6  C   -0.753493
     7  C   -1.198339
     8  C   -1.198339
     9  C   -1.166918
    10  C   -1.166918
    11  C   -0.612127
    12  C   -0.612127
    13  C   -0.531809
    14  C   -0.531810
    15  H    0.394287
    16  H    0.394289
    17  H    0.293640
    18  H    0.293640
    19  H    0.368327
    20  H    0.368327
    21  H    0.494499
    22  H    0.494499
    23  H    0.611894
    24  H    0.611894
 Sum of Mulliken charges =  -0.00000

 Dipole moment (field-independent basis, Debye):
    X=              0.0000    Y=             -0.0070    Z=              0.0000  Tot=              0.0070
 Quadrupole moment (field-independent basis, Debye-Ang):
   XX=            -70.5368   YY=            -70.8325   ZZ=            -88.0260
   XY=              0.0000   XZ=              0.0001   YZ=              0.0000

  Exact polarizability:     252.798       0.000     176.382       0.000       0.000      86.731
 Approx polarizability:     266.306       0.000     219.571       0.000       0.000     109.788

 Normal termination of Gaussian 16 at Wed Jan  8 16:11:16 2020.
