 Gaussian 16, Revision C.01,
 Gaussian 16:  ES64L-G16RevC.01  3-Jul-2019

 ------------------------------------------------
 #p wB97XD/aug-cc-pvtz NoSymm MaxDisk=100GB polar
 ------------------------------------------------

 -----
 polar
 -----
 Symbolic Z-matrix:
 Charge =  0 Multiplicity = 1

                          Input orientation:
 ---------------------------------------------------------------------
 Center     Atomic      Atomic             Coordinates (Angstroms)
 Number     Number       Type             X           Y           Z
 ---------------------------------------------------------------------
      1          7           0       -0.212863   -0.662696    2.268980
      2          6           0        0.025263    0.078768   -0.269663
      3          6           0        0.361554   -1.157389   -1.113906
      4          6           0       -1.304035    0.690317   -0.731074
      5          6           0        1.151102    1.115651   -0.375890
      6          6           0       -0.107259   -0.332505    1.138802
      7          1           0       -0.428828   -1.909195   -1.037689
      8          1           0        0.462323   -0.862703   -2.163360
      9          1           0        1.302195   -1.609305   -0.787267
     10          1           0       -2.117284   -0.036122   -0.649605
     11          1           0       -1.560604    1.566510   -0.129259
     12          1           0       -1.216466    0.999653   -1.777492
     13          1           0        2.102579    0.694937   -0.039119
     14          1           0        0.928238    1.997682    0.230804
     15          1           0        1.258134    1.428361   -1.419492
 ---------------------------------------------------------------------

 SCF Done:  E(RwB97XD) =  -250.702122418     A.U. after   12 cycles

 Alpha  occ. eigenvalues --  -14.43755 -10.35333 -10.32750 -10.29983 -10.29982
 Alpha  occ. eigenvalues --  -10.29982  -1.00045  -0.94634  -0.81034  -0.81034
 Alpha  occ. eigenvalues --   -0.73125  -0.59995  -0.55544  -0.55544  -0.50251
 Alpha  occ. eigenvalues --   -0.50251  -0.48831  -0.47164  -0.45121  -0.45121
 Alpha  occ. eigenvalues --   -0.44124  -0.40210  -0.40210
 Alpha virt. eigenvalues --    0.02524   0.03811   0.03811   0.04387   0.05914
 Alpha virt. eigenvalues --    0.05914   0.06186   0.06186   0.08066   0.08173
 Alpha virt. eigenvalues --    0.09488   0.09489   0.09539   0.11769   0.12104

 Mulliken charges:
               1
     1  N   -0.892905
     2  C    1.068241
     3  C   -1.094321
     4  C   -1.093965
     5  C   -1.094320
     6  C    0.629695
     7  H    0.261699
     8  H    0.302365
     9  H    0.261900
    10  H    0.261829
    11  H    0.261587
    12  H    0.302318
    13  H    0.261785
    14  H    0.261716
    15  H    0.302375
 Sum of Mulliken charges =  -0.00000

 Dipole moment (field-independent basis, Debye):
    X=              0.3798    Y=              1.1824    Z=             -4.0483  Tot=              4.2345
 Quadrupole moment (field-independent basis, Debye-Ang):
   XX=            -36.8703   YY=            -37.6461   ZZ=            -46.9230
   XY=             -0.2779   XZ=              0.9515   YZ=              2.9622

  Exact polarizability:      61.723       0.339      62.687      -1.176      -3.670      74.173
 Approx polarizability:      64.530       0.500      65.933      -1.713      -5.353      82.691

 Normal termination of Gaussian 16 at Wed Jan  8 12:28:21 2020.
