 Gaussian 16, Revision C.01,
 Gaussian 16:  ES64L-G16RevC.01  3-Jul-2019

 ------------------------------------------------
 #p wB97XD/aug-cc-pvtz NoSymm MaxDisk=100GB polar
 ------------------------------------------------

 -----
 polar
 -----
 Symbolic Z-matrix:
 Charge =  0 Multiplicity = 1

                          Input orientation:
 ---------------------------------------------------------------------
 Center     Atomic      Atomic             Coordinates (Angstroms)
 Number     Number       Type             X           Y           Z
 ---------------------------------------------------------------------
      1          6           0       -1.419040    0.000009    0.018994
      2          6           0        1.419041    0.000002   -0.018996
      3          6           0       -0.697426    1.199787    0.007581
      4          6           0        0.697431    1.199783   -0.007588
      5          6           0       -0.697429   -1.199776    0.007582
      6          6           0        0.697424   -1.199779   -0.007589
      7          6           0       -2.925628   -0.000007   -0.007218
      8          6           0        2.925629   -0.000008    0.007229
      9          1           0       -1.233812    2.147797    0.014638
     10          1           0        1.233822    2.147791   -0.014648
     11          1           0       -1.233819   -2.147785    0.014642
     12          1           0        1.233810   -2.147790   -0.014650
     13          1           0       -3.327577   -0.885099    0.494309
     14          1           0       -3.327574    0.885650    0.493310
     15          1           0       -3.304709   -0.000594   -1.035145
     16          1           0        3.327579   -0.885260   -0.494013
     17          1           0        3.327580    0.885490   -0.493575
     18          1           0        3.304697   -0.000266    1.035161
 ---------------------------------------------------------------------

 SCF Done:  E(RwB97XD) =  -310.881714484     A.U. after   11 cycles

 Alpha  occ. eigenvalues --  -10.29550 -10.29546 -10.28553 -10.28548 -10.28491
 Alpha  occ. eigenvalues --  -10.28487 -10.28028 -10.28028  -0.95753  -0.88452
 Alpha  occ. eigenvalues --   -0.83943  -0.81566  -0.74894  -0.69837  -0.66328
 Alpha  occ. eigenvalues --   -0.57851  -0.55652  -0.53624  -0.50984  -0.49984
 Alpha  occ. eigenvalues --   -0.49872  -0.48245  -0.47756  -0.45289  -0.42951
 Alpha  occ. eigenvalues --   -0.41787  -0.41251  -0.32641  -0.30696
 Alpha virt. eigenvalues --    0.03275   0.03304   0.03782   0.04447   0.04715
 Alpha virt. eigenvalues --    0.05101   0.05396   0.05538   0.06574   0.06650
 Alpha virt. eigenvalues --    0.07282   0.08380   0.08520   0.10313   0.10761

 Mulliken charges:
               1
     1  C    1.256398
     2  C    1.256390
     3  C   -1.097586
     4  C   -1.097558
     5  C   -1.097846
     6  C   -1.097878
     7  C   -0.896868
     8  C   -0.896861
     9  H    0.477529
    10  H    0.477560
    11  H    0.477468
    12  H    0.477434
    13  H    0.281197
    14  H    0.281108
    15  H    0.318603
    16  H    0.281172
    17  H    0.281133
    18  H    0.318604
 Sum of Mulliken charges =  -0.00000

 Dipole moment (field-independent basis, Debye):
    X=              0.0000    Y=             -0.0001    Z=              0.0000  Tot=              0.0001
 Quadrupole moment (field-independent basis, Debye-Ang):
   XX=            -44.1005   YY=            -45.4079   ZZ=            -52.1336
   XY=              0.0001   XZ=              0.1318   YZ=             -0.0000

  Exact polarizability:     126.682       0.000      98.769       0.399      -0.000      63.197
 Approx polarizability:     124.761       0.000     117.777       0.198       0.000      75.056

 1\1\GINC-G2-NODE38\SP\RwB97XD\Aug-CC-pVTZ\C8H10\LIUCHW\08-Jan-2020\0\\
 #p wB97XD/aug-cc-pvtz NoSymm MaxDisk=100GB polar\\polar\\0,1\C,0,-1.41
 904,0.000009,0.018994\C,0,1.419041,0.000002,-0.018996\C,0,-0.697426,1.
 199787,0.007581\C,0,0.697431,1.199783,-0.007588\C,0,-0.697429,-1.19977
 6,0.007582\C,0,0.697424,-1.199779,-0.007589\C,0,-2.925628,-0.000007,-0
 .007218\C,0,2.925629,-0.000008,0.007229\H,0,-1.233812,2.147797,0.01463
 8\H,0,1.233822,2.147791,-0.014648\H,0,-1.233819,-2.147785,0.014642\H,0
 ,1.23381,-2.14779,-0.01465\H,0,-3.327577,-0.885099,0.494309\H,0,-3.327

 Normal termination of Gaussian 16 at Wed Jan  8 12:55:09 2020.
