 Gaussian 16, Revision C.01,
 Gaussian 16:  ES64L-G16RevC.01  3-Jul-2019

 ------------------------------------------------
 #p wB97XD/aug-cc-pvtz NoSymm MaxDisk=100GB polar
 ------------------------------------------------

 -----
 polar
 -----
 Symbolic Z-matrix:
 Charge =  0 Multiplicity = 1

                          Input orientation:
 ---------------------------------------------------------------------
 Center     Atomic      Atomic             Coordinates (Angstroms)
 Number     Number       Type             X           Y           Z
 ---------------------------------------------------------------------
      1          6           0       -0.710877    0.000000   -0.000182
      2          6           0        0.710877    0.000000    0.000206
      3          6           0       -1.426497   -1.236667   -0.000019
      4          6           0        1.426497   -1.236667    0.000013
      5          6           0       -1.426497    1.236666   -0.000038
      6          6           0        1.426498    1.236666   -0.000003
      7          6           0       -0.683525   -2.462193   -0.000050
      8          6           0        0.683525   -2.462194    0.000082
      9          6           0       -0.683524    2.462194   -0.000079
     10          6           0        0.683525    2.462194    0.000043
     11          6           0       -2.830467   -1.211592   -0.000161
     12          6           0        2.830466   -1.211592    0.000196
     13          6           0       -2.830467    1.211593   -0.000177
     14          6           0        2.830467    1.211593    0.000178
     15          6           0       -3.520936    0.000000   -0.000187
     16          6           0        3.520937    0.000000    0.000178
     17          1           0       -1.231272   -3.403935   -0.000026
     18          1           0        1.231273   -3.403935    0.000070
     19          1           0       -1.231274    3.403934   -0.000072
     20          1           0        1.231274    3.403935    0.000021
     21          1           0       -3.378567   -2.152946   -0.000158
     22          1           0        3.378566   -2.152946    0.000185
     23          1           0       -3.378567    2.152946   -0.000186
     24          1           0        3.378568    2.152945    0.000149
     25          1           0       -4.608889    0.000001   -0.000264
     26          1           0        4.608889   -0.000001    0.000283
 ---------------------------------------------------------------------

 SCF Done:  E(RwB97XD) =  -615.746967333     A.U. after   12 cycles

 Alpha  occ. eigenvalues --  -10.30673 -10.30670 -10.30660 -10.30657 -10.30577
 Alpha  occ. eigenvalues --  -10.30533 -10.29892 -10.29892 -10.29816 -10.29815
 Alpha  occ. eigenvalues --  -10.29733 -10.29733 -10.29674 -10.29674 -10.29642
 Alpha  occ. eigenvalues --  -10.29642  -0.99907  -0.95580  -0.93572  -0.90035
 Alpha  occ. eigenvalues --   -0.87026  -0.85018  -0.83223  -0.81034  -0.72606
 Alpha  occ. eigenvalues --   -0.72598  -0.72197  -0.70569  -0.63917  -0.61859
 Alpha  occ. eigenvalues --   -0.61006  -0.59630  -0.58430  -0.56106  -0.52931
 Alpha  occ. eigenvalues --   -0.52319  -0.52217  -0.50904  -0.50374  -0.48805
 Alpha  occ. eigenvalues --   -0.48260  -0.47655  -0.45674  -0.45196  -0.45018
 Alpha  occ. eigenvalues --   -0.43502  -0.41164  -0.40259  -0.38601  -0.35820
 Alpha  occ. eigenvalues --   -0.33819  -0.30549  -0.26828
 Alpha virt. eigenvalues --   -0.00872   0.02470   0.03100   0.03133   0.03262
 Alpha virt. eigenvalues --    0.04158   0.04200   0.04744   0.05584   0.05670
 Alpha virt. eigenvalues --    0.06334   0.07262   0.07920   0.07932   0.07943

 Mulliken charges:
               1
     1  C    0.502778
     2  C    0.502776
     3  C    0.716084
     4  C    0.716083
     5  C    0.716079
     6  C    0.716080
     7  C   -0.722396
     8  C   -0.722396
     9  C   -0.722394
    10  C   -0.722395
    11  C   -1.089151
    12  C   -1.089153
    13  C   -1.089151
    14  C   -1.089154
    15  C   -0.292923
    16  C   -0.292924
    17  H    0.423019
    18  H    0.423022
    19  H    0.423018
    20  H    0.423020
    21  H    0.355654
    22  H    0.355657
    23  H    0.355656
    24  H    0.355658
    25  H    0.423727
    26  H    0.423725
 Sum of Mulliken charges =  -0.00000

 Dipole moment (field-independent basis, Debye):
    X=              0.0000    Y=              0.0000    Z=             -0.0000  Tot=              0.0000
 Quadrupole moment (field-independent basis, Debye-Ang):
   XX=            -79.7269   YY=            -79.9399   ZZ=            -98.9085
   XY=             -0.0000   XZ=              0.0010   YZ=             -0.0001

  Exact polarizability:     291.809      -0.000     210.949       0.012      -0.001      94.135
 Approx polarizability:     341.412      -0.000     259.359       0.016      -0.001     122.101

 Normal termination of Gaussian 16 at Wed Jan  8 17:35:03 2020.
