 Gaussian 16, Revision C.01,
 Gaussian 16:  ES64L-G16RevC.01  3-Jul-2019

 ------------------------------------------------
 #p wB97XD/aug-cc-pvtz NoSymm MaxDisk=100GB polar
 ------------------------------------------------

 -----
 polar
 -----
 Symbolic Z-matrix:
 Charge =  0 Multiplicity = 1

                          Input orientation:
 ---------------------------------------------------------------------
 Center     Atomic      Atomic             Coordinates (Angstroms)
 Number     Number       Type             X           Y           Z
 ---------------------------------------------------------------------
      1          6           0        0.000004    0.725787    0.021541
      2          6           0       -0.000002   -0.725797   -0.021517
      3          6           0       -2.448934    0.723101    0.017566
      4          6           0       -2.448947   -0.723089   -0.017505
      5          6           0        2.448939    0.723093    0.017463
      6          6           0        2.448948   -0.723110   -0.017467
      7          6           0        1.231691    1.407527   -0.010043
      8          6           0        1.231688   -1.407525    0.010090
      9          6           0       -1.231680    1.407519   -0.010096
     10          6           0       -1.231695   -1.407527    0.010073
     11          6           0       -3.702006    1.408800   -0.007701
     12          6           0       -3.702015   -1.408799    0.007661
     13          6           0        3.702006    1.408817   -0.007409
     14          6           0        3.702016   -1.408812    0.007419
     15          6           0       -4.885081    0.712538    0.003588
     16          6           0       -4.885088   -0.712534   -0.003608
     17          6           0        4.885073    0.712535    0.003545
     18          6           0        4.885082   -0.712531   -0.003596
     19          1           0        1.233088    2.498456    0.007546
     20          1           0        1.233071   -2.498460   -0.007490
     21          1           0       -1.233071    2.498449    0.007522
     22          1           0       -1.233076   -2.498456   -0.007471
     23          1           0       -3.702247    2.497994    0.000766
     24          1           0       -3.702236   -2.497991   -0.000738
     25          1           0        3.702247    2.498011    0.000938
     26          1           0        3.702241   -2.498009   -0.000942
     27          1           0       -5.831438    1.248496   -0.008326
     28          1           0       -5.831455   -1.248477    0.008220
     29          1           0        5.831431    1.248506   -0.007948
     30          1           0        5.831454   -1.248474    0.007901
 ---------------------------------------------------------------------

 SCF Done:  E(RwB97XD) =  -693.133414833     A.U. after   13 cycles

 Alpha  occ. eigenvalues --  -10.30780 -10.30740 -10.30718 -10.30718 -10.30676
 Alpha  occ. eigenvalues --  -10.30675 -10.29834 -10.29833 -10.29830 -10.29828
 Alpha  occ. eigenvalues --  -10.29772 -10.29772 -10.29764 -10.29764 -10.29696
 Alpha  occ. eigenvalues --  -10.29696 -10.29659 -10.29659  -0.99224  -0.97119
 Alpha  occ. eigenvalues --   -0.93759  -0.89393  -0.89198  -0.87169  -0.84102
 Alpha  occ. eigenvalues --   -0.83775  -0.79263  -0.75886  -0.71687  -0.70325
 Alpha  occ. eigenvalues --   -0.69844  -0.68751  -0.65432  -0.61923  -0.59596
 Alpha  occ. eigenvalues --   -0.58662  -0.58535  -0.54467  -0.54234  -0.54046
 Alpha  occ. eigenvalues --   -0.52961  -0.51024  -0.50259  -0.50203  -0.49951
 Alpha  occ. eigenvalues --   -0.49432  -0.48505  -0.47568  -0.44977  -0.44917
 Alpha  occ. eigenvalues --   -0.43220  -0.42194  -0.41729  -0.40925  -0.39488
 Alpha  occ. eigenvalues --   -0.37356  -0.36415  -0.31510  -0.31255  -0.24923
 Alpha virt. eigenvalues --   -0.03196   0.03046   0.03093   0.03192   0.03248
 Alpha virt. eigenvalues --    0.03740   0.03956   0.04001   0.05085   0.05124
 Alpha virt. eigenvalues --    0.06646   0.06652   0.06857   0.07204   0.08096

 Mulliken charges:
               1
     1  C    1.164201
     2  C    1.164174
     3  C    1.248137
     4  C    1.248157
     5  C    1.249769
     6  C    1.249735
     7  C   -1.260226
     8  C   -1.260328
     9  C   -1.259078
    10  C   -1.259038
    11  C   -1.024299
    12  C   -1.024240
    13  C   -1.024453
    14  C   -1.024517
    15  C   -0.485704
    16  C   -0.485725
    17  C   -0.486507
    18  C   -0.486533
    19  H    0.023182
    20  H    0.023248
    21  H    0.023752
    22  H    0.023658
    23  H    0.373676
    24  H    0.373688
    25  H    0.373947
    26  H    0.373917
    27  H    0.541950
    28  H    0.541943
    29  H    0.541754
    30  H    0.541760
 Sum of Mulliken charges =  -0.00000

 Dipole moment (field-independent basis, Debye):
    X=              0.0001    Y=              0.0000    Z=              0.0000  Tot=              0.0001
 Quadrupole moment (field-independent basis, Debye-Ang):
   XX=            -89.9222   YY=            -90.6328   ZZ=           -112.1893
   XY=              0.0001   XZ=              0.0001   YZ=              0.0608

  Exact polarizability:     435.111       0.000     214.260      -0.001      -0.538     108.060
 Approx polarizability:     421.284       0.000     283.039      -0.002      -1.492     139.600

 Normal termination of Gaussian 16 at Wed Jan  8 13:26:00 2020.
