 Gaussian 16, Revision C.01,
 Gaussian 16:  ES64L-G16RevC.01  3-Jul-2019

 ------------------------------------------------
 #p wB97XD/aug-cc-pvtz NoSymm MaxDisk=100GB polar
 ------------------------------------------------

 -----
 polar
 -----
 Symbolic Z-matrix:
 Charge =  0 Multiplicity = 1

                          Input orientation:
 ---------------------------------------------------------------------
 Center     Atomic      Atomic             Coordinates (Angstroms)
 Number     Number       Type             X           Y           Z
 ---------------------------------------------------------------------
      1          8           0        0.176391    2.697070   -0.008558
      2          6           0        0.208926    1.472584    0.004224
      3          7           0        1.465943    0.790667   -0.005200
      4          6           0        1.669602   -0.566792    0.001818
      5          7           0        0.704060   -1.453159    0.011134
      6          6           0       -0.524750   -0.856710   -0.003690
      7          6           0       -0.853570    0.497528    0.015093
      8          7           0       -2.217877    0.687411    0.013255
      9          6           0       -2.708138   -0.542329    0.000353
     10          7           0       -1.730244   -1.508262   -0.007459
     11          7           0        2.989727   -0.982298   -0.079889
     12          1           0        2.263845    1.414028   -0.104657
     13          1           0       -3.760875   -0.793790   -0.003555
     14          1           0       -1.852842   -2.514140   -0.021182
     15          1           0        3.062859   -1.983974    0.067878
     16          1           0        3.642202   -0.464888    0.500313
 ---------------------------------------------------------------------

 SCF Done:  E(RwB97XD) =  -542.576537538     A.U. after   14 cycles

 Alpha  occ. eigenvalues --  -19.22213 -14.50956 -14.50296 -14.48187 -14.44861
 Alpha  occ. eigenvalues --  -14.43577 -10.43265 -10.40572 -10.37288 -10.36066
 Alpha  occ. eigenvalues --  -10.31454  -1.15855  -1.13387  -1.11329  -1.02153
 Alpha  occ. eigenvalues --   -1.01603  -0.98465  -0.86527  -0.77683  -0.75792
 Alpha  occ. eigenvalues --   -0.72628  -0.69555  -0.64374  -0.63461  -0.60676
 Alpha  occ. eigenvalues --   -0.58316  -0.57558  -0.55210  -0.52657  -0.52004
 Alpha  occ. eigenvalues --   -0.51002  -0.48520  -0.41744  -0.40761  -0.38035
 Alpha  occ. eigenvalues --   -0.37479  -0.36400  -0.35160  -0.29359
 Alpha virt. eigenvalues --    0.01711   0.02479   0.03861   0.04374   0.04740
 Alpha virt. eigenvalues --    0.04818   0.05770   0.06913   0.08004   0.08536
 Alpha virt. eigenvalues --    0.08698   0.09568   0.09685   0.10034   0.10205

 Mulliken charges:
               1
     1  O   -0.849966
     2  C    0.287842
     3  N    0.187361
     4  C    0.170217
     5  N   -0.435911
     6  C    0.682933
     7  C    0.958625
     8  N   -0.782404
     9  C   -0.573617
    10  N    0.020335
    11  N   -0.351657
    12  H    0.034093
    13  H    0.533282
    14  H   -0.014326
    15  H    0.076510
    16  H    0.056683
 Sum of Mulliken charges =  -0.00000

 Dipole moment (field-independent basis, Debye):
    X=              2.9404    Y=             -5.9043    Z=              0.8485  Tot=              6.6503
 Quadrupole moment (field-independent basis, Debye-Ang):
   XX=            -44.4401   YY=            -69.5018   ZZ=            -63.8123
   XY=             10.0622   XZ=              3.8878   YZ=             -0.7560

  Exact polarizability:     135.786       3.292     112.654      -0.215       0.059      56.318
 Approx polarizability:     137.474       5.176     138.255      -0.289       0.347      68.832

 1\1\GINC-GENOME\SP\RwB97XD\Aug-CC-pVTZ\C5H5N5O1\LIUCHW\08-Jan-2020\0\\
 #p wB97XD/aug-cc-pvtz NoSymm MaxDisk=100GB polar\\polar\\0,1\O,0,0.176
 391,2.69707,-0.008558\C,0,0.208926,1.472584,0.004224\N,0,1.465943,0.79
 0667,-0.0052\C,0,1.669602,-0.566792,0.001818\N,0,0.70406,-1.453159,0.0
 11134\C,0,-0.52475,-0.85671,-0.00369\C,0,-0.85357,0.497528,0.015093\N,
 0,-2.217877,0.687411,0.013255\C,0,-2.708138,-0.542329,0.000353\N,0,-1.
 730244,-1.508262,-0.007459\N,0,2.989727,-0.982298,-0.079889\H,0,2.2638
 45,1.414028,-0.104657\H,0,-3.760875,-0.79379,-0.003555\H,0,-1.852842,-

 Normal termination of Gaussian 16 at Wed Jan  8 13:53:17 2020.
