 Gaussian 16, Revision C.01,
 Gaussian 16:  ES64L-G16RevC.01  3-Jul-2019

 ------------------------------------------------
 #p wB97XD/aug-cc-pvtz NoSymm MaxDisk=100GB polar
 ------------------------------------------------

 -----
 polar
 -----
 Symbolic Z-matrix:
 Charge =  0 Multiplicity = 1

                          Input orientation:
 ---------------------------------------------------------------------
 Center     Atomic      Atomic             Coordinates (Angstroms)
 Number     Number       Type             X           Y           Z
 ---------------------------------------------------------------------
      1          8           0        0.000015    0.269359   -0.000002
      2          6           0        1.178413   -0.525136   -0.000005
      3          6           0       -1.178463   -0.525178   -0.000006
      4          6           0        2.366440    0.413238    0.000009
      5          6           0       -2.366428    0.413252    0.000004
      6          1           0        1.194563   -1.177990    0.887140
      7          1           0        1.194569   -1.177970   -0.887165
      8          1           0       -1.194552   -1.177974   -0.887171
      9          1           0       -1.194547   -1.177989    0.887148
     10          1           0        3.303173   -0.151584    0.000004
     11          1           0        2.340726    1.050768   -0.886206
     12          1           0        2.340721    1.050747    0.886238
     13          1           0       -3.303222   -0.151473   -0.000003
     14          1           0       -2.340664    1.050757    0.886233
     15          1           0       -2.340662    1.050778   -0.886210
 ---------------------------------------------------------------------

 SCF Done:  E(RwB97XD) =  -233.677815693     A.U. after   11 cycles

 Alpha  occ. eigenvalues --  -19.25181 -10.32862 -10.32861 -10.27206 -10.27205
 Alpha  occ. eigenvalues --   -1.13158  -0.87431  -0.82279  -0.71060  -0.69752
 Alpha  occ. eigenvalues --   -0.58176  -0.57732  -0.52789  -0.51640  -0.47932
 Alpha  occ. eigenvalues --   -0.45672  -0.45498  -0.43309  -0.42302  -0.40420
 Alpha  occ. eigenvalues --   -0.34103
 Alpha virt. eigenvalues --    0.03322   0.03830   0.04275   0.04335   0.05687
 Alpha virt. eigenvalues --    0.05786   0.05996   0.06763   0.07950   0.08594
 Alpha virt. eigenvalues --    0.10231   0.11376   0.12002   0.12390   0.13027

 Mulliken charges:
               1
     1  O   -0.411225
     2  C   -0.214832
     3  C   -0.214850
     4  C   -0.935821
     5  C   -0.935799
     6  H    0.286787
     7  H    0.286786
     8  H    0.286773
     9  H    0.286774
    10  H    0.297574
    11  H    0.242567
    12  H    0.242566
    13  H    0.297576
    14  H    0.242561
    15  H    0.242562
 Sum of Mulliken charges =  -0.00000

 Dipole moment (field-independent basis, Debye):
    X=             -0.0004    Y=             -1.1566    Z=             -0.0000  Tot=              1.1566
 Quadrupole moment (field-independent basis, Debye-Ang):
   XX=            -30.7534   YY=            -33.7049   ZZ=            -32.8772
   XY=              0.0001   XZ=              0.0000   YZ=             -0.0000

  Exact polarizability:      69.041       0.000      55.542       0.000       0.000      51.715
 Approx polarizability:      60.371       0.000      59.010       0.000       0.000      56.496

 Normal termination of Gaussian 16 at Wed Jan  8 07:44:38 2020.
