 Gaussian 16, Revision C.01,
 Gaussian 16:  ES64L-G16RevC.01  3-Jul-2019

 ------------------------------------------------
 #p wB97XD/aug-cc-pvtz NoSymm MaxDisk=100GB polar
 ------------------------------------------------

 -----
 polar
 -----
 Symbolic Z-matrix:
 Charge =  0 Multiplicity = 1

                          Input orientation:
 ---------------------------------------------------------------------
 Center     Atomic      Atomic             Coordinates (Angstroms)
 Number     Number       Type             X           Y           Z
 ---------------------------------------------------------------------
      1          8           0        1.240836   -0.277528   -0.000010
      2          6           0       -1.170210   -0.150472   -0.000018
      3          6           0        0.226164    0.406252    0.000035
      4          1           0       -1.713317    0.206928   -0.881206
      5          1           0       -1.132982   -1.240321   -0.000661
      6          1           0       -1.712836    0.205824    0.881922
      7          1           0        0.296720    1.513112   -0.000078
 ---------------------------------------------------------------------

 SCF Done:  E(RwB97XD) =  -153.838824887     A.U. after   11 cycles

 Alpha  occ. eigenvalues --  -19.25737 -10.38751 -10.30091  -1.14736  -0.85906
 Alpha  occ. eigenvalues --   -0.68122  -0.57298  -0.53739  -0.52777  -0.48696
 Alpha  occ. eigenvalues --   -0.45188  -0.34838
 Alpha virt. eigenvalues --    0.02901   0.03541   0.04160   0.04568   0.05642
 Alpha virt. eigenvalues --    0.09115   0.10090   0.10905   0.12172   0.12484
 Alpha virt. eigenvalues --    0.12602   0.12967   0.17333   0.17471   0.18369

 Mulliken charges:
               1
     1  O   -0.630954
     2  C   -0.627518
     3  C    0.094228
     4  H    0.261521
     5  H    0.254719
     6  H    0.261528
     7  H    0.386475
 Sum of Mulliken charges =  -0.00000

 Dipole moment (field-independent basis, Debye):
    X=             -2.7323    Y=              1.2322    Z=              0.0001  Tot=              2.9973
 Quadrupole moment (field-independent basis, Debye-Ang):
   XX=            -21.0300   YY=            -17.8790   ZZ=            -17.8861
   XY=              1.0583   XZ=             -0.0001   YZ=             -0.0001

  Exact polarizability:      36.276      -1.671      30.986      -0.001      -0.000      24.127
 Approx polarizability:      36.558      -4.351      32.034      -0.001       0.000      25.866

 Normal termination of Gaussian 16 at Wed Jan  8 13:00:50 2020.
