 Gaussian 16, Revision C.01,
 Gaussian 16:  ES64L-G16RevC.01  3-Jul-2019

 ------------------------------------------------
 #p wB97XD/aug-cc-pvtz NoSymm MaxDisk=100GB polar
 ------------------------------------------------

 -----
 polar
 -----
 Symbolic Z-matrix:
 Charge =  0 Multiplicity = 1

                          Input orientation:
 ---------------------------------------------------------------------
 Center     Atomic      Atomic             Coordinates (Angstroms)
 Number     Number       Type             X           Y           Z
 ---------------------------------------------------------------------
      1          8           0       -2.233469   -1.167534    0.000134
      2          7           0        0.026513   -0.908471   -0.000027
      3          7           0        2.354469   -0.847516   -0.000532
      4          7           0       -1.397345    1.002881    0.000218
      5          6           0        1.170606   -0.176869   -0.000131
      6          6           0        1.038597    1.198683   -0.000089
      7          6           0       -1.297883   -0.375109    0.000154
      8          6           0       -0.275738    1.701857    0.000051
      9          1           0        0.050626   -1.924747   -0.000220
     10          1           0        1.902471    1.851852   -0.000162
     11          1           0       -0.407978    2.785056    0.000212
     12          1           0        3.223517   -0.336637    0.000570
     13          1           0        2.400170   -1.854879    0.001006
 ---------------------------------------------------------------------

 SCF Done:  E(RwB97XD) =  -394.939680773     A.U. after   14 cycles

 Alpha  occ. eigenvalues --  -19.20809 -14.50465 -14.50001 -14.42219 -10.42102
 Alpha  occ. eigenvalues --  -10.41188 -10.34859 -10.29697  -1.15207  -1.10222
 Alpha  occ. eigenvalues --   -1.03643  -0.99948  -0.88529  -0.77480  -0.75708
 Alpha  occ. eigenvalues --   -0.68726  -0.65418  -0.62566  -0.59822  -0.56142
 Alpha  occ. eigenvalues --   -0.54942  -0.52244  -0.48480  -0.48422  -0.41905
 Alpha  occ. eigenvalues --   -0.38347  -0.35861  -0.34141  -0.30330
 Alpha virt. eigenvalues --    0.00919   0.02034   0.02734   0.03799   0.05138
 Alpha virt. eigenvalues --    0.06387   0.06636   0.07866   0.07928   0.09304
 Alpha virt. eigenvalues --    0.10143   0.10321   0.10396   0.11478   0.11526

 Mulliken charges:
               1
     1  O   -0.740168
     2  N    0.111237
     3  N   -0.453300
     4  N   -0.389578
     5  C    0.788720
     6  C   -0.367522
     7  C    0.138768
     8  C   -0.136160
     9  H    0.062229
    10  H    0.275941
    11  H    0.633111
    12  H    0.020495
    13  H    0.056228
 Sum of Mulliken charges =  -0.00000

 Dipole moment (field-independent basis, Debye):
    X=              8.4194    Y=             -0.8159    Z=              0.0030  Tot=              8.4589
 Quadrupole moment (field-independent basis, Debye-Ang):
   XX=            -49.0224   YY=            -39.5303   ZZ=            -48.3147
   XY=             -5.5126   XZ=              0.0121   YZ=             -0.0048

  Exact polarizability:     101.419       0.268      86.535      -0.006       0.002      45.525
 Approx polarizability:     108.424       3.333      97.266      -0.007       0.002      53.100

 1\1\GINC-NODE59\SP\RwB97XD\Aug-CC-pVTZ\C4H5N3O1\LIUCHW\08-Jan-2020\0\\
 #p wB97XD/aug-cc-pvtz NoSymm MaxDisk=100GB polar\\polar\\0,1\O,0,-2.23
 3469,-1.167534,0.000134\N,0,0.026513,-0.908471,-0.000027\N,0,2.354469,
 -0.847516,-0.000532\N,0,-1.397345,1.002881,0.000218\C,0,1.170606,-0.17
 6869,-0.000131\C,0,1.038597,1.198683,-0.000089\C,0,-1.297883,-0.375109
 ,0.000154\C,0,-0.275738,1.701857,0.000051\H,0,0.050626,-1.924747,-0.00
 022\H,0,1.902471,1.851852,-0.000162\H,0,-0.407978,2.785056,0.000212\H,
 0,3.223517,-0.336637,0.00057\H,0,2.40017,-1.854879,0.001006\\Version=E

 Normal termination of Gaussian 16 at Wed Jan  8 13:18:05 2020.
