 Gaussian 16, Revision C.01,
 Gaussian 16:  ES64L-G16RevC.01  3-Jul-2019

 ------------------------------------------------
 #p wB97XD/aug-cc-pvtz NoSymm MaxDisk=100GB polar
 ------------------------------------------------

 -----
 polar
 -----
 Symbolic Z-matrix:
 Charge = -1 Multiplicity = 1

                          Input orientation:
 ---------------------------------------------------------------------
 Center     Atomic      Atomic             Coordinates (Angstroms)
 Number     Number       Type             X           Y           Z
 ---------------------------------------------------------------------
      1          6           0        0.286470   -1.206439   -0.000005
      2          6           0       -1.105035   -1.199480    0.000004
      3          6           0       -1.831530    0.000000   -0.000002
      4          6           0       -1.105035    1.199480    0.000005
      5          6           0        0.286470    1.206440   -0.000006
      6          6           0        1.082259    0.000000   -0.000015
      7          8           0        2.357142    0.000000    0.000010
      8          1           0        0.832239   -2.151054    0.000004
      9          1           0       -1.641282   -2.152645    0.000004
     10          1           0       -2.920645   -0.000001    0.000013
     11          1           0       -1.641283    2.152645    0.000006
     12          1           0        0.832237    2.151055    0.000002
 ---------------------------------------------------------------------

 SCF Done:  E(RwB97XD) =  -306.903086957     A.U. after   14 cycles

 Alpha  occ. eigenvalues --  -18.99438 -10.15430 -10.12709 -10.12707 -10.11031
 Alpha  occ. eigenvalues --  -10.10014 -10.10014  -0.88395  -0.76232  -0.66655
 Alpha  occ. eigenvalues --   -0.63351  -0.51891  -0.49816  -0.42259  -0.36488
 Alpha  occ. eigenvalues --   -0.36400  -0.32846  -0.30601  -0.29387  -0.26199
 Alpha  occ. eigenvalues --   -0.25179  -0.22218  -0.16047  -0.12067  -0.08035
 Alpha virt. eigenvalues --    0.12090   0.12290   0.13073   0.13923   0.14198
 Alpha virt. eigenvalues --    0.19765   0.21462   0.21498   0.21666   0.21829
 Alpha virt. eigenvalues --    0.22582   0.22631   0.22727   0.23092   0.23803

 Mulliken charges:
               1
     1  C   -0.910225
     2  C   -0.601681
     3  C   -0.721452
     4  C   -0.601682
     5  C   -0.910228
     6  C    0.917383
     7  O   -1.250650
     8  H    0.715228
     9  H    0.549038
    10  H    0.550002
    11  H    0.549038
    12  H    0.715228
 Sum of Mulliken charges =  -1.00000

 Dipole moment (field-independent basis, Debye):
    X=             -4.6667    Y=             -0.0000    Z=              0.0000  Tot=              4.6667
 Quadrupole moment (field-independent basis, Debye-Ang):
   XX=            -65.5068   YY=            -45.7590   ZZ=            -48.2324
   XY=              0.0000   XZ=             -0.0001   YZ=              0.0000

  Exact polarizability:     119.012      -0.000      98.336      -0.000      -0.000      59.955
 Approx polarizability:     128.791      -0.000     105.012      -0.000      -0.000      65.473

 Normal termination of Gaussian 16 at Wed Jan  8 13:21:28 2020.
