 Gaussian 16, Revision C.01,
 Gaussian 16:  ES64L-G16RevC.01  3-Jul-2019

 ------------------------------------------------
 #p wB97XD/aug-cc-pvtz NoSymm MaxDisk=100GB polar
 ------------------------------------------------

 -----
 polar
 -----
 Symbolic Z-matrix:
 Charge =  0 Multiplicity = 1

                          Input orientation:
 ---------------------------------------------------------------------
 Center     Atomic      Atomic             Coordinates (Angstroms)
 Number     Number       Type             X           Y           Z
 ---------------------------------------------------------------------
      1          7           0        2.339985    0.000040   -0.088294
      2          6           0        0.935448    0.000003   -0.001347
      3          6           0        0.222229    1.207233   -0.009655
      4          6           0       -1.171832    1.203903    0.005393
      5          6           0       -1.879076    0.000022    0.007638
      6          6           0       -1.171864   -1.203897    0.005427
      7          6           0        0.222172   -1.207236   -0.009646
      8          1           0        2.762772    0.829673    0.316444
      9          1           0        2.762743   -0.830166    0.315291
     10          1           0        0.765754    2.150797   -0.016234
     11          1           0       -1.706787    2.150912    0.005960
     12          1           0       -2.965638   -0.000020    0.019793
     13          1           0       -1.706910   -2.150859    0.005904
     14          1           0        0.765715   -2.150781   -0.015961
 ---------------------------------------------------------------------

 SCF Done:  E(RwB97XD) =  -287.607724800     A.U. after   13 cycles

 Alpha  occ. eigenvalues --  -14.44340 -10.33175 -10.29044 -10.29041 -10.28493
 Alpha  occ. eigenvalues --  -10.28492 -10.28020  -1.02032  -0.93728  -0.84306
 Alpha  occ. eigenvalues --   -0.82315  -0.70532  -0.68932  -0.61282  -0.59263
 Alpha  occ. eigenvalues --   -0.56357  -0.51688  -0.51184  -0.50160  -0.47463
 Alpha  occ. eigenvalues --   -0.43798  -0.42166  -0.39997  -0.32897  -0.28659
 Alpha virt. eigenvalues --    0.02804   0.03669   0.03707   0.05003   0.05056
 Alpha virt. eigenvalues --    0.05454   0.06485   0.06888   0.07851   0.09608
 Alpha virt. eigenvalues --    0.09891   0.10674   0.11045   0.11334   0.11496

 Mulliken charges:
               1
     1  N   -0.636822
     2  C    1.404158
     3  C   -1.113756
     4  C   -0.419636
     5  C   -0.589499
     6  C   -0.419635
     7  C   -1.113541
     8  H    0.046975
     9  H    0.047032
    10  H    0.598160
    11  H    0.530898
    12  H    0.536718
    13  H    0.530975
    14  H    0.597973
 Sum of Mulliken charges =  -0.00000

 Dipole moment (field-independent basis, Debye):
    X=              1.0250    Y=             -0.0007    Z=              1.0803  Tot=              1.4891
 Quadrupole moment (field-independent basis, Debye-Ang):
   XX=            -35.7660   YY=            -36.5134   ZZ=            -46.6107
   XY=             -0.0020   XZ=              3.5057   YZ=              0.0014

  Exact polarizability:     104.079       0.001      87.547      -0.180       0.000      51.071
 Approx polarizability:     112.016       0.001     101.723      -0.318       0.001      58.907

 Normal termination of Gaussian 16 at Wed Jan  8 13:42:25 2020.
