 Gaussian 16, Revision C.01,
 Gaussian 16:  ES64L-G16RevC.01  3-Jul-2019

 ------------------------------------------------
 #p wB97XD/aug-cc-pvtz NoSymm MaxDisk=100GB polar
 ------------------------------------------------

 -----
 polar
 -----
 Symbolic Z-matrix:
 Charge =  0 Multiplicity = 1

                          Input orientation:
 ---------------------------------------------------------------------
 Center     Atomic      Atomic             Coordinates (Angstroms)
 Number     Number       Type             X           Y           Z
 ---------------------------------------------------------------------
      1          9           0       -0.002780   -0.348279    1.283871
      2          9           0       -0.975885    0.875891   -0.223965
      3          9           0       -0.191982   -1.079860   -0.752797
      4          9           0        1.170646    0.552247   -0.307111
      5          6           0        0.000003    0.000001    0.000005
 ---------------------------------------------------------------------

 SCF Done:  E(RwB97XD) =  -437.548877575     A.U. after    9 cycles

 Alpha  occ. eigenvalues --  -24.88189 -24.88188 -24.88188 -24.88187 -10.63883
 Alpha  occ. eigenvalues --   -1.48823  -1.37492  -1.37491  -1.37491  -0.84149
 Alpha  occ. eigenvalues --   -0.74266  -0.74266  -0.74266  -0.60797  -0.60797
 Alpha  occ. eigenvalues --   -0.57985  -0.57985  -0.57984  -0.53824  -0.53824
 Alpha  occ. eigenvalues --   -0.53824
 Alpha virt. eigenvalues --    0.06626   0.08068   0.08068   0.08068   0.18578
 Alpha virt. eigenvalues --    0.18578   0.18579   0.18632   0.18632   0.24454
 Alpha virt. eigenvalues --    0.25224   0.25225   0.25225   0.25649   0.27713

 Mulliken charges:
               1
     1  F   -0.284450
     2  F   -0.284452
     3  F   -0.284461
     4  F   -0.284467
     5  C    1.137831
 Sum of Mulliken charges =  -0.00000

 Dipole moment (field-independent basis, Debye):
    X=              0.0000    Y=             -0.0001    Z=              0.0001  Tot=              0.0001
 Quadrupole moment (field-independent basis, Debye-Ang):
   XX=            -25.4449   YY=            -25.4449   ZZ=            -25.4447
   XY=             -0.0000   XZ=              0.0000   YZ=             -0.0000

  Exact polarizability:      19.494       0.000      19.495       0.000       0.001      19.494
 Approx polarizability:      20.210      -0.000      20.210      -0.000      -0.000      20.210

 Normal termination of Gaussian 16 at Wed Jan  8 07:47:36 2020.
