 Gaussian 16, Revision C.01,
 Gaussian 16:  ES64L-G16RevC.01  3-Jul-2019

 ------------------------------------------------
 #p wB97XD/aug-cc-pvtz NoSymm MaxDisk=100GB polar
 ------------------------------------------------

 -----
 polar
 -----
 Symbolic Z-matrix:
 Charge =  0 Multiplicity = 1

                          Input orientation:
 ---------------------------------------------------------------------
 Center     Atomic      Atomic             Coordinates (Angstroms)
 Number     Number       Type             X           Y           Z
 ---------------------------------------------------------------------
      1         17           0       -0.009609   -0.353917    1.734110
      2         17           0        1.453053    0.925754   -0.405141
      3         17           0       -1.437088    0.945113   -0.417206
      4         17           0       -0.006354   -1.516964   -0.911755
      5          6           0       -0.000008    0.000041   -0.000020
 ---------------------------------------------------------------------

 SCF Done:  E(RwB97XD) =  -1878.94946010     A.U. after   10 cycles

 Alpha  occ. eigenvalues -- -101.76680-101.76680-101.76679-101.76678 -10.54211
 Alpha  occ. eigenvalues --   -9.62676  -9.62675  -9.62675  -9.62674  -7.37543
 Alpha  occ. eigenvalues --   -7.37543  -7.37543  -7.37542  -7.36507  -7.36507
 Alpha  occ. eigenvalues --   -7.36507  -7.36507  -7.36507  -7.36507  -7.36506
 Alpha  occ. eigenvalues --   -7.36506  -1.08892  -0.95845  -0.95844  -0.95844
 Alpha  occ. eigenvalues --   -0.72822  -0.59395  -0.59395  -0.59394  -0.46861
 Alpha  occ. eigenvalues --   -0.46861  -0.43822  -0.43822  -0.43821  -0.40475
 Alpha  occ. eigenvalues --   -0.40474  -0.40474
 Alpha virt. eigenvalues --    0.00550   0.05216   0.05217   0.05217   0.05256
 Alpha virt. eigenvalues --    0.07845   0.07845   0.07845   0.12084   0.12084
 Alpha virt. eigenvalues --    0.13693   0.13693   0.13693   0.16345   0.16345

 Mulliken charges:
               1
     1  Cl  -0.100113
     2  Cl  -0.100072
     3  Cl  -0.100059
     4  Cl  -0.100181
     5  C    0.400424
 Sum of Mulliken charges =  -0.00000

 Dipole moment (field-independent basis, Debye):
    X=             -0.0001    Y=              0.0002    Z=             -0.0002  Tot=              0.0003
 Quadrupole moment (field-independent basis, Debye-Ang):
   XX=            -54.5732   YY=            -54.5738   ZZ=            -54.5740
   XY=             -0.0001   XZ=              0.0000   YZ=              0.0000

  Exact polarizability:      69.441      -0.001      69.440      -0.000       0.003      69.452
 Approx polarizability:      81.802       0.000      81.803      -0.000       0.000      81.802

 Normal termination of Gaussian 16 at Wed Jan  8 07:50:18 2020.
