 Gaussian 16, Revision C.01,
 Gaussian 16:  ES64L-G16RevC.01  3-Jul-2019

 ------------------------------------------------
 #p wB97XD/aug-cc-pvtz NoSymm MaxDisk=100GB polar
 ------------------------------------------------

 -----
 polar
 -----
 Symbolic Z-matrix:
 Charge =  0 Multiplicity = 1

                          Input orientation:
 ---------------------------------------------------------------------
 Center     Atomic      Atomic             Coordinates (Angstroms)
 Number     Number       Type             X           Y           Z
 ---------------------------------------------------------------------
      1          9           0        0.616721    1.098216   -0.128836
      2          9           0        0.642817   -1.083153   -0.128834
      3          9           0       -1.259522   -0.015066   -0.128831
      4          6           0       -0.000039    0.000004    0.341391
      5          1           0        0.000100    0.000002    1.430168
 ---------------------------------------------------------------------

 SCF Done:  E(RwB97XD) =  -338.284758080     A.U. after   10 cycles

 Alpha  occ. eigenvalues --  -24.85575 -24.85573 -24.85573 -10.54657  -1.42807
 Alpha  occ. eigenvalues --   -1.34177  -1.34175  -0.82810  -0.70742  -0.69332
 Alpha  occ. eigenvalues --   -0.69331  -0.57062  -0.57061  -0.53482  -0.53481
 Alpha  occ. eigenvalues --   -0.51363  -0.49366
 Alpha virt. eigenvalues --    0.03146   0.07753   0.07753   0.07846   0.12740
 Alpha virt. eigenvalues --    0.18244   0.18245   0.19184   0.19184   0.19486
 Alpha virt. eigenvalues --    0.21110   0.21111   0.25038   0.27227   0.28738

 Mulliken charges:
               1
     1  F   -0.313254
     2  F   -0.313265
     3  F   -0.313266
     4  C    0.679643
     5  H    0.260143
 Sum of Mulliken charges =  -0.00000

 Dipole moment (field-independent basis, Debye):
    X=             -0.0001    Y=              0.0000    Z=              1.6472  Tot=              1.6472
 Quadrupole moment (field-independent basis, Debye-Ang):
   XX=            -22.2455   YY=            -22.2454   ZZ=            -18.5651
   XY=              0.0000   XZ=              0.0002   YZ=              0.0000

  Exact polarizability:      19.271       0.000      19.267       0.000      -0.000      17.816
 Approx polarizability:      19.737      -0.000      19.736       0.000       0.000      17.840

 Normal termination of Gaussian 16 at Wed Jan  8 07:52:14 2020.
