 Gaussian 16, Revision C.01,
 Gaussian 16:  ES64L-G16RevC.01  3-Jul-2019

 ------------------------------------------------
 #p wB97XD/aug-cc-pvtz NoSymm MaxDisk=100GB polar
 ------------------------------------------------

 -----
 polar
 -----
 Symbolic Z-matrix:
 Charge =  0 Multiplicity = 1

                          Input orientation:
 ---------------------------------------------------------------------
 Center     Atomic      Atomic             Coordinates (Angstroms)
 Number     Number       Type             X           Y           Z
 ---------------------------------------------------------------------
      1         17           0       -1.671442   -0.195282   -0.083393
      2         17           0        1.004833   -1.349864   -0.083396
      3         17           0        0.666598    1.545139   -0.083400
      4          6           0        0.000027    0.000011    0.452494
      5          1           0        0.000021    0.000057    1.538255
 ---------------------------------------------------------------------

 SCF Done:  E(RwB97XD) =  -1419.35017746     A.U. after   11 cycles

 Alpha  occ. eigenvalues -- -101.75677-101.75677-101.75676 -10.48049  -9.61669
 Alpha  occ. eigenvalues --   -9.61669  -9.61668  -7.36502  -7.36502  -7.36501
 Alpha  occ. eigenvalues --   -7.35525  -7.35525  -7.35524  -7.35517  -7.35517
 Alpha  occ. eigenvalues --   -7.35516  -1.05434  -0.94715  -0.94715  -0.75260
 Alpha  occ. eigenvalues --   -0.60462  -0.56794  -0.56794  -0.44658  -0.44658
 Alpha  occ. eigenvalues --   -0.41623  -0.41623  -0.41183  -0.39729
 Alpha virt. eigenvalues --    0.02639   0.03581   0.06249   0.06249   0.07184
 Alpha virt. eigenvalues --    0.08760   0.08761   0.12156   0.12156   0.12294
 Alpha virt. eigenvalues --    0.13278   0.13676   0.13676   0.16505   0.16595

 Mulliken charges:
               1
     1  Cl  -0.144021
     2  Cl  -0.144055
     3  Cl  -0.144027
     4  C    0.188343
     5  H    0.243761
 Sum of Mulliken charges =  -0.00000

 Dipole moment (field-independent basis, Debye):
    X=              0.0002    Y=              0.0001    Z=              1.1030  Tot=              1.1030
 Quadrupole moment (field-independent basis, Debye-Ang):
   XX=            -44.0198   YY=            -44.0194   ZZ=            -41.8939
   XY=             -0.0001   XZ=              0.0001   YZ=              0.0001

  Exact polarizability:      62.252      -0.003      62.245      -0.001       0.000      44.931
 Approx polarizability:      69.439       0.000      69.439       0.000       0.000      54.447

 Normal termination of Gaussian 16 at Wed Jan  8 07:54:47 2020.
