 Gaussian 16, Revision C.01,
 Gaussian 16:  ES64L-G16RevC.01  3-Jul-2019

 ------------------------------------------------
 #p wB97XD/aug-cc-pvtz NoSymm MaxDisk=100GB polar
 ------------------------------------------------

 -----
 polar
 -----
 Symbolic Z-matrix:
 Charge =  0 Multiplicity = 1

                          Input orientation:
 ---------------------------------------------------------------------
 Center     Atomic      Atomic             Coordinates (Angstroms)
 Number     Number       Type             X           Y           Z
 ---------------------------------------------------------------------
      1         35           0       -0.922980    1.599699   -0.046889
      2         35           0       -0.924164   -1.599015   -0.046889
      3         35           0        1.847112   -0.000683   -0.046903
      4          6           0        0.000153   -0.000003    0.548359
      5          1           0        0.000197    0.000000    1.633660
 ---------------------------------------------------------------------

 SCF Done:  E(RwB97XD) =  -7761.47725776     A.U. after   12 cycles

 Alpha  occ. eigenvalues -- -483.16269-483.16268-483.16268 -62.70973 -62.70972
 Alpha  occ. eigenvalues --  -62.70971 -56.50134 -56.50134 -56.50133 -56.49736
 Alpha  occ. eigenvalues --  -56.49736 -56.49735 -56.49735 -56.49735 -56.49735
 Alpha  occ. eigenvalues --  -10.46231  -8.84569  -8.84568  -8.84568  -6.66745
 Alpha  occ. eigenvalues --   -6.66745  -6.66744  -6.65437  -6.65437  -6.65436
 Alpha  occ. eigenvalues --   -6.65434  -6.65433  -6.65433  -2.77188  -2.77186
 Alpha  occ. eigenvalues --   -2.77186  -2.76814  -2.76813  -2.76812  -2.76810
 Alpha  occ. eigenvalues --   -2.76810  -2.76809  -2.75753  -2.75753  -2.75753
 Alpha  occ. eigenvalues --   -2.75753  -2.75753  -2.75752  -0.98613  -0.88822
 Alpha  occ. eigenvalues --   -0.88820  -0.73928  -0.57179  -0.52495  -0.52493
 Alpha  occ. eigenvalues --   -0.41157  -0.41154  -0.38941  -0.38298  -0.38296
 Alpha  occ. eigenvalues --   -0.36660
 Alpha virt. eigenvalues --   -0.00941   0.03193   0.04073   0.04074   0.07391
 Alpha virt. eigenvalues --    0.07391   0.07407   0.10162   0.10803   0.10803
 Alpha virt. eigenvalues --    0.11317   0.11318   0.12635   0.13719   0.13719

 Mulliken charges:
               1
     1  Br   0.053770
     2  Br   0.053776
     3  Br   0.053694
     4  C   -0.412938
     5  H    0.251698
 Sum of Mulliken charges =  -0.00000

 Dipole moment (field-independent basis, Debye):
    X=              0.0002    Y=             -0.0000    Z=              0.8949  Tot=              0.8949
 Quadrupole moment (field-independent basis, Debye-Ang):
   XX=            -60.5365   YY=            -60.5389   ZZ=            -59.3078
   XY=              0.0000   XZ=              0.0005   YZ=             -0.0000

  Exact polarizability:      88.623      -0.000      88.644       0.015      -0.000      60.989
 Approx polarizability:      98.327      -0.000      98.313       0.001      -0.000      74.791

 Normal termination of Gaussian 16 at Wed Jan  8 07:57:59 2020.
