 Gaussian 16, Revision C.01,
 Gaussian 16:  ES64L-G16RevC.01  3-Jul-2019

 ------------------------------------------------
 #p wB97XD/aug-cc-pvtz NoSymm MaxDisk=100GB Polar
 ------------------------------------------------

 -----
 Polar
 -----
 Symbolic Z-matrix:
 Charge =  0 Multiplicity = 1

                          Input orientation:
 ---------------------------------------------------------------------
 Center     Atomic      Atomic             Coordinates (Angstroms)
 Number     Number       Type             X           Y           Z
 ---------------------------------------------------------------------
      1          8           0        0.000088   -0.621165   -0.000595
      2          8           0       -1.268315    1.198106   -0.615922
      3          8           0        1.267817    1.198112    0.616118
      4          6           0       -1.200728    0.087477   -0.146862
      5          6           0        1.200669    0.087685    0.146506
      6          6           0       -2.340440   -0.775664    0.309541
      7          6           0        2.340808   -0.775320   -0.309113
      8          1           0       -3.281621   -0.268408    0.101252
      9          1           0       -2.244762   -0.965241    1.381700
     10          1           0       -2.305871   -1.739412   -0.203446
     11          1           0        2.308835   -1.736977    0.208025
     12          1           0        3.281598   -0.265833   -0.104550
     13          1           0        2.243256   -0.969618   -1.380221
 ---------------------------------------------------------------------

 SCF Done:  E(RwB97XD) =  -381.751330468     A.U. after   12 cycles

 Alpha  occ. eigenvalues --  -19.32220 -19.26109 -19.26109 -10.44287 -10.44287
 Alpha  occ. eigenvalues --  -10.31045 -10.31045  -1.23414  -1.16449  -1.12883
 Alpha  occ. eigenvalues --   -0.89160  -0.85753  -0.74831  -0.61700  -0.59870
 Alpha  occ. eigenvalues --   -0.59761  -0.58283  -0.54700  -0.53816  -0.52317
 Alpha  occ. eigenvalues --   -0.50415  -0.49594  -0.48384  -0.46148  -0.41744
 Alpha  occ. eigenvalues --   -0.39194  -0.36554
 Alpha virt. eigenvalues --    0.02529   0.03220   0.03497   0.04210   0.04799
 Alpha virt. eigenvalues --    0.05783   0.05937   0.07238   0.07949   0.09859
 Alpha virt. eigenvalues --    0.10631   0.10820   0.11529   0.11530   0.11905

 Mulliken charges:
               1
     1  O   -0.171938
     2  O   -0.631020
     3  O   -0.631110
     4  C    0.517543
     5  C    0.517343
     6  C   -0.572996
     7  C   -0.572695
     8  H    0.269412
     9  H    0.244457
    10  H    0.258495
    11  H    0.258517
    12  H    0.269480
    13  H    0.244512
 Sum of Mulliken charges =  -0.00000

 Dipole moment (field-independent basis, Debye):
    X=              0.0009    Y=             -4.1842    Z=              0.0008  Tot=              4.1842
 Quadrupole moment (field-independent basis, Debye-Ang):
   XX=            -33.5575   YY=            -45.3797   ZZ=            -40.2498
   XY=              0.0011   XZ=             -3.4733   YZ=             -0.0022

  Exact polarizability:      71.204      -0.003      60.933      -0.666      -0.001      47.710
 Approx polarizability:      63.055      -0.005      72.661       0.792       0.002      54.616

 Normal termination of Gaussian 16 at Wed Jan 29 10:46:37 2020.
