 Gaussian 16, Revision C.01,
 Gaussian 16:  ES64L-G16RevC.01  3-Jul-2019

 ------------------------------------------------
 #p wB97XD/aug-cc-pvtz NoSymm MaxDisk=100GB Polar
 ------------------------------------------------

 -----
 Polar
 -----
 Symbolic Z-matrix:
 Charge =  0 Multiplicity = 1

                          Input orientation:
 ---------------------------------------------------------------------
 Center     Atomic      Atomic             Coordinates (Angstroms)
 Number     Number       Type             X           Y           Z
 ---------------------------------------------------------------------
      1          8           0        0.810876   -1.005540    0.000020
      2          8           0        0.497805    1.258189    0.000055
      3          7           0       -1.274321   -0.208274   -0.000068
      4          6           0        0.040930    0.125690   -0.000044
      5          1           0       -1.568109   -1.171734    0.000006
      6          1           0       -1.956789    0.532099    0.000045
      7          1           0        1.730112   -0.677784    0.000095
 ---------------------------------------------------------------------

 SCF Done:  E(RwB97XD) =  -245.167642915     A.U. after   12 cycles

 Alpha  occ. eigenvalues --  -19.30399 -19.23007 -14.47131 -10.44861  -1.21362
 Alpha  occ. eigenvalues --   -1.11537  -1.02316  -0.74239  -0.65988  -0.60024
 Alpha  occ. eigenvalues --   -0.56617  -0.55322  -0.50317  -0.41792  -0.37322
 Alpha  occ. eigenvalues --   -0.37300
 Alpha virt. eigenvalues --    0.02514   0.03928   0.05038   0.08336   0.10215
 Alpha virt. eigenvalues --    0.10481   0.11206   0.11684   0.12303   0.14209
 Alpha virt. eigenvalues --    0.15232   0.15732   0.17187   0.17436   0.19071

 Mulliken charges:
               1
     1  O   -0.296004
     2  O   -0.601907
     3  N   -0.127609
     4  C    0.624437
     5  H    0.093283
     6  H    0.098555
     7  H    0.209244
 Sum of Mulliken charges =  -0.00000

 Dipole moment (field-independent basis, Debye):
    X=             -1.6252    Y=             -2.0549    Z=              0.0002  Tot=              2.6199
 Quadrupole moment (field-independent basis, Debye-Ang):
   XX=            -15.1911   YY=            -26.8199   ZZ=            -24.2246
   XY=             -1.4368   XZ=             -0.0003   YZ=             -0.0003

  Exact polarizability:      37.023       1.677      34.325       0.001       0.000      22.947
 Approx polarizability:      36.424       2.830      37.884       0.001       0.001      23.956

 1\1\GINC-NODE35\SP\RwB97XD\Aug-CC-pVTZ\C1H3N1O2\LIUCHW\29-Jan-2020\0\\
 #p wB97XD/aug-cc-pvtz NoSymm MaxDisk=100GB Polar\\Polar\\0,1\O,0,0.810
 876,-1.00554,0.00002\O,0,0.497805,1.258189,0.000055\N,0,-1.274321,-0.2
 08274,-0.000068\C,0,0.04093,0.12569,-0.000044\H,0,-1.568109,-1.171734,
 0.000006\H,0,-1.956789,0.532099,0.000045\H,0,1.730112,-0.677784,0.0000
 95\\Version=ES64L-G16RevC.01\HF=-245.1676429\RMSD=4.323e-09\Dipole=-0.
 6393968,-0.8084508,0.0000774\Polar=37.0230423,1.6770976,34.3247536,0.0
 006906,0.000375,22.9469553\HyperPolar=47.9063106,17.3635099,-30.616642

 Normal termination of Gaussian 16 at Wed Jan 29 10:26:56 2020.
