 Gaussian 16, Revision C.01,
 Gaussian 16:  ES64L-G16RevC.01  3-Jul-2019

 ------------------------------------------------
 #p wB97XD/aug-cc-pvtz NoSymm MaxDisk=100GB Polar
 ------------------------------------------------

 -----
 Polar
 -----
 Symbolic Z-matrix:
 Charge =  0 Multiplicity = 1

                          Input orientation:
 ---------------------------------------------------------------------
 Center     Atomic      Atomic             Coordinates (Angstroms)
 Number     Number       Type             X           Y           Z
 ---------------------------------------------------------------------
      1          7           0       -2.467634   -0.379621   -0.099734
      2          6           0       -0.017334   -0.326058   -0.033012
      3          6           0        1.247103    0.526356    0.035816
      4          6           0       -1.296969    0.497192    0.019214
      5          6           0        2.523082   -0.309918   -0.014873
      6          1           0       -0.025676   -0.918432   -0.954951
      7          1           0       -0.016165   -1.043205    0.800025
      8          1           0        1.235341    1.122956    0.956687
      9          1           0        1.244451    1.242309   -0.795636
     10          1           0       -1.292098    1.115756    0.933353
     11          1           0       -1.314272    1.190027   -0.829755
     12          1           0        3.416480    0.319614    0.032577
     13          1           0        2.561716   -1.012369    0.823487
     14          1           0        2.569747   -0.891804   -0.940379
     15          1           0       -3.318835    0.180970   -0.096947
     16          1           0       -2.522542   -0.973912    0.726806
 ---------------------------------------------------------------------

 SCF Done:  E(RwB97XD) =  -213.817579238     A.U. after   12 cycles

 Alpha  occ. eigenvalues --  -14.41496 -10.30345 -10.27891 -10.27435 -10.27047
 Alpha  occ. eigenvalues --   -0.98021  -0.88629  -0.80392  -0.71006  -0.67173
 Alpha  occ. eigenvalues --   -0.57717  -0.55599  -0.53016  -0.50464  -0.49193
 Alpha  occ. eigenvalues --   -0.45970  -0.43488  -0.41397  -0.40864  -0.40398
 Alpha  occ. eigenvalues --   -0.32563
 Alpha virt. eigenvalues --    0.03093   0.03661   0.04022   0.04427   0.05577
 Alpha virt. eigenvalues --    0.05818   0.05997   0.06641   0.08116   0.08478
 Alpha virt. eigenvalues --    0.08746   0.09523   0.11034   0.11611   0.12539

 Mulliken charges:
               1
     1  N   -0.502831
     2  C   -0.266515
     3  C   -0.360869
     4  C   -0.267472
     5  C   -0.992519
     6  H    0.210730
     7  H    0.255625
     8  H    0.253634
     9  H    0.256205
    10  H    0.246070
    11  H    0.267680
    12  H    0.244426
    13  H    0.275463
    14  H    0.267279
    15  H    0.043089
    16  H    0.070005
 Sum of Mulliken charges =  -0.00000

 Dipole moment (field-independent basis, Debye):
    X=             -0.0882    Y=              0.7535    Z=              1.0790  Tot=              1.3190
 Quadrupole moment (field-independent basis, Debye-Ang):
   XX=            -32.9651   YY=            -34.7919   ZZ=            -34.1158
   XY=             -1.8376   XZ=             -2.9943   YZ=             -1.8674

  Exact polarizability:      72.917       0.152      59.329      -0.097       0.521      55.424
 Approx polarizability:      63.899       0.321      63.723       0.037      -0.320      62.243

 Normal termination of Gaussian 16 at Wed Jan 29 10:53:01 2020.
