 Gaussian 16, Revision C.01,
 Gaussian 16:  ES64L-G16RevC.01  3-Jul-2019

 ------------------------------------------------
 #p wB97XD/aug-cc-pvtz NoSymm MaxDisk=100GB Polar
 ------------------------------------------------

 -----
 Polar
 -----
 Symbolic Z-matrix:
 Charge =  0 Multiplicity = 1

                          Input orientation:
 ---------------------------------------------------------------------
 Center     Atomic      Atomic             Coordinates (Angstroms)
 Number     Number       Type             X           Y           Z
 ---------------------------------------------------------------------
      1          6           0       -0.000004    0.000006   -0.376573
      2          6           0       -1.339583   -0.560316    0.096296
      3          6           0        0.184546    1.440270    0.096327
      4          6           0        1.155040   -0.879957    0.096276
      5          1           0       -0.000005    0.000026   -1.475237
      6          1           0       -1.380398   -0.577405    1.191199
      7          1           0       -2.174075    0.050858   -0.262040
      8          1           0       -1.490419   -1.583616   -0.262076
      9          1           0        0.190176    1.484132    1.191229
     10          1           0       -0.626254    2.082547   -0.262009
     11          1           0        1.131081    1.857370   -0.262028
     12          1           0        1.190245   -0.906784    1.191179
     13          1           0        2.116655   -0.498922   -0.262081
     14          1           0        1.042997   -1.908224   -0.262091
 ---------------------------------------------------------------------

 SCF Done:  E(RwB97XD) =  -158.466952815     A.U. after   10 cycles

 Alpha  occ. eigenvalues --  -10.28623 -10.26836 -10.26835 -10.26835  -0.90296
 Alpha  occ. eigenvalues --   -0.77732  -0.77732  -0.65056  -0.55167  -0.51659
 Alpha  occ. eigenvalues --   -0.51659  -0.46550  -0.46550  -0.44321  -0.40701
 Alpha  occ. eigenvalues --   -0.40701  -0.40075
 Alpha virt. eigenvalues --    0.03252   0.04212   0.04212   0.04220   0.06265
 Alpha virt. eigenvalues --    0.06265   0.06541   0.06700   0.06700   0.08267
 Alpha virt. eigenvalues --    0.10759   0.12334   0.12334   0.13028   0.13120

 Mulliken charges:
               1
     1  C    0.567620
     2  C   -1.087078
     3  C   -1.086935
     4  C   -1.086901
     5  H    0.334755
     6  H    0.276965
     7  H    0.254640
     8  H    0.254677
     9  H    0.276972
    10  H    0.254635
    11  H    0.254532
    12  H    0.276997
    13  H    0.254442
    14  H    0.254679
 Sum of Mulliken charges =  -0.00000

 Dipole moment (field-independent basis, Debye):
    X=             -0.0000    Y=              0.0000    Z=             -0.1395  Tot=              0.1395
 Quadrupole moment (field-independent basis, Debye-Ang):
   XX=            -28.8313   YY=            -28.8314   ZZ=            -28.1714
   XY=             -0.0000   XZ=             -0.0000   YZ=              0.0000

  Exact polarizability:      55.097      -0.003      55.106       0.000       0.003      48.685
 Approx polarizability:      54.153      -0.000      54.153       0.000       0.000      54.032

 1\1\GINC-G2-NODE38\SP\RwB97XD\Aug-CC-pVTZ\C4H10\LIUCHW\29-Jan-2020\0\\
 #p wB97XD/aug-cc-pvtz NoSymm MaxDisk=100GB Polar\\Polar\\0,1\C,0,-0.00
 0004,0.000006,-0.376573\C,0,-1.339583,-0.560316,0.096296\C,0,0.184546,
 1.44027,0.096327\C,0,1.15504,-0.879957,0.096276\H,0,-0.000005,0.000026
 ,-1.475237\H,0,-1.380398,-0.577405,1.191199\H,0,-2.174075,0.050858,-0.
 26204\H,0,-1.490419,-1.583616,-0.262076\H,0,0.190176,1.484132,1.191229
 \H,0,-0.626254,2.082547,-0.262009\H,0,1.131081,1.85737,-0.262028\H,0,1
 .190245,-0.906784,1.191179\H,0,2.116655,-0.498922,-0.262081\H,0,1.0429

 Normal termination of Gaussian 16 at Wed Jan 29 10:44:11 2020.
