 Gaussian 16, Revision C.01,
 Gaussian 16:  ES64L-G16RevC.01  3-Jul-2019

 ------------------------------------------------
 #p wB97XD/aug-cc-pvtz NoSymm MaxDisk=100GB Polar
 ------------------------------------------------

 -----
 Polar
 -----
 Symbolic Z-matrix:
 Charge =  0 Multiplicity = 1

                          Input orientation:
 ---------------------------------------------------------------------
 Center     Atomic      Atomic             Coordinates (Angstroms)
 Number     Number       Type             X           Y           Z
 ---------------------------------------------------------------------
      1          7           0        0.633105    1.811513   -0.000021
      2          6           0        0.178547   -0.391316    0.000009
      3          6           0       -0.403678    0.906297   -0.000020
      4          6           0        1.602731   -0.227478    0.000004
      5          6           0        1.834404    1.130502    0.000062
      6          6           0       -0.669256   -1.514955   -0.000018
      7          6           0       -1.789156    1.109992   -0.000027
      8          6           0        2.626313   -1.317896    0.000069
      9          6           0       -2.043711   -1.318496   -0.000032
     10          6           0       -2.597976   -0.019863   -0.000043
     11          1           0        0.532613    2.817489   -0.000032
     12          1           0        2.773795    1.670736    0.000073
     13          1           0       -0.255079   -2.521704   -0.000006
     14          1           0       -2.218939    2.109934   -0.000046
     15          1           0        2.528990   -1.958687    0.883179
     16          1           0        2.528529   -1.959209   -0.882610
     17          1           0        3.637659   -0.900270   -0.000321
     18          1           0       -2.709580   -2.178355   -0.000052
     19          1           0       -3.679027    0.098757   -0.000062
 ---------------------------------------------------------------------

 SCF Done:  E(RwB97XD) =  -403.136139748     A.U. after   14 cycles

 Alpha  occ. eigenvalues --  -14.47839 -10.31928 -10.31634 -10.28922 -10.28499
 Alpha  occ. eigenvalues --  -10.28411 -10.28283 -10.28189 -10.27994 -10.27877
 Alpha  occ. eigenvalues --   -1.07967  -0.93802  -0.89485  -0.83271  -0.82426
 Alpha  occ. eigenvalues --   -0.78585  -0.71407  -0.68287  -0.64856  -0.62438
 Alpha  occ. eigenvalues --   -0.57039  -0.55635  -0.52413  -0.52150  -0.51273
 Alpha  occ. eigenvalues --   -0.49342  -0.48457  -0.47314  -0.45791  -0.42938
 Alpha  occ. eigenvalues --   -0.42180  -0.41167  -0.35313  -0.29623  -0.27412
 Alpha virt. eigenvalues --    0.02698   0.03393   0.03533   0.04237   0.04573
 Alpha virt. eigenvalues --    0.04739   0.05706   0.06458   0.06654   0.07957
 Alpha virt. eigenvalues --    0.08167   0.09071   0.09233   0.09760   0.10253

 Mulliken charges:
               1
     1  N   -0.068821
     2  C    0.837033
     3  C    0.190519
     4  C    0.494498
     5  C   -1.175764
     6  C   -0.616765
     7  C   -1.117722
     8  C   -0.962821
     9  C   -0.695517
    10  C   -0.267475
    11  H   -0.103299
    12  H    0.709104
    13  H    0.441770
    14  H    0.527889
    15  H    0.289134
    16  H    0.289153
    17  H    0.227113
    18  H    0.487410
    19  H    0.514560
 Sum of Mulliken charges =  -0.00000

 Dipole moment (field-independent basis, Debye):
    X=              0.9467    Y=              1.7751    Z=              0.0000  Tot=              2.0118
 Quadrupole moment (field-independent basis, Debye-Ang):
   XX=            -54.2349   YY=            -48.2621   ZZ=            -64.1206
   XY=              0.8370   XZ=              0.0003   YZ=             -0.0000

  Exact polarizability:     150.834       5.897     125.457       0.002      -0.000      68.606
 Approx polarizability:     159.168       8.703     151.187       0.002       0.000      82.887

 Normal termination of Gaussian 16 at Wed Jan 29 11:59:22 2020.
