 Gaussian 16, Revision C.01,
 Gaussian 16:  ES64L-G16RevC.01  3-Jul-2019

 ------------------------------------------------
 #p wB97XD/aug-cc-pvtz NoSymm MaxDisk=100GB Polar
 ------------------------------------------------

 -----
 Polar
 -----
 Symbolic Z-matrix:
 Charge =  0 Multiplicity = 1

                          Input orientation:
 ---------------------------------------------------------------------
 Center     Atomic      Atomic             Coordinates (Angstroms)
 Number     Number       Type             X           Y           Z
 ---------------------------------------------------------------------
      1          7           0        0.171293   -1.040606   -0.000025
      2          7           0        1.539564    0.714022   -0.000615
      3          6           0       -0.648652    0.068848   -0.000010
      4          6           0       -2.137090   -0.016637    0.000017
      5          6           0        0.228257    1.134859    0.000209
      6          6           0        1.468306   -0.608383    0.000386
      7          1           0       -0.137875   -2.005080   -0.000010
      8          1           0       -2.517394   -0.535538    0.886428
      9          1           0       -2.555493    0.992489   -0.000451
     10          1           0       -2.517404   -0.536368   -0.885905
     11          1           0       -0.021683    2.188336    0.000276
     12          1           0        2.308922   -1.289871    0.000527
 ---------------------------------------------------------------------

 SCF Done:  E(RwB97XD) =  -265.543779708     A.U. after   13 cycles

 Alpha  occ. eigenvalues --  -14.49352 -14.41527 -10.33882 -10.32281 -10.29971
 Alpha  occ. eigenvalues --  -10.29298  -1.11424  -0.96782  -0.87605  -0.78947
 Alpha  occ. eigenvalues --   -0.70536  -0.67938  -0.62366  -0.54090  -0.53864
 Alpha  occ. eigenvalues --   -0.49943  -0.49137  -0.48589  -0.48046  -0.36307
 Alpha  occ. eigenvalues --   -0.35401  -0.29913
 Alpha virt. eigenvalues --    0.02279   0.03455   0.04318   0.04550   0.05335
 Alpha virt. eigenvalues --    0.06405   0.07925   0.08833   0.09812   0.10049
 Alpha virt. eigenvalues --    0.10343   0.10884   0.11257   0.11602   0.13123

 Mulliken charges:
               1
     1  N   -0.084391
     2  N   -0.517346
     3  C    0.583262
     4  C   -0.677337
     5  C   -0.483872
     6  C   -0.544123
     7  H   -0.020462
     8  H    0.275311
     9  H    0.259130
    10  H    0.275258
    11  H    0.440609
    12  H    0.493962
 Sum of Mulliken charges =  -0.00000

 Dipole moment (field-independent basis, Debye):
    X=             -2.7501    Y=             -3.0395    Z=              0.0014  Tot=              4.0990
 Quadrupole moment (field-independent basis, Debye-Ang):
   XX=            -37.1270   YY=            -30.5614   ZZ=            -38.0647
   XY=             -4.3547   XZ=              0.0031   YZ=              0.0008

  Exact polarizability:      76.934      -0.334      65.434       0.001      -0.002      43.416
 Approx polarizability:      78.717       0.956      77.234       0.002      -0.004      49.471

 Normal termination of Gaussian 16 at Wed Jan 29 10:39:25 2020.
