 Gaussian 16, Revision C.01,
 Gaussian 16:  ES64L-G16RevC.01  3-Jul-2019

 ------------------------------------------------
 #p wB97XD/aug-cc-pvtz NoSymm MaxDisk=100GB Polar
 ------------------------------------------------

 -----
 Polar
 -----
 Symbolic Z-matrix:
 Charge =  0 Multiplicity = 1

                          Input orientation:
 ---------------------------------------------------------------------
 Center     Atomic      Atomic             Coordinates (Angstroms)
 Number     Number       Type             X           Y           Z
 ---------------------------------------------------------------------
      1          6           0       -1.806435    0.866763    0.000000
      2         16           0        0.000000    0.814110    0.000000
      3          6           0        0.226582   -0.985529    0.000000
      4          6           0        1.712227   -1.324075    0.000000
      5          1           0       -2.216929    0.387535    0.892108
      6          1           0       -2.106534    1.916619    0.000000
      7          1           0       -2.216929    0.387535   -0.892108
      8          1           0       -0.258478   -1.409320    0.885522
      9          1           0       -0.258478   -1.409320   -0.885522
     10          1           0        2.205843   -0.916519   -0.885739
     11          1           0        2.205843   -0.916519    0.885739
     12          1           0        1.851421   -2.408721    0.000000
 ---------------------------------------------------------------------

 SCF Done:  E(RwB97XD) =  -517.351061336     A.U. after   12 cycles

 Alpha  occ. eigenvalues --  -89.03926 -10.31319 -10.30655 -10.28241  -8.04853
 Alpha  occ. eigenvalues --   -5.99845  -5.99487  -5.98843  -0.90891  -0.84119
 Alpha  occ. eigenvalues --   -0.74350  -0.67641  -0.54994  -0.52881  -0.51438
 Alpha  occ. eigenvalues --   -0.50689  -0.46349  -0.44128  -0.42618  -0.38886
 Alpha  occ. eigenvalues --   -0.29876
 Alpha virt. eigenvalues --    0.03221   0.03650   0.04513   0.04576   0.05790
 Alpha virt. eigenvalues --    0.06097   0.06595   0.07640   0.08948   0.09970
 Alpha virt. eigenvalues --    0.10262   0.11697   0.12477   0.12994   0.13398

 Mulliken charges:
               1
     1  C   -0.812078
     2  S   -0.080672
     3  C   -0.310762
     4  C   -0.883948
     5  H    0.267557
     6  H    0.225922
     7  H    0.267557
     8  H    0.262357
     9  H    0.262357
    10  H    0.279979
    11  H    0.279979
    12  H    0.241754
 Sum of Mulliken charges =  -0.00000

 Dipole moment (field-independent basis, Debye):
    X=             -1.0080    Y=             -1.3349    Z=             -0.0000  Tot=              1.6727
 Quadrupole moment (field-independent basis, Debye-Ang):
   XX=            -31.7151   YY=            -33.5746   ZZ=            -35.0450
   XY=             -2.1021   XZ=              0.0000   YZ=             -0.0000

  Exact polarizability:      69.386      -7.919      64.101      -0.000       0.000      52.288
 Approx polarizability:      68.845      -3.046      67.680      -0.000       0.000      58.821

 Normal termination of Gaussian 16 at Wed Jan 29 10:40:27 2020.
