 Gaussian 16, Revision C.01,
 Gaussian 16:  ES64L-G16RevC.01  3-Jul-2019

 ------------------------------------------------
 #p wB97XD/aug-cc-pvtz NoSymm MaxDisk=100GB Polar
 ------------------------------------------------

 -----
 Polar
 -----
 Symbolic Z-matrix:
 Charge =  0 Multiplicity = 1

                          Input orientation:
 ---------------------------------------------------------------------
 Center     Atomic      Atomic             Coordinates (Angstroms)
 Number     Number       Type             X           Y           Z
 ---------------------------------------------------------------------
      1         16           0       -0.661483   -0.086565    0.000000
      2          6           0        1.151358    0.018993    0.000000
      3          1           0        1.524374    0.522068    0.892607
      4          1           0        1.524373    0.522072   -0.892605
      5          1           0        1.523711   -1.006162   -0.000002
      6          1           0       -0.896877    1.233102    0.000000
 ---------------------------------------------------------------------

 SCF Done:  E(RwB97XD) =  -438.720694218     A.U. after   11 cycles

 Alpha  occ. eigenvalues --  -89.04956 -10.31535  -8.05965  -6.00940  -6.00588
 Alpha  occ. eigenvalues --   -5.99967  -0.88061  -0.74158  -0.53743  -0.51746
 Alpha  occ. eigenvalues --   -0.47478  -0.41615  -0.32097
 Alpha virt. eigenvalues --    0.02961   0.04255   0.05005   0.05303   0.08088
 Alpha virt. eigenvalues --    0.09388   0.11371   0.11837   0.12314   0.12694
 Alpha virt. eigenvalues --    0.13302   0.15005   0.16169   0.17357   0.19469

 Mulliken charges:
               1
     1  S   -0.224859
     2  C   -0.744765
     3  H    0.264292
     4  H    0.264292
     5  H    0.263735
     6  H    0.177305
 Sum of Mulliken charges =  -0.00000

 Dipole moment (field-independent basis, Debye):
    X=              1.3776    Y=              0.8014    Z=             -0.0000  Tot=              1.5937
 Quadrupole moment (field-independent basis, Debye-Ang):
   XX=            -20.1027   YY=            -19.2803   ZZ=            -22.5572
   XY=             -1.2807   XZ=              0.0000   YZ=             -0.0000

  Exact polarizability:      42.715      -0.535      33.742       0.000      -0.000      33.917
 Approx polarizability:      42.885      -1.141      38.281       0.000      -0.000      34.871

 Normal termination of Gaussian 16 at Wed Jan 29 10:29:20 2020.
