 Gaussian 16, Revision C.01,
 Gaussian 16:  ES64L-G16RevC.01  3-Jul-2019

 ------------------------------------------------
 #p wB97XD/aug-cc-pvtz NoSymm MaxDisk=100GB Polar
 ------------------------------------------------

 -----
 Polar
 -----
 Symbolic Z-matrix:
 Charge =  0 Multiplicity = 1

                          Input orientation:
 ---------------------------------------------------------------------
 Center     Atomic      Atomic             Coordinates (Angstroms)
 Number     Number       Type             X           Y           Z
 ---------------------------------------------------------------------
      1          8           0       -1.407749   -0.662379   -0.000030
      2          7           0        0.483720    0.647580   -0.000005
      3          6           0        1.440815   -0.442758    0.000015
      4          6           0       -0.861552    0.437525    0.000033
      5          1           0        2.072927   -0.410322    0.891599
      6          1           0        2.073600   -0.409691   -0.891064
      7          1           0        0.868433   -1.369778   -0.000514
      8          1           0        0.815945    1.602396    0.000023
      9          1           0       -1.430528    1.384768   -0.000060
 ---------------------------------------------------------------------

 SCF Done:  E(RwB97XD) =  -209.216670663     A.U. after   12 cycles

 Alpha  occ. eigenvalues --  -19.22185 -14.47555 -10.39034 -10.32254  -1.13494
 Alpha  occ. eigenvalues --   -1.03060  -0.82012  -0.69264  -0.64103  -0.55137
 Alpha  occ. eigenvalues --   -0.54745  -0.50416  -0.48153  -0.47154  -0.34726
 Alpha  occ. eigenvalues --   -0.34645
 Alpha virt. eigenvalues --    0.02337   0.03900   0.04529   0.04924   0.06749
 Alpha virt. eigenvalues --    0.08034   0.08843   0.10178   0.10392   0.11123
 Alpha virt. eigenvalues --    0.12764   0.13639   0.13658   0.14729   0.15269

 Mulliken charges:
               1
     1  O   -0.666036
     2  N   -0.051472
     3  C   -0.720526
     4  C   -0.011844
     5  H    0.272417
     6  H    0.272503
     7  H    0.372536
     8  H    0.054679
     9  H    0.477745
 Sum of Mulliken charges =  -0.00000

 Dipole moment (field-independent basis, Debye):
    X=              3.0252    Y=              2.7170    Z=              0.0001  Tot=              4.0662
 Quadrupole moment (field-independent basis, Debye-Ang):
   XX=            -25.8483   YY=            -22.3230   ZZ=            -24.9365
   XY=             -2.8462   XZ=             -0.0002   YZ=              0.0001

  Exact polarizability:      48.184       0.946      40.685       0.001      -0.000      29.951
 Approx polarizability:      46.903       4.754      44.760       0.001       0.000      32.126

 1\1\GINC-GENOME\SP\RwB97XD\Aug-CC-pVTZ\C2H5N1O1\LIUCHW\29-Jan-2020\0\\
 #p wB97XD/aug-cc-pvtz NoSymm MaxDisk=100GB Polar\\Polar\\0,1\O,0,-1.40
 7749,-0.662379,-0.00003\N,0,0.48372,0.64758,-0.000005\C,0,1.440815,-0.
 442758,0.000015\C,0,-0.861552,0.437525,0.000033\H,0,2.072927,-0.410322
 ,0.891599\H,0,2.0736,-0.409691,-0.891064\H,0,0.868433,-1.369778,-0.000
 514\H,0,0.815945,1.602396,0.000023\H,0,-1.430528,1.384768,-0.00006\\Ve
 rsion=ES64L-G16RevC.01\HF=-209.2166707\RMSD=5.040e-09\Dipole=1.190209,
 1.0689625,0.0000301\Polar=48.1838847,0.946404,40.6853618,0.0005504,-0.

 Normal termination of Gaussian 16 at Wed Jan 29 10:34:33 2020.
