 Gaussian 16, Revision C.01,
 Gaussian 16:  ES64L-G16RevC.01  3-Jul-2019

 ------------------------------------------------
 #p wB97XD/aug-cc-pvtz NoSymm MaxDisk=100GB Polar
 ------------------------------------------------

 -----
 Polar
 -----
 Symbolic Z-matrix:
 Charge =  0 Multiplicity = 1

                          Input orientation:
 ---------------------------------------------------------------------
 Center     Atomic      Atomic             Coordinates (Angstroms)
 Number     Number       Type             X           Y           Z
 ---------------------------------------------------------------------
      1          6           0       -0.411152   -0.712655    0.000000
      2          6           0       -1.931891   -0.806850    0.000000
      3          6           0       -2.421138   -2.251645    0.000000
      4          7           0        0.000000    0.670800    0.000000
      5          6           0        1.289524    1.152965    0.000000
      6          7           0        1.468037    2.433751    0.000000
      7          7           0        2.263917    0.172136    0.000000
      8          1           0       -0.025168   -1.240264    0.886435
      9          1           0       -0.025168   -1.240264   -0.886435
     10          1           0       -2.316457   -0.281289    0.881570
     11          1           0       -2.316457   -0.281289   -0.881570
     12          1           0       -3.513330   -2.295777    0.000000
     13          1           0       -2.064179   -2.786540   -0.885138
     14          1           0       -2.064179   -2.786540    0.885138
     15          1           0       -0.701160    1.399015    0.000000
     16          1           0        2.465375    2.655096    0.000000
     17          1           0        2.051063   -0.811212    0.000000
     18          1           0        3.233925    0.441368    0.000000
 ---------------------------------------------------------------------

 SCF Done:  E(RwB97XD) =  -323.328663999     A.U. after   12 cycles

 Alpha  occ. eigenvalues --  -14.45006 -14.44120 -14.36825 -10.38074 -10.32916
 Alpha  occ. eigenvalues --  -10.29751 -10.28599  -1.07553  -0.98621  -0.93475
 Alpha  occ. eigenvalues --   -0.88558  -0.78796  -0.70748  -0.69218  -0.62943
 Alpha  occ. eigenvalues --   -0.60332  -0.57888  -0.55167  -0.52271  -0.51148
 Alpha  occ. eigenvalues --   -0.49768  -0.46529  -0.45494  -0.43471  -0.42772
 Alpha  occ. eigenvalues --   -0.34215  -0.34113  -0.28831
 Alpha virt. eigenvalues --    0.02417   0.03108   0.03840   0.04141   0.05027
 Alpha virt. eigenvalues --    0.05539   0.06204   0.06773   0.07128   0.07413
 Alpha virt. eigenvalues --    0.08497   0.10072   0.10508   0.10842   0.10904

 Mulliken charges:
               1
     1  C   -0.002975
     2  C   -0.350179
     3  C   -1.066017
     4  N   -0.045262
     5  C    0.071804
     6  N   -0.721744
     7  N   -0.234521
     8  H    0.291397
     9  H    0.291397
    10  H    0.286478
    11  H    0.286478
    12  H    0.244386
    13  H    0.273339
    14  H    0.273339
    15  H    0.080602
    16  H    0.112416
    17  H    0.185443
    18  H    0.023617
 Sum of Mulliken charges =  -0.00000

 Dipole moment (field-independent basis, Debye):
    X=              0.0869    Y=             -3.9982    Z=              0.0000  Tot=              3.9992
 Quadrupole moment (field-independent basis, Debye-Ang):
   XX=            -34.2752   YY=            -53.6558   ZZ=            -47.1187
   XY=             -2.4920   XZ=             -0.0000   YZ=              0.0000

  Exact polarizability:      87.544      11.640      91.547       0.000       0.000      60.632
 Approx polarizability:      83.526       2.720      91.584       0.000       0.000      68.508

 Normal termination of Gaussian 16 at Wed Jan 29 11:16:04 2020.
