 Gaussian 16, Revision C.01,
 Gaussian 16:  ES64L-G16RevC.01  3-Jul-2019

 ------------------------------------------------
 #p wB97XD/aug-cc-pvtz NoSymm MaxDisk=100GB Polar
 ------------------------------------------------

 -----
 Polar
 -----
 Symbolic Z-matrix:
 Charge =  0 Multiplicity = 1

                          Input orientation:
 ---------------------------------------------------------------------
 Center     Atomic      Atomic             Coordinates (Angstroms)
 Number     Number       Type             X           Y           Z
 ---------------------------------------------------------------------
      1          8           0       -0.492345    1.363274    0.004768
      2          7           0       -1.750756   -0.531303   -0.007447
      3          6           0        0.672455   -0.763666    0.011625
      4          6           0        1.966169    0.037419   -0.009230
      5          6           0       -0.555954    0.134749    0.002154
      6          1           0        0.626172   -1.403735    0.901733
      7          1           0        0.618111   -1.437666   -0.852502
      8          1           0        2.830662   -0.631788    0.000882
      9          1           0        2.016796    0.662420   -0.902373
     10          1           0        2.022649    0.697601    0.857707
     11          1           0       -1.814291   -1.537644   -0.009216
     12          1           0       -2.602067    0.012729   -0.009542
 ---------------------------------------------------------------------

 SCF Done:  E(RwB97XD) =  -248.549754405     A.U. after   12 cycles

 Alpha  occ. eigenvalues --  -19.21670 -14.46051 -10.39384 -10.29998 -10.27392
 Alpha  occ. eigenvalues --   -1.13304  -1.00689  -0.87813  -0.75333  -0.67006
 Alpha  occ. eigenvalues --   -0.62604  -0.57332  -0.55812  -0.50523  -0.47889
 Alpha  occ. eigenvalues --   -0.45976  -0.44677  -0.42877  -0.35807  -0.34114
 Alpha virt. eigenvalues --    0.02280   0.03673   0.04347   0.04647   0.05974
 Alpha virt. eigenvalues --    0.06307   0.07015   0.09062   0.09884   0.10195
 Alpha virt. eigenvalues --    0.10573   0.10732   0.12182   0.12985   0.13469

 Mulliken charges:
               1
     1  O   -0.766331
     2  N   -0.209488
     3  C   -0.150771
     4  C   -0.890152
     5  C    0.585706
     6  H    0.257488
     7  H    0.256146
     8  H    0.229361
     9  H    0.274670
    10  H    0.276481
    11  H    0.074627
    12  H    0.062262
 Sum of Mulliken charges =  -0.00000

 Dipole moment (field-independent basis, Debye):
    X=             -0.8866    Y=             -3.7385    Z=             -0.0044  Tot=              3.8422
 Quadrupole moment (field-independent basis, Debye-Ang):
   XX=            -25.5167   YY=            -33.3238   ZZ=            -31.5273
   XY=              2.4705   XZ=              0.0362   YZ=             -0.0093

  Exact polarizability:      58.903       2.582      53.997       0.051      -0.006      40.507
 Approx polarizability:      53.832       3.104      60.906       0.070       0.027      45.091

 1\1\GINC-NODE35\SP\RwB97XD\Aug-CC-pVTZ\C3H7N1O1\LIUCHW\29-Jan-2020\0\\
 #p wB97XD/aug-cc-pvtz NoSymm MaxDisk=100GB Polar\\Polar\\0,1\O,0,-0.49
 2345,1.363274,0.004768\N,0,-1.750756,-0.531303,-0.007447\C,0,0.672455,
 -0.763666,0.011625\C,0,1.966169,0.037419,-0.00923\C,0,-0.555954,0.1347
 49,0.002154\H,0,0.626172,-1.403735,0.901733\H,0,0.618111,-1.437666,-0.
 852502\H,0,2.830662,-0.631788,0.000882\H,0,2.016796,0.66242,-0.902373\
 H,0,2.022649,0.697601,0.857707\H,0,-1.814291,-1.537644,-0.009216\H,0,-
 2.602067,0.012729,-0.009542\\Version=ES64L-G16RevC.01\HF=-248.5497544\

 Normal termination of Gaussian 16 at Wed Jan 29 10:37:40 2020.
