 Gaussian 16, Revision C.01,
 Gaussian 16:  ES64L-G16RevC.01  3-Jul-2019

 ------------------------------------------------
 #p wB97XD/aug-cc-pvtz NoSymm MaxDisk=100GB Polar
 ------------------------------------------------

 -----
 Polar
 -----
 Symbolic Z-matrix:
 Charge =  0 Multiplicity = 1

                          Input orientation:
 ---------------------------------------------------------------------
 Center     Atomic      Atomic             Coordinates (Angstroms)
 Number     Number       Type             X           Y           Z
 ---------------------------------------------------------------------
      1          8           0       -1.679529   -0.668908    0.000015
      2          8           0       -0.598639    1.321431   -0.000009
      3          6           0        0.688181   -0.744599   -0.000021
      4          6           0        1.958728    0.092901    0.000016
      5          6           0       -0.556989    0.103218   -0.000005
      6          1           0        0.638767   -1.404112   -0.873598
      7          1           0        0.638751   -1.404166    0.873514
      8          1           0        2.839529   -0.553947   -0.000168
      9          1           0        1.998887    0.735915   -0.881229
     10          1           0        1.999045    0.735610    0.881478
     11          1           0       -2.429155   -0.038605    0.000020
 ---------------------------------------------------------------------

 SCF Done:  E(RwB97XD) =  -268.422828991     A.U. after   12 cycles

 Alpha  occ. eigenvalues --  -19.30742 -19.24800 -10.42853 -10.30884 -10.28284
 Alpha  occ. eigenvalues --   -1.21143  -1.12001  -0.89455  -0.77489  -0.67896
 Alpha  occ. eigenvalues --   -0.59497  -0.57975  -0.57620  -0.50967  -0.50400
 Alpha  occ. eigenvalues --   -0.46969  -0.45576  -0.43986  -0.41413  -0.37060
 Alpha virt. eigenvalues --    0.02947   0.03703   0.04378   0.04759   0.05936
 Alpha virt. eigenvalues --    0.06705   0.07437   0.09359   0.10203   0.10398
 Alpha virt. eigenvalues --    0.11125   0.11480   0.12527   0.13313   0.13808

 Mulliken charges:
               1
     1  O   -0.383510
     2  O   -0.734213
     3  C   -0.181870
     4  C   -0.812388
     5  C    0.616869
     6  H    0.250010
     7  H    0.250010
     8  H    0.242112
     9  H    0.268964
    10  H    0.268942
    11  H    0.215075
 Sum of Mulliken charges =  -0.00000

 Dipole moment (field-independent basis, Debye):
    X=              0.1808    Y=             -1.6988    Z=             -0.0000  Tot=              1.7084
 Quadrupole moment (field-independent basis, Debye-Ang):
   XX=            -25.6603   YY=            -34.8930   ZZ=            -29.5374
   XY=             -1.2040   XZ=             -0.0001   YZ=              0.0001

  Exact polarizability:      53.036       0.305      48.396      -0.000       0.000      36.842
 Approx polarizability:      48.857       0.730      55.002      -0.000       0.000      41.257

 Normal termination of Gaussian 16 at Wed Jan 29 10:42:02 2020.
