 Gaussian 16, Revision C.01,
 Gaussian 16:  ES64L-G16RevC.01  3-Jul-2019

 ------------------------------------------------
 #p wB97XD/aug-cc-pvtz NoSymm MaxDisk=100GB Polar
 ------------------------------------------------

 -----
 Polar
 -----
 Symbolic Z-matrix:
 Charge =  0 Multiplicity = 1

                          Input orientation:
 ---------------------------------------------------------------------
 Center     Atomic      Atomic             Coordinates (Angstroms)
 Number     Number       Type             X           Y           Z
 ---------------------------------------------------------------------
      1          6           0        0.000001    0.588248   -0.000007
      2          6           0        1.268609   -0.260471   -0.000008
      3          6           0       -1.268611   -0.260473    0.000014
      4          1           0        0.000004    1.245181    0.877264
      5          1           0       -0.000008    1.245161   -0.877293
      6          1           0        1.305805   -0.904742    0.883999
      7          1           0        1.305754   -0.904812   -0.883965
      8          1           0        2.167812    0.362464   -0.000056
      9          1           0       -2.167806    0.362471    0.000018
     10          1           0       -1.305771   -0.904767    0.884005
     11          1           0       -1.305789   -0.904782   -0.883966
 ---------------------------------------------------------------------

 SCF Done:  E(RwB97XD) =  -119.149157473     A.U. after   10 cycles

 Alpha  occ. eigenvalues --  -10.27850 -10.26930 -10.26930  -0.87978  -0.77594
 Alpha  occ. eigenvalues --   -0.67644  -0.54472  -0.52286  -0.48148  -0.46309
 Alpha  occ. eigenvalues --   -0.41766  -0.41692  -0.40720
 Alpha virt. eigenvalues --    0.03385   0.04229   0.04377   0.04478   0.06553
 Alpha virt. eigenvalues --    0.06695   0.06818   0.06961   0.10349   0.11903
 Alpha virt. eigenvalues --    0.12423   0.13015   0.13211   0.13709   0.13872

 Mulliken charges:
               1
     1  C   -0.240744
     2  C   -0.913202
     3  C   -0.913198
     4  H    0.234375
     5  H    0.234375
     6  H    0.275076
     7  H    0.275080
     8  H    0.249041
     9  H    0.249041
    10  H    0.275078
    11  H    0.275077
 Sum of Mulliken charges =  -0.00000

 Dipole moment (field-independent basis, Debye):
    X=              0.0000    Y=              0.0902    Z=              0.0000  Tot=              0.0902
 Quadrupole moment (field-independent basis, Debye-Ang):
   XX=            -22.2065   YY=            -21.8524   ZZ=            -21.3249
   XY=             -0.0000   XZ=              0.0000   YZ=              0.0000

  Exact polarizability:      44.844       0.000      39.994      -0.000      -0.000      37.887
 Approx polarizability:      41.242       0.000      41.183      -0.000      -0.000      40.792

 Normal termination of Gaussian 16 at Mon Feb  3 23:15:42 2020.
