 Gaussian 16, Revision C.01,
 Gaussian 16:  ES64L-G16RevC.01  3-Jul-2019

 ------------------------------------------------
 #p wB97XD/aug-cc-pvtz NoSymm MaxDisk=100GB Polar
 ------------------------------------------------

 -----
 Polar
 -----
 Symbolic Z-matrix:
 Charge =  0 Multiplicity = 1

                          Input orientation:
 ---------------------------------------------------------------------
 Center     Atomic      Atomic             Coordinates (Angstroms)
 Number     Number       Type             X           Y           Z
 ---------------------------------------------------------------------
      1          6           0        0.562827    0.515647   -0.000452
      2          6           0       -0.562827   -0.515646   -0.000427
      3          6           0        1.950214   -0.120532    0.000394
      4          6           0       -1.950215    0.120531    0.000409
      5          1           0        0.454428    1.165402    0.877153
      6          1           0        0.455082    1.164503   -0.878803
      7          1           0       -0.455090   -1.164536   -0.878753
      8          1           0       -0.454419   -1.165366    0.877203
      9          1           0        2.089670   -0.749317    0.885279
     10          1           0        2.089632   -0.751709   -0.882800
     11          1           0        2.738891    0.637532   -0.000669
     12          1           0       -2.089660    0.749356    0.885267
     13          1           0       -2.738889   -0.637536   -0.000610
     14          1           0       -2.089645    0.751668   -0.882812
 ---------------------------------------------------------------------

 SCF Done:  E(RwB97XD) =  -158.465251402     A.U. after   10 cycles

 Alpha  occ. eigenvalues --  -10.27650 -10.27627 -10.26935 -10.26935  -0.89375
 Alpha  occ. eigenvalues --   -0.82079  -0.72369  -0.66780  -0.55693  -0.51153
 Alpha  occ. eigenvalues --   -0.50449  -0.49532  -0.44981  -0.43090  -0.41341
 Alpha  occ. eigenvalues --   -0.40156  -0.40136
 Alpha virt. eigenvalues --    0.03394   0.03884   0.04210   0.04378   0.05908
 Alpha virt. eigenvalues --    0.06142   0.06156   0.06479   0.08402   0.08882
 Alpha virt. eigenvalues --    0.09832   0.11352   0.11747   0.12826   0.13111

 Mulliken charges:
               1
     1  C   -0.308073
     2  C   -0.308073
     3  C   -0.985248
     4  C   -0.985246
     5  H    0.259674
     6  H    0.259103
     7  H    0.259103
     8  H    0.259674
     9  H    0.269404
    10  H    0.269664
    11  H    0.235475
    12  H    0.269404
    13  H    0.235475
    14  H    0.269664
 Sum of Mulliken charges =  -0.00000

 Dipole moment (field-independent basis, Debye):
    X=              0.0000    Y=             -0.0000    Z=             -0.0001  Tot=              0.0001
 Quadrupole moment (field-independent basis, Debye-Ang):
   XX=            -29.2129   YY=            -28.5751   ZZ=            -27.8339
   XY=              0.3773   XZ=             -0.0000   YZ=              0.0000

  Exact polarizability:      60.760      -0.616      50.617      -0.000      -0.000      47.946
 Approx polarizability:      53.991      -0.197      53.928       0.000      -0.000      53.325

 1\1\GINC-G2-NODE38\SP\RwB97XD\Aug-CC-pVTZ\C4H10\LIUCHW\03-Feb-2020\0\\
 #p wB97XD/aug-cc-pvtz NoSymm MaxDisk=100GB Polar\\Polar\\0,1\C,0,0.562
 827,0.515647,-0.000452\C,0,-0.562827,-0.515646,-0.000427\C,0,1.950214,
 -0.120532,0.000394\C,0,-1.950215,0.120531,0.000409\H,0,0.454428,1.1654
 02,0.877153\H,0,0.455082,1.164503,-0.878803\H,0,-0.45509,-1.164536,-0.
 878753\H,0,-0.454419,-1.165366,0.877203\H,0,2.08967,-0.749317,0.885279
 \H,0,2.089632,-0.751709,-0.8828\H,0,2.738891,0.637532,-0.000669\H,0,-2
 .08966,0.749356,0.885267\H,0,-2.738889,-0.637536,-0.00061\H,0,-2.08964

 Normal termination of Gaussian 16 at Mon Feb  3 23:28:23 2020.
