 Gaussian 16, Revision C.01,
 Gaussian 16:  ES64L-G16RevC.01  3-Jul-2019

 ------------------------------------------------
 #p wB97XD/aug-cc-pvtz NoSymm MaxDisk=100GB Polar
 ------------------------------------------------

 -----
 Polar
 -----
 Symbolic Z-matrix:
 Charge =  0 Multiplicity = 1

                          Input orientation:
 ---------------------------------------------------------------------
 Center     Atomic      Atomic             Coordinates (Angstroms)
 Number     Number       Type             X           Y           Z
 ---------------------------------------------------------------------
      1         16           0        0.000011    0.188167   -0.000001
      2          8           0       -0.000036    0.919487    1.279720
      3          8           0       -0.000002    0.919519   -1.279703
      4          6           0       -1.415177   -0.916091   -0.000033
      5          6           0        1.415221   -0.916126    0.000005
      6          6           0       -2.701272   -0.097166   -0.000020
      7          6           0        2.701250   -0.097145    0.000035
      8          1           0       -1.333061   -1.543375   -0.892606
      9          1           0       -1.333069   -1.543417    0.892511
     10          1           0        1.333057   -1.543421    0.892565
     11          1           0        1.333085   -1.543398   -0.892574
     12          1           0       -3.563193   -0.768133   -0.000052
     13          1           0       -2.748019    0.536509    0.887502
     14          1           0       -2.748000    0.536567   -0.887502
     15          1           0        3.563238   -0.768025    0.000021
     16          1           0        2.747981    0.536592   -0.887451
     17          1           0        2.747971    0.536546    0.887553
 ---------------------------------------------------------------------

 SCF Done:  E(RwB97XD) =  -707.100429149     A.U. after   13 cycles

 Alpha  occ. eigenvalues --  -89.24440 -19.23714 -19.23713 -10.33359 -10.33358
 Alpha  occ. eigenvalues --  -10.29663 -10.29663  -8.22818  -6.17641  -6.17633
 Alpha  occ. eigenvalues --   -6.17619  -1.19316  -1.08887  -0.91906  -0.89746
 Alpha  occ. eigenvalues --   -0.79828  -0.73800  -0.67563  -0.61027  -0.58577
 Alpha  occ. eigenvalues --   -0.56526  -0.55698  -0.52097  -0.51994  -0.48297
 Alpha  occ. eigenvalues --   -0.47810  -0.47292  -0.46325  -0.45617  -0.40499
 Alpha  occ. eigenvalues --   -0.40061  -0.38098  -0.36832
 Alpha virt. eigenvalues --    0.02383   0.03187   0.04046   0.04275   0.05524
 Alpha virt. eigenvalues --    0.05560   0.05713   0.06451   0.07638   0.08284
 Alpha virt. eigenvalues --    0.09107   0.10357   0.10992   0.11170   0.11367

 Mulliken charges:
               1
     1  S    2.353536
     2  O   -1.011647
     3  O   -1.011647
     4  C   -0.554437
     5  C   -0.554382
     6  C   -0.893622
     7  C   -0.893630
     8  H    0.246567
     9  H    0.246569
    10  H    0.246557
    11  H    0.246557
    12  H    0.236581
    13  H    0.276606
    14  H    0.276605
    15  H    0.236578
    16  H    0.276606
    17  H    0.276604
 Sum of Mulliken charges =  -0.00000

 Dipole moment (field-independent basis, Debye):
    X=              0.0002    Y=             -4.5132    Z=             -0.0001  Tot=              4.5132
 Quadrupole moment (field-independent basis, Debye-Ang):
   XX=            -42.4166   YY=            -51.5313   ZZ=            -56.2078
   XY=              0.0001   XZ=              0.0002   YZ=              0.0001

  Exact polarizability:      92.828      -0.000      71.122       0.000       0.000      69.766
 Approx polarizability:      84.572      -0.001      82.207      -0.000      -0.000      86.930

 Normal termination of Gaussian 16 at Mon Feb 10 12:58:10 2020.
