 Gaussian 16, Revision C.01,
 Gaussian 16:  ES64L-G16RevC.01  3-Jul-2019

 ------------------------------------------------
 #p wB97XD/aug-cc-pvtz NoSymm MaxDisk=100GB Polar
 ------------------------------------------------

 -----
 Polar
 -----
 Symbolic Z-matrix:
 Charge =  0 Multiplicity = 1

                          Input orientation:
 ---------------------------------------------------------------------
 Center     Atomic      Atomic             Coordinates (Angstroms)
 Number     Number       Type             X           Y           Z
 ---------------------------------------------------------------------
      1         16           0       -0.665510   -0.122288   -0.778646
      2         16           0        0.949079   -1.092495    0.045908
      3          6           0       -1.813876   -0.030482    0.634585
      4          6           0        1.910942    0.279719    0.763778
      5          6           0       -3.105524    0.638345    0.179838
      6          6           0        2.527055    1.207764   -0.271027
      7          1           0       -2.003698   -1.043351    0.997674
      8          1           0       -1.347999    0.541967    1.441509
      9          1           0        1.275164    0.831249    1.462804
     10          1           0        2.688271   -0.218373    1.354226
     11          1           0       -2.920120    1.653515   -0.180429
     12          1           0       -3.581036    0.069819   -0.623366
     13          1           0       -3.806623    0.697024    1.017044
     14          1           0        3.194450    0.655430   -0.936635
     15          1           0        1.750309    1.680870   -0.876317
     16          1           0        3.102600    1.996299    0.224251
 ---------------------------------------------------------------------

 SCF Done:  E(RwB97XD) =  -954.883042400     A.U. after   13 cycles

 Alpha  occ. eigenvalues --  -89.06488 -89.06486 -10.31905 -10.31806 -10.28884
 Alpha  occ. eigenvalues --  -10.28037  -8.07214  -8.07203  -6.02257  -6.02232
 Alpha  occ. eigenvalues --   -6.01825  -6.01813  -6.01201  -6.01194  -0.92879
 Alpha  occ. eigenvalues --   -0.88962  -0.83071  -0.76151  -0.70933  -0.66235
 Alpha  occ. eigenvalues --   -0.55956  -0.55082  -0.53001  -0.51653  -0.48132
 Alpha  occ. eigenvalues --   -0.47639  -0.45306  -0.44762  -0.43897  -0.41824
 Alpha  occ. eigenvalues --   -0.39381  -0.31879  -0.31263
 Alpha virt. eigenvalues --    0.02964   0.03393   0.04035   0.04484   0.05200
 Alpha virt. eigenvalues --    0.05325   0.05649   0.05896   0.06641   0.07458
 Alpha virt. eigenvalues --    0.08534   0.08732   0.09512   0.10175   0.10825

 Mulliken charges:
               1
     1  S   -0.134802
     2  S   -0.236106
     3  C   -0.249200
     4  C   -0.227154
     5  C   -0.901514
     6  C   -0.886098
     7  H    0.251648
     8  H    0.267304
     9  H    0.225315
    10  H    0.242009
    11  H    0.287624
    12  H    0.284727
    13  H    0.235524
    14  H    0.278373
    15  H    0.316381
    16  H    0.245969
 Sum of Mulliken charges =  -0.00000

 Dipole moment (field-independent basis, Debye):
    X=             -0.2942    Y=              1.3718    Z=              1.7267  Tot=              2.2248
 Quadrupole moment (field-independent basis, Debye-Ang):
   XX=            -47.0747   YY=            -55.0821   ZZ=            -54.1047
   XY=              0.8482   XZ=              0.0640   YZ=              0.1795

  Exact polarizability:     119.886      -2.186      84.993       2.351      -0.545      82.372
 Approx polarizability:     117.082      -5.354      98.416       5.265      -0.898      98.321

 Normal termination of Gaussian 16 at Mon Feb 10 12:45:40 2020.
