 Gaussian 16, Revision C.01,
 Gaussian 16:  ES64L-G16RevC.01  3-Jul-2019

 ------------------------------------------------
 #p wB97XD/aug-cc-pvtz NoSymm MaxDisk=100GB Polar
 ------------------------------------------------

 -----
 Polar
 -----
 Symbolic Z-matrix:
 Charge = -1 Multiplicity = 1

                          Input orientation:
 ---------------------------------------------------------------------
 Center     Atomic      Atomic             Coordinates (Angstroms)
 Number     Number       Type             X           Y           Z
 ---------------------------------------------------------------------
      1          8           0        1.147612   -0.208948    0.000001
      2          8           0       -1.147610   -0.208949    0.000001
      3          6           0       -0.000002    0.314414   -0.000002
      4          1           0        0.000002    1.456692    0.000004
 ---------------------------------------------------------------------

 SCF Done:  E(RwB97XD) =  -189.216888058     A.U. after   12 cycles

 Alpha  occ. eigenvalues --  -18.99259 -18.99258 -10.16854  -0.91204  -0.83104
 Alpha  occ. eigenvalues --   -0.42878  -0.32167  -0.28670  -0.26997  -0.13255
 Alpha  occ. eigenvalues --   -0.12424  -0.11492
 Alpha virt. eigenvalues --    0.14994   0.21669   0.21839   0.21868   0.27748
 Alpha virt. eigenvalues --    0.31684   0.31751   0.32540   0.33601   0.36565
 Alpha virt. eigenvalues --    0.38950   0.38972   0.39470   0.43802   0.45192

 Mulliken charges:
               1
     1  O   -0.656286
     2  O   -0.656281
     3  C   -0.003565
     4  H    0.316133
 Sum of Mulliken charges =  -1.00000

 Dipole moment (field-independent basis, Debye):
    X=             -0.0000    Y=              1.4589    Z=             -0.0000  Tot=              1.4589
 Quadrupole moment (field-independent basis, Debye-Ang):
   XX=            -29.5293   YY=            -21.0527   ZZ=            -19.2251
   XY=              0.0000   XZ=              0.0000   YZ=              0.0000

  Exact polarizability:      40.350      -0.000      37.065       0.000       0.000      23.714
 Approx polarizability:      40.111       0.000      32.148       0.000      -0.000      22.855

 Normal termination of Gaussian 16 at Mon Feb 10 12:19:21 2020.
