 Gaussian 16, Revision C.01,
 Gaussian 16:  ES64L-G16RevC.01  3-Jul-2019

 ------------------------------------------------
 #p wB97XD/aug-cc-pvtz NoSymm MaxDisk=100GB Polar
 ------------------------------------------------

 -----
 Polar
 -----
 Symbolic Z-matrix:
 Charge =  0 Multiplicity = 1

                          Input orientation:
 ---------------------------------------------------------------------
 Center     Atomic      Atomic             Coordinates (Angstroms)
 Number     Number       Type             X           Y           Z
 ---------------------------------------------------------------------
      1         17           0       -1.765474   -0.310094   -0.000014
      2          8           0        0.119148    1.518211    0.000014
      3          6           0        0.946929   -0.764492    0.000041
      4          6           0        2.365494   -0.212318   -0.000034
      5          6           0       -0.082061    0.333755    0.000008
      6          1           0        0.752855   -1.395668    0.874403
      7          1           0        0.752805   -1.395799   -0.874212
      8          1           0        2.543197    0.404806   -0.882789
      9          1           0        2.543249    0.404898    0.882645
     10          1           0        3.085595   -1.033996   -0.000014
 ---------------------------------------------------------------------

 SCF Done:  E(RwB97XD) =  -652.793020773     A.U. after   13 cycles

 Alpha  occ. eigenvalues -- -101.73620 -19.28695 -10.44863 -10.32840 -10.29643
 Alpha  occ. eigenvalues --   -9.59631  -7.34326  -7.33612  -7.33501  -1.19238
 Alpha  occ. eigenvalues --   -0.95730  -0.90146  -0.77202  -0.64900  -0.59315
 Alpha  occ. eigenvalues --   -0.58484  -0.56083  -0.50828  -0.49223  -0.47463
 Alpha  occ. eigenvalues --   -0.45504  -0.41206  -0.40780  -0.38266
 Alpha virt. eigenvalues --    0.02456   0.02706   0.04278   0.04447   0.04880
 Alpha virt. eigenvalues --    0.06654   0.07331   0.08582   0.09696   0.10161
 Alpha virt. eigenvalues --    0.10787   0.11293   0.12118   0.13196   0.13237

 Mulliken charges:
               1
     1  Cl  -0.235182
     2  O   -0.601796
     3  C   -0.268421
     4  C   -0.810718
     5  C    0.551965
     6  H    0.295359
     7  H    0.295359
     8  H    0.265495
     9  H    0.265497
    10  H    0.242441
 Sum of Mulliken charges =  -0.00000

 Dipole moment (field-independent basis, Debye):
    X=              1.9361    Y=             -2.2188    Z=              0.0000  Tot=              2.9447
 Quadrupole moment (field-independent basis, Debye-Ang):
   XX=            -36.5008   YY=            -39.8046   ZZ=            -35.7524
   XY=             -1.1495   XZ=              0.0000   YZ=             -0.0001

  Exact polarizability:      70.186       3.754      55.261       0.000      -0.000      43.323
 Approx polarizability:      68.363       7.457      65.948       0.000      -0.000      50.471

 Normal termination of Gaussian 16 at Mon Feb 10 12:27:40 2020.
