 Gaussian 16, Revision C.01,
 Gaussian 16:  ES64L-G16RevC.01  3-Jul-2019

 ------------------------------------------------
 #p wB97XD/aug-cc-pvtz NoSymm MaxDisk=100GB Polar
 ------------------------------------------------

 -----
 Polar
 -----
 Symbolic Z-matrix:
 Charge =  0 Multiplicity = 1

                          Input orientation:
 ---------------------------------------------------------------------
 Center     Atomic      Atomic             Coordinates (Angstroms)
 Number     Number       Type             X           Y           Z
 ---------------------------------------------------------------------
      1          9           0        0.745772    1.243903    0.099358
      2          8           0        1.575060   -0.789345   -0.305512
      3          6           0       -0.719844   -0.558524    0.498626
      4          6           0       -1.826948    0.073818   -0.349374
      5          6           0        0.645059   -0.124557    0.056613
      6          1           0       -0.836638   -0.260854    1.546368
      7          1           0       -0.745793   -1.648669    0.448762
      8          1           0       -1.716063   -0.200538   -1.401446
      9          1           0       -2.803902   -0.276105   -0.008810
     10          1           0       -1.799636    1.161373   -0.270186
 ---------------------------------------------------------------------

 SCF Done:  E(RwB97XD) =  -292.434865411     A.U. after   12 cycles

 Alpha  occ. eigenvalues --  -24.83592 -19.27563 -10.46143 -10.32598 -10.30305
 Alpha  occ. eigenvalues --   -1.34539  -1.17438  -0.91303  -0.77982  -0.70149
 Alpha  occ. eigenvalues --   -0.61580  -0.59760  -0.58713  -0.55063  -0.51087
 Alpha  occ. eigenvalues --   -0.49669  -0.47639  -0.46192  -0.45602  -0.39678
 Alpha virt. eigenvalues --    0.02501   0.04026   0.04306   0.04807   0.05117
 Alpha virt. eigenvalues --    0.06509   0.08079   0.09745   0.10012   0.10382
 Alpha virt. eigenvalues --    0.11564   0.12118   0.13317   0.13418   0.13907

 Mulliken charges:
               1
     1  F   -0.346959
     2  O   -0.631527
     3  C   -0.156123
     4  C   -0.858907
     5  C    0.728732
     6  H    0.225690
     7  H    0.246356
     8  H    0.268253
     9  H    0.245926
    10  H    0.278559
 Sum of Mulliken charges =  -0.00000

 Dipole moment (field-independent basis, Debye):
    X=             -3.0885    Y=             -0.2858    Z=              0.8708  Tot=              3.2216
 Quadrupole moment (field-independent basis, Debye-Ang):
   XX=            -31.8994   YY=            -31.0375   ZZ=            -27.8716
   XY=              1.5678   XZ=              0.8171   YZ=             -0.7250

  Exact polarizability:      47.887      -2.583      41.477      -1.337       0.273      36.252
 Approx polarizability:      46.590      -4.020      46.219      -2.530       1.692      39.630

 Normal termination of Gaussian 16 at Mon Feb 10 12:26:22 2020.
