 Gaussian 16, Revision C.01,
 Gaussian 16:  ES64L-G16RevC.01  3-Jul-2019

 ------------------------------------------------
 #p wB97XD/aug-cc-pvtz NoSymm MaxDisk=100GB Polar
 ------------------------------------------------

 -----
 Polar
 -----
 Symbolic Z-matrix:
 Charge =  0 Multiplicity = 1

                          Input orientation:
 ---------------------------------------------------------------------
 Center     Atomic      Atomic             Coordinates (Angstroms)
 Number     Number       Type             X           Y           Z
 ---------------------------------------------------------------------
      1         35           0       -1.383661   -0.147148   -0.000122
      2          8           0        0.823441    1.592582    0.000204
      3          6           0        1.459091   -0.760819    0.000770
      4          6           0        2.926493   -0.352698   -0.000648
      5          6           0        0.540666    0.430460    0.000243
      6          1           0        1.196450   -1.365387    0.875912
      7          1           0        1.195215   -1.367568   -0.872433
      8          1           0        3.165742    0.241372   -0.884864
      9          1           0        3.166930    0.243212    0.881995
     10          1           0        3.558774   -1.243765   -0.000166
 ---------------------------------------------------------------------

 SCF Done:  E(RwB97XD) =  -2766.83454213     A.U. after   13 cycles

 Alpha  occ. eigenvalues -- -483.13703 -62.68411 -56.47505 -56.47228 -56.47190
 Alpha  occ. eigenvalues --  -19.29719 -10.44892 -10.33270 -10.29994  -8.81994
 Alpha  occ. eigenvalues --   -6.63952  -6.63035  -6.62919  -2.74432  -2.74195
 Alpha  occ. eigenvalues --   -2.74107  -2.73363  -2.73360  -1.19972  -0.92300
 Alpha  occ. eigenvalues --   -0.87530  -0.77331  -0.64788  -0.58742  -0.58636
 Alpha  occ. eigenvalues --   -0.55754  -0.50937  -0.49085  -0.47716  -0.45894
 Alpha  occ. eigenvalues --   -0.38027  -0.37965  -0.37047
 Alpha virt. eigenvalues --    0.02071   0.02623   0.04082   0.04326   0.04378
 Alpha virt. eigenvalues --    0.05207   0.06631   0.07614   0.09022   0.10004
 Alpha virt. eigenvalues --    0.10890   0.11115   0.11734   0.12591   0.12896

 Mulliken charges:
               1
     1  Br  -0.149642
     2  O   -0.615339
     3  C   -0.227117
     4  C   -0.801616
     5  C    0.401278
     6  H    0.307860
     7  H    0.307873
     8  H    0.268013
     9  H    0.268063
    10  H    0.240627
 Sum of Mulliken charges =  -0.00000

 Dipole moment (field-independent basis, Debye):
    X=              2.1397    Y=             -2.2122    Z=              0.0009  Tot=              3.0777
 Quadrupole moment (field-independent basis, Debye-Ang):
   XX=            -40.1182   YY=            -45.5997   ZZ=            -41.7882
   XY=             -2.5928   XZ=              0.0014   YZ=             -0.0007

  Exact polarizability:      85.880       4.081      61.087       0.002      -0.002      49.612
 Approx polarizability:      85.193       9.893      73.081       0.004      -0.002      57.552

 Normal termination of Gaussian 16 at Mon Feb 10 12:30:30 2020.
