 Gaussian 16, Revision C.01,
 Gaussian 16:  ES64L-G16RevC.01  3-Jul-2019

 ------------------------------------------------
 #p wB97XD/aug-cc-pvtz NoSymm MaxDisk=100GB Polar
 ------------------------------------------------

 -----
 Polar
 -----
 Symbolic Z-matrix:
 Charge =  0 Multiplicity = 1

                          Input orientation:
 ---------------------------------------------------------------------
 Center     Atomic      Atomic             Coordinates (Angstroms)
 Number     Number       Type             X           Y           Z
 ---------------------------------------------------------------------
      1          8           0        1.084812   -0.432750   -0.000038
      2          8           0       -1.084813   -0.432750   -0.000036
      3          8           0        0.000000    1.581320    0.000021
      4          6           0        2.340451    0.290380    0.000000
      5          6           0       -2.340449    0.290379    0.000004
      6          6           0        3.433032   -0.753413    0.000032
      7          6           0       -3.433033   -0.753412    0.000029
      8          6           0        0.000001    0.362689   -0.000034
      9          1           0        2.379991    0.931924   -0.884359
     10          1           0        2.379938    0.931925    0.884360
     11          1           0       -2.379940    0.931920    0.884367
     12          1           0       -2.379989    0.931929   -0.884351
     13          1           0        4.411764   -0.265494    0.000057
     14          1           0        3.358286   -1.385750    0.886944
     15          1           0        3.358334   -1.385754   -0.886881
     16          1           0       -4.411763   -0.265490    0.000054
     17          1           0       -3.358334   -1.385751   -0.886886
     18          1           0       -3.358292   -1.385753    0.886938
 ---------------------------------------------------------------------

 SCF Done:  E(RwB97XD) =  -422.275111230     A.U. after   12 cycles

 Alpha  occ. eigenvalues --  -19.30274 -19.30273 -19.23929 -10.46008 -10.34704
 Alpha  occ. eigenvalues --  -10.34704 -10.28502 -10.28502  -1.24223  -1.15623
 Alpha  occ. eigenvalues --   -1.11767  -0.89213  -0.86276  -0.76136  -0.71575
 Alpha  occ. eigenvalues --   -0.67034  -0.63953  -0.60562  -0.57716  -0.57204
 Alpha  occ. eigenvalues --   -0.52224  -0.51621  -0.50698  -0.48557  -0.47194
 Alpha  occ. eigenvalues --   -0.46654  -0.45029  -0.44278  -0.44270  -0.39592
 Alpha  occ. eigenvalues --   -0.38761  -0.37763
 Alpha virt. eigenvalues --    0.03144   0.03351   0.04215   0.04334   0.05152
 Alpha virt. eigenvalues --    0.05215   0.05424   0.06590   0.06810   0.07959
 Alpha virt. eigenvalues --    0.09706   0.10011   0.10705   0.11009   0.11566

 Mulliken charges:
               1
     1  O   -0.263478
     2  O   -0.263478
     3  O   -0.712825
     4  C   -0.228275
     5  C   -0.228274
     6  C   -0.878766
     7  C   -0.878766
     8  C    0.825880
     9  H    0.286325
    10  H    0.286334
    11  H    0.286333
    12  H    0.286326
    13  H    0.271950
    14  H    0.234691
    15  H    0.234690
    16  H    0.271950
    17  H    0.234691
    18  H    0.234690
 Sum of Mulliken charges =  -0.00000

 Dipole moment (field-independent basis, Debye):
    X=              0.0000    Y=             -0.6479    Z=              0.0000  Tot=              0.6479
 Quadrupole moment (field-independent basis, Debye-Ang):
   XX=            -36.2359   YY=            -54.4982   ZZ=            -46.9749
   XY=             -0.0000   XZ=             -0.0000   YZ=             -0.0002

  Exact polarizability:      96.186       0.000      71.547      -0.000       0.000      60.039
 Approx polarizability:      81.397       0.000      81.634      -0.000       0.000      67.952

 1\1\GINC-NODE142\SP\RwB97XD\Aug-CC-pVTZ\C5H10O3\LIUCHW\25-Apr-2011\0\\
 #p wB97XD/aug-cc-pvtz NoSymm MaxDisk=100GB Polar\\Polar\\0,1\O,0,1.084
 812,-0.43275,-0.000038\O,0,-1.084813,-0.43275,-0.000036\O,0,0.,1.58132
 ,0.000021\C,0,2.340451,0.29038,0.\C,0,-2.340449,0.290379,0.000004\C,0,
 3.433032,-0.753413,0.000032\C,0,-3.433033,-0.753412,0.000029\C,0,0.000
 001,0.362689,-0.000034\H,0,2.379991,0.931924,-0.884359\H,0,2.379938,0.
 931925,0.88436\H,0,-2.37994,0.93192,0.884367\H,0,-2.379989,0.931929,-0
 .884351\H,0,4.411764,-0.265494,0.000057\H,0,3.358286,-1.38575,0.886944

 Normal termination of Gaussian 16 at Mon Apr 25 20:37:08 2011.
