 Gaussian 16, Revision C.01,
 Gaussian 16:  ES64L-G16RevC.01  3-Jul-2019

 ------------------------------------------------
 #p wB97XD/aug-cc-pvtz NoSymm MaxDisk=100GB Polar
 ------------------------------------------------

 -----
 Polar
 -----
 Symbolic Z-matrix:
 Charge =  0 Multiplicity = 1

                          Input orientation:
 ---------------------------------------------------------------------
 Center     Atomic      Atomic             Coordinates (Angstroms)
 Number     Number       Type             X           Y           Z
 ---------------------------------------------------------------------
      1          8           0        0.179481   -0.489803    0.000035
      2          8           0       -1.946453   -0.950549    0.000096
      3          8           0       -1.313582    1.242543   -0.000127
      4          6           0        1.256447    0.482005   -0.000054
      5          6           0        2.543592   -0.308861    0.000060
      6          6           0       -1.043193    0.055241   -0.000024
      7          1           0        1.157885    1.115971   -0.884897
      8          1           0        1.157852    1.116175    0.884638
      9          1           0        3.397020    0.374791   -0.000003
     10          1           0        2.604077   -0.942436    0.887128
     11          1           0        2.604109   -0.942642   -0.886857
     12          1           0       -2.817592   -0.509707    0.000063
 ---------------------------------------------------------------------

 SCF Done:  E(RwB97XD) =  -343.655163662     A.U. after   13 cycles

 Alpha  occ. eigenvalues --  -19.31353 -19.31232 -19.24724 -10.47194 -10.35327
 Alpha  occ. eigenvalues --  -10.28939  -1.25239  -1.16454  -1.12552  -0.88544
 Alpha  occ. eigenvalues --   -0.76766  -0.69665  -0.64161  -0.60415  -0.59313
 Alpha  occ. eigenvalues --   -0.54508  -0.53592  -0.50434  -0.48504  -0.46714
 Alpha  occ. eigenvalues --   -0.45284  -0.42008  -0.40104  -0.38581
 Alpha virt. eigenvalues --    0.03019   0.03516   0.04514   0.04533   0.05732
 Alpha virt. eigenvalues --    0.06938   0.09179   0.09553   0.09649   0.10297
 Alpha virt. eigenvalues --    0.11337   0.12021   0.12227   0.13353   0.13430

 Mulliken charges:
               1
     1  O   -0.246973
     2  O   -0.356514
     3  O   -0.631559
     4  C   -0.124276
     5  C   -0.831121
     6  C    0.605540
     7  H    0.289714
     8  H    0.289716
     9  H    0.268668
    10  H    0.254241
    11  H    0.254240
    12  H    0.228324
 Sum of Mulliken charges =  -0.00000

 Dipole moment (field-independent basis, Debye):
    X=              0.9504    Y=             -0.2925    Z=              0.0000  Tot=              0.9944
 Quadrupole moment (field-independent basis, Debye-Ang):
   XX=            -27.3036   YY=            -40.9703   ZZ=            -34.6078
   XY=              3.0688   XZ=             -0.0003   YZ=              0.0006

  Exact polarizability:      62.811      -0.309      50.239       0.000      -0.001      39.825
 Approx polarizability:      56.247      -0.704      57.533       0.000      -0.001      44.117

 Normal termination of Gaussian 16 at Mon Feb 10 12:40:37 2020.
