 Gaussian 16, Revision C.01,
 Gaussian 16:  ES64L-G16RevC.01  3-Jul-2019

 ------------------------------------------------
 #p wB97XD/aug-cc-pvtz NoSymm MaxDisk=100GB Polar
 ------------------------------------------------

 -----
 Polar
 -----
 Symbolic Z-matrix:
 Charge =  0 Multiplicity = 1

                          Input orientation:
 ---------------------------------------------------------------------
 Center     Atomic      Atomic             Coordinates (Angstroms)
 Number     Number       Type             X           Y           Z
 ---------------------------------------------------------------------
      1          8           0        1.062021    0.567939   -0.507507
      2          8           0       -1.061973    0.567899    0.507452
      3          6           0        1.708831   -0.205471    0.508844
      4          6           0       -1.708677   -0.205772   -0.508789
      5          6           0       -0.000055    1.337460   -0.000067
      6          6           0        2.872376   -0.921430   -0.141640
      7          6           0       -2.872518   -0.921234    0.141694
      8          1           0        2.053752    0.462890    1.312205
      9          1           0        0.999283   -0.915176    0.949222
     10          1           0       -2.053240    0.462365   -1.312483
     11          1           0       -0.999144   -0.915775   -0.948697
     12          1           0        0.329419    1.961592    0.840702
     13          1           0       -0.329538    1.961519   -0.840898
     14          1           0        3.406445   -1.529919    0.593818
     15          1           0        2.513459   -1.574339   -0.940386
     16          1           0        3.568829   -0.198925   -0.572341
     17          1           0       -3.406446   -1.529990   -0.593645
     18          1           0       -2.513936   -1.573827    0.940848
     19          1           0       -3.569003   -0.198434    0.571848
 ---------------------------------------------------------------------

 SCF Done:  E(RwB97XD) =  -348.214419827     A.U. after   11 cycles

 Alpha  occ. eigenvalues --  -19.25992 -19.25991 -10.37541 -10.33021 -10.33021
 Alpha  occ. eigenvalues --  -10.27475 -10.27475  -1.16959  -1.10896  -0.87009
 Alpha  occ. eigenvalues --   -0.84984  -0.75917  -0.71932  -0.68466  -0.60055
 Alpha  occ. eigenvalues --   -0.59369  -0.57843  -0.54304  -0.53761  -0.49605
 Alpha  occ. eigenvalues --   -0.47053  -0.46813  -0.45644  -0.44853  -0.43632
 Alpha  occ. eigenvalues --   -0.43281  -0.39163  -0.35834  -0.35754
 Alpha virt. eigenvalues --    0.03228   0.03769   0.04033   0.04210   0.05420
 Alpha virt. eigenvalues --    0.05452   0.05557   0.06125   0.06979   0.07914
 Alpha virt. eigenvalues --    0.08422   0.08651   0.10053   0.10719   0.11883

 Mulliken charges:
               1
     1  O   -0.578145
     2  O   -0.578090
     3  C   -0.265371
     4  C   -0.265294
     5  C   -0.208443
     6  C   -0.905163
     7  C   -0.905161
     8  H    0.323842
     9  H    0.306903
    10  H    0.323779
    11  H    0.306880
    12  H    0.428054
    13  H    0.428139
    14  H    0.276367
    15  H    0.274166
    16  H    0.243511
    17  H    0.276372
    18  H    0.274133
    19  H    0.243522
 Sum of Mulliken charges =  -0.00000

 Dipole moment (field-independent basis, Debye):
    X=             -0.0003    Y=             -0.3785    Z=              0.0001  Tot=              0.3785
 Quadrupole moment (field-independent basis, Debye-Ang):
   XX=            -43.1213   YY=            -42.7961   ZZ=            -46.1683
   XY=              0.0001   XZ=              3.9643   YZ=             -0.0001

  Exact polarizability:      84.981      -0.000      71.798       0.917       0.000      67.254
 Approx polarizability:      76.281      -0.000      74.885       0.646       0.000      75.607

 1\1\GINC-NODE144\SP\RwB97XD\Aug-CC-pVTZ\C5H12O2\LIUCHW\10-Feb-2020\0\\
 #p wB97XD/aug-cc-pvtz NoSymm MaxDisk=100GB Polar\\Polar\\0,1\O,0,1.062
 021,0.567939,-0.507507\O,0,-1.061973,0.567899,0.507452\C,0,1.708831,-0
 .205471,0.508844\C,0,-1.708677,-0.205772,-0.508789\C,0,-0.000055,1.337
 46,-0.000067\C,0,2.872376,-0.92143,-0.14164\C,0,-2.872518,-0.921234,0.
 141694\H,0,2.053752,0.46289,1.312205\H,0,0.999283,-0.915176,0.949222\H
 ,0,-2.05324,0.462365,-1.312483\H,0,-0.999144,-0.915775,-0.948697\H,0,0
 .329419,1.961592,0.840702\H,0,-0.329538,1.961519,-0.840898\H,0,3.40644

 Normal termination of Gaussian 16 at Mon Feb 10 13:37:42 2020.
