 Gaussian 16, Revision C.01,
 Gaussian 16:  ES64L-G16RevC.01  3-Jul-2019

 ------------------------------------------------
 #p wB97XD/aug-cc-pvtz NoSymm MaxDisk=100GB Polar
 ------------------------------------------------

 -----
 Polar
 -----
 Symbolic Z-matrix:
 Charge =  0 Multiplicity = 1

                          Input orientation:
 ---------------------------------------------------------------------
 Center     Atomic      Atomic             Coordinates (Angstroms)
 Number     Number       Type             X           Y           Z
 ---------------------------------------------------------------------
      1          7           0       -3.223575    0.000007    0.000152
      2          6           0       -0.603716   -0.000008   -0.000085
      3          6           0        0.091612   -1.218848   -0.000038
      4          6           0        0.091598    1.218841   -0.000038
      5          6           0        1.485376   -1.210510    0.000037
      6          6           0        1.485362    1.210519    0.000037
      7          6           0        2.183153    0.000008    0.000071
      8          6           0       -2.039948   -0.000014   -0.000181
      9          1           0       -0.461000   -2.154689   -0.000069
     10          1           0       -0.461024    2.154676   -0.000068
     11          1           0        2.028123   -2.152208    0.000064
     12          1           0        2.028100    2.152222    0.000065
     13          1           0        3.270210    0.000014    0.000130
 ---------------------------------------------------------------------

 SCF Done:  E(RwB97XD) =  -324.478872421     A.U. after   13 cycles

 Alpha  occ. eigenvalues --  -14.44702 -10.35069 -10.33822 -10.32805 -10.32804
 Alpha  occ. eigenvalues --  -10.32351 -10.32124 -10.32117  -1.00969  -0.98406
 Alpha  occ. eigenvalues --   -0.89153  -0.87767  -0.75573  -0.73174  -0.66431
 Alpha  occ. eigenvalues --   -0.60259  -0.57486  -0.55156  -0.53716  -0.50426
 Alpha  occ. eigenvalues --   -0.47632  -0.46200  -0.45272  -0.43920  -0.41763
 Alpha  occ. eigenvalues --   -0.36157  -0.34940
 Alpha virt. eigenvalues --   -0.00084   0.02317   0.02601   0.03228   0.03831
 Alpha virt. eigenvalues --    0.05100   0.05455   0.07420   0.08374   0.09057
 Alpha virt. eigenvalues --    0.09235   0.10283   0.10353   0.10474   0.10629

 Mulliken charges:
               1
     1  N   -0.801692
     2  C    1.633414
     3  C   -1.120880
     4  C   -1.120869
     5  C   -0.361605
     6  C   -0.361615
     7  C   -0.350089
     8  C    0.243759
     9  H    0.416743
    10  H    0.416737
    11  H    0.457216
    12  H    0.457217
    13  H    0.491663
 Sum of Mulliken charges =  -0.00000

 Dipole moment (field-independent basis, Debye):
    X=              4.7889    Y=             -0.0000    Z=             -0.0003  Tot=              4.7889
 Quadrupole moment (field-independent basis, Debye-Ang):
   XX=            -56.5116   YY=            -39.2826   ZZ=            -49.0236
   XY=              0.0000   XZ=              0.0015   YZ=              0.0000

  Exact polarizability:     123.956      -0.000      87.043      -0.000       0.000      51.232
 Approx polarizability:     137.266      -0.000     102.738      -0.003      -0.000      60.209

 Normal termination of Gaussian 16 at Mon Feb 10 13:05:49 2020.
