 Gaussian 16, Revision C.01,
 Gaussian 16:  ES64L-G16RevC.01  3-Jul-2019

 ------------------------------------------------
 #p wB97XD/aug-cc-pvtz NoSymm MaxDisk=100GB Polar
 ------------------------------------------------

 -----
 Polar
 -----
 Symbolic Z-matrix:
 Charge =  0 Multiplicity = 1

                          Input orientation:
 ---------------------------------------------------------------------
 Center     Atomic      Atomic             Coordinates (Angstroms)
 Number     Number       Type             X           Y           Z
 ---------------------------------------------------------------------
      1         15           0       -0.000014    0.000000   -0.124625
      2          1           0        0.593029    1.044363    0.623080
      3          1           0        0.608074   -1.035673    0.623083
      4          1           0       -1.200888   -0.008685    0.623217
 ---------------------------------------------------------------------

 SCF Done:  E(RwB97XD) =  -343.154241768     A.U. after   10 cycles

 Alpha  occ. eigenvalues --  -77.24209  -6.67002  -4.81736  -4.81736  -4.81307
 Alpha  occ. eigenvalues --   -0.74367  -0.47092  -0.47091  -0.35534
 Alpha virt. eigenvalues --    0.02978   0.05646   0.05646   0.07854   0.07854
 Alpha virt. eigenvalues --    0.08501   0.12202   0.13337   0.13337   0.17355
 Alpha virt. eigenvalues --    0.17428   0.17429   0.25979   0.25979   0.27091

 Mulliken charges:
               1
     1  P   -0.400201
     2  H    0.133377
     3  H    0.133375
     4  H    0.133449
 Sum of Mulliken charges =  -0.00000

 Dipole moment (field-independent basis, Debye):
    X=              0.0000    Y=             -0.0000    Z=              0.7103  Tot=              0.7103
 Quadrupole moment (field-independent basis, Debye-Ang):
   XX=            -14.6070   YY=            -14.6072   ZZ=            -17.0208
   XY=             -0.0000   XZ=             -0.0002   YZ=             -0.0000

  Exact polarizability:      30.189       0.000      30.187       0.003      -0.000      31.846
 Approx polarizability:      31.700      -0.000      31.700       0.000       0.000      30.645

 Normal termination of Gaussian 16 at Mon Feb 10 12:19:15 2020.
