 Gaussian 16, Revision C.01,
 Gaussian 16:  ES64L-G16RevC.01  3-Jul-2019

 ------------------------------------------------
 #p wB97XD/aug-cc-pvtz NoSymm MaxDisk=100GB Polar
 ------------------------------------------------

 -----
 Polar
 -----
 Symbolic Z-matrix:
 Charge = -1 Multiplicity = 1

                          Input orientation:
 ---------------------------------------------------------------------
 Center     Atomic      Atomic             Coordinates (Angstroms)
 Number     Number       Type             X           Y           Z
 ---------------------------------------------------------------------
      1          8           0       -1.741147   -0.639989   -0.122560
      2          8           0       -0.584759    1.326037    0.069786
      3          6           0        0.625966   -0.743387    0.164724
      4          6           0        1.880008    0.072907   -0.122164
      5          6           0       -0.703009    0.067167    0.010118
      6          1           0        0.658695   -1.128173    1.194643
      7          1           0        0.565779   -1.625690   -0.484110
      8          1           0        1.894662    0.397713   -1.167553
      9          1           0        1.866109    0.976840    0.488982
     10          1           0        2.804220   -0.489193    0.074159
 ---------------------------------------------------------------------

 SCF Done:  E(RwB97XD) =  -267.854155593     A.U. after   13 cycles

 Alpha  occ. eigenvalues --  -18.99453 -18.99239 -10.17740 -10.12120 -10.11179
 Alpha  occ. eigenvalues --   -0.91935  -0.83455  -0.69602  -0.56081  -0.40497
 Alpha  occ. eigenvalues --   -0.37482  -0.34935  -0.31545  -0.29177  -0.28839
 Alpha  occ. eigenvalues --   -0.26615  -0.24308  -0.13584  -0.12334  -0.12019
 Alpha virt. eigenvalues --    0.12202   0.13879   0.14236   0.14993   0.16263
 Alpha virt. eigenvalues --    0.19839   0.20948   0.22312   0.22501   0.23303
 Alpha virt. eigenvalues --    0.24616   0.24894   0.25237   0.26635   0.27050

 Mulliken charges:
               1
     1  O   -0.797712
     2  O   -0.776262
     3  C   -0.299840
     4  C   -0.946140
     5  C    0.508342
     6  H    0.226721
     7  H    0.241543
     8  H    0.273931
     9  H    0.300015
    10  H    0.269400
 Sum of Mulliken charges =  -1.00000

 Dipole moment (field-independent basis, Debye):
    X=              5.1921    Y=             -1.6707    Z=              0.2238  Tot=              5.4589
 Quadrupole moment (field-independent basis, Debye-Ang):
   XX=            -47.0845   YY=            -41.6481   ZZ=            -32.4839
   XY=             -1.0200   XZ=             -0.5779   YZ=             -0.4498

  Exact polarizability:      65.535       0.959      60.560       1.010      -0.232      45.370
 Approx polarizability:      58.544       3.303      62.907       1.240       0.511      48.714

 Normal termination of Gaussian 16 at Mon Feb 10 12:28:29 2020.
