 Gaussian 16, Revision C.01,
 Gaussian 16:  ES64L-G16RevC.01  3-Jul-2019

 ------------------------------------------------
 #p wB97XD/aug-cc-pvtz NoSymm MaxDisk=100GB Polar
 ------------------------------------------------

 -----
 Polar
 -----
 Symbolic Z-matrix:
 Charge =  0 Multiplicity = 1

                          Input orientation:
 ---------------------------------------------------------------------
 Center     Atomic      Atomic             Coordinates (Angstroms)
 Number     Number       Type             X           Y           Z
 ---------------------------------------------------------------------
      1          8           0       -1.394247   -0.691285    0.000071
      2          6           0        0.555145    0.737753    0.000099
      3          6           0        1.418832   -0.514560   -0.000066
      4          6           0       -0.921166    0.437828   -0.000101
      5          1           0        0.761942    1.371975    0.873306
      6          1           0        0.762178    1.372434   -0.872706
      7          1           0        1.211293   -1.125750   -0.880653
      8          1           0        1.211031   -1.126157    0.880173
      9          1           0        2.479634   -0.252861    0.000144
     10          1           0       -1.588962    1.324514   -0.000416
 ---------------------------------------------------------------------

 SCF Done:  E(RwB97XD) =  -193.155312591     A.U. after   12 cycles

 Alpha  occ. eigenvalues --  -19.25528 -10.38275 -10.30576 -10.28164  -1.14553
 Alpha  occ. eigenvalues --   -0.89025  -0.76846  -0.65526  -0.58231  -0.55952
 Alpha  occ. eigenvalues --   -0.52952  -0.46923  -0.46921  -0.45529  -0.43477
 Alpha  occ. eigenvalues --   -0.34566
 Alpha virt. eigenvalues --    0.02843   0.03854   0.03879   0.04284   0.04871
 Alpha virt. eigenvalues --    0.06150   0.06840   0.09322   0.10475   0.10732
 Alpha virt. eigenvalues --    0.11467   0.11640   0.12687   0.13487   0.13640

 Mulliken charges:
               1
     1  O   -0.696274
     2  C   -0.241904
     3  C   -0.800253
     4  C    0.047678
     5  H    0.260915
     6  H    0.260884
     7  H    0.267075
     8  H    0.267105
     9  H    0.239316
    10  H    0.395459
 Sum of Mulliken charges =  -0.00000

 Dipole moment (field-independent basis, Debye):
    X=              1.6618    Y=              2.3477    Z=             -0.0002  Tot=              2.8764
 Quadrupole moment (field-independent basis, Debye-Ang):
   XX=            -27.3686   YY=            -25.2987   ZZ=            -24.2869
   XY=             -2.7425   XZ=              0.0005   YZ=              0.0001

  Exact polarizability:      46.073       0.438      45.638       0.001      -0.001      34.294
 Approx polarizability:      43.640       3.553      49.873       0.000      -0.001      38.116

 Normal termination of Gaussian 16 at Mon Feb 10 12:27:15 2020.
