 Gaussian 16, Revision C.01,
 Gaussian 16:  ES64L-G16RevC.01  3-Jul-2019

 ------------------------------------------------
 #p wB97XD/aug-cc-pvtz NoSymm MaxDisk=100GB Polar
 ------------------------------------------------

 -----
 Polar
 -----
 Symbolic Z-matrix:
 Charge =  0 Multiplicity = 1

                          Input orientation:
 ---------------------------------------------------------------------
 Center     Atomic      Atomic             Coordinates (Angstroms)
 Number     Number       Type             X           Y           Z
 ---------------------------------------------------------------------
      1          8           0        0.396764    1.382756   -0.000781
      2          6           0       -0.678387   -0.765537   -0.002022
      3          6           0        0.523755    0.160976   -0.000736
      4          6           0       -2.005239   -0.020915    0.001668
      5          6           0        1.887769   -0.495684    0.001183
      6          1           0       -0.595807   -1.424069   -0.877213
      7          1           0       -0.593865   -1.429760    0.868646
      8          1           0       -2.841926   -0.724356    0.000161
      9          1           0       -2.088728    0.622450   -0.876324
     10          1           0       -2.087161    0.616678    0.884034
     11          1           0        2.001078   -1.141289   -0.875717
     12          1           0        2.661117    0.273132   -0.005417
     13          1           0        2.003786   -1.127874    0.887524
 ---------------------------------------------------------------------

 SCF Done:  E(RwB97XD) =  -232.482721860     A.U. after   12 cycles

 Alpha  occ. eigenvalues --  -19.24153 -10.38101 -10.29931 -10.29265 -10.27601
 Alpha  occ. eigenvalues --   -1.13677  -0.88986  -0.84023  -0.73940  -0.61951
 Alpha  occ. eigenvalues --   -0.56405  -0.56298  -0.53054  -0.51149  -0.49298
 Alpha  occ. eigenvalues --   -0.45047  -0.44680  -0.44483  -0.42785  -0.33594
 Alpha virt. eigenvalues --    0.02778   0.03668   0.03799   0.04732   0.05557
 Alpha virt. eigenvalues --    0.05888   0.06075   0.06462   0.07393   0.09278
 Alpha virt. eigenvalues --    0.10577   0.11161   0.11820   0.12214   0.12512

 Mulliken charges:
               1
     1  O   -0.811009
     2  C   -0.358898
     3  C    0.702007
     4  C   -0.912731
     5  C   -0.788736
     6  H    0.273322
     7  H    0.273132
     8  H    0.242121
     9  H    0.275980
    10  H    0.275362
    11  H    0.289016
    12  H    0.251107
    13  H    0.289327
 Sum of Mulliken charges =  -0.00000

 Dipole moment (field-independent basis, Debye):
    X=              0.2381    Y=             -3.0261    Z=              0.0010  Tot=              3.0354
 Quadrupole moment (field-independent basis, Debye-Ang):
   XX=            -29.8683   YY=            -35.4230   ZZ=            -30.5634
   XY=             -1.1997   XZ=              0.0049   YZ=              0.0013

  Exact polarizability:      61.231      -1.321      56.391       0.009       0.001      44.135
 Approx polarizability:      54.796      -1.133      63.959       0.011      -0.002      50.299

 Normal termination of Gaussian 16 at Mon Feb 10 12:37:25 2020.
