 Gaussian 16, Revision C.01,
 Gaussian 16:  ES64L-G16RevC.01  3-Jul-2019

 ------------------------------------------------
 #p wB97XD/aug-cc-pvtz NoSymm MaxDisk=100GB Polar
 ------------------------------------------------

 -----
 Polar
 -----
 Symbolic Z-matrix:
 Charge =  0 Multiplicity = 1

                          Input orientation:
 ---------------------------------------------------------------------
 Center     Atomic      Atomic             Coordinates (Angstroms)
 Number     Number       Type             X           Y           Z
 ---------------------------------------------------------------------
      1          8           0       -0.492445    1.363302    0.004845
      2          7           0       -1.750624   -0.531366   -0.007609
      3          6           0        0.672277   -0.763548    0.011790
      4          6           0        1.966114    0.037353   -0.009360
      5          6           0       -0.555802    0.134753    0.002198
      6          1           0        0.626089   -1.403288    0.902129
      7          1           0        0.617876   -1.437660   -0.852238
      8          1           0        2.830336   -0.632178    0.001309
      9          1           0        2.017366    0.661793   -0.902907
     10          1           0        2.022939    0.698096    0.857174
     11          1           0       -1.814327   -1.537684   -0.009108
     12          1           0       -2.601885    0.012723   -0.009626
 ---------------------------------------------------------------------

 SCF Done:  E(RwB97XD) =  -248.549755002     A.U. after   12 cycles

 Alpha  occ. eigenvalues --  -19.21670 -14.46048 -10.39383 -10.29998 -10.27394
 Alpha  occ. eigenvalues --   -1.13303  -1.00686  -0.87817  -0.75337  -0.67005
 Alpha  occ. eigenvalues --   -0.62601  -0.57335  -0.55816  -0.50523  -0.47887
 Alpha  occ. eigenvalues --   -0.45976  -0.44678  -0.42878  -0.35805  -0.34115
 Alpha virt. eigenvalues --    0.02280   0.03673   0.04347   0.04647   0.05974
 Alpha virt. eigenvalues --    0.06307   0.07014   0.09060   0.09885   0.10195
 Alpha virt. eigenvalues --    0.10573   0.10732   0.12182   0.12984   0.13470

 Mulliken charges:
               1
     1  O   -0.766359
     2  N   -0.209572
     3  C   -0.150077
     4  C   -0.890350
     5  C    0.585346
     6  H    0.257471
     7  H    0.256131
     8  H    0.229417
     9  H    0.274620
    10  H    0.276512
    11  H    0.074652
    12  H    0.062210
 Sum of Mulliken charges =  -0.00000

 Dipole moment (field-independent basis, Debye):
    X=             -0.8853    Y=             -3.7388    Z=             -0.0039  Tot=              3.8422
 Quadrupole moment (field-independent basis, Debye-Ang):
   XX=            -25.5187   YY=            -33.3237   ZZ=            -31.5266
   XY=              2.4711   XZ=              0.0355   YZ=             -0.0102

  Exact polarizability:      58.898       2.584      53.997       0.052      -0.006      40.507
 Approx polarizability:      53.827       3.105      60.906       0.072       0.028      45.091

 Normal termination of Gaussian 16 at Mon Feb 10 12:39:53 2020.
