 Gaussian 16, Revision C.01,
 Gaussian 16:  ES64L-G16RevC.01  3-Jul-2019

 ------------------------------------------------
 #p wB97XD/aug-cc-pvtz NoSymm MaxDisk=100GB Polar
 ------------------------------------------------

 -----
 Polar
 -----
 Symbolic Z-matrix:
 Charge =  0 Multiplicity = 1

                          Input orientation:
 ---------------------------------------------------------------------
 Center     Atomic      Atomic             Coordinates (Angstroms)
 Number     Number       Type             X           Y           Z
 ---------------------------------------------------------------------
      1          8           0       -1.405550   -1.003556   -0.000134
      2          7           0       -0.231913    1.004857    0.000067
      3          6           0        1.180446    0.618486   -0.000009
      4          6           0        1.444332   -0.880963    0.000014
      5          6           0       -1.347808    0.222547    0.000108
      6          1           0        1.652788    1.069210   -0.881344
      7          1           0        1.652885    1.069253    0.881252
      8          1           0        1.022149   -1.362947    0.880492
      9          1           0        1.022049   -1.362992   -0.880393
     10          1           0        2.528463   -1.029726   -0.000045
     11          1           0       -0.411347    2.001667    0.000061
     12          1           0       -2.261015    0.849559   -0.000098
 ---------------------------------------------------------------------

 SCF Done:  E(RwB97XD) =  -248.528132868     A.U. after   12 cycles

 Alpha  occ. eigenvalues --  -19.21712 -14.47312 -10.38948 -10.33452 -10.27622
 Alpha  occ. eigenvalues --   -1.13011  -1.03044  -0.86496  -0.75582  -0.66211
 Alpha  occ. eigenvalues --   -0.64200  -0.56594  -0.54905  -0.50676  -0.48100
 Alpha  occ. eigenvalues --   -0.46523  -0.46092  -0.44648  -0.34092  -0.33832
 Alpha virt. eigenvalues --    0.02302   0.03742   0.04269   0.04596   0.05995
 Alpha virt. eigenvalues --    0.06268   0.07165   0.08265   0.09577   0.10289
 Alpha virt. eigenvalues --    0.10412   0.11115   0.12125   0.12879   0.13383

 Mulliken charges:
               1
     1  O   -0.687650
     2  N   -0.076130
     3  C   -0.220798
     4  C   -0.719837
     5  C   -0.066178
     6  H    0.229989
     7  H    0.229990
     8  H    0.281879
     9  H    0.281870
    10  H    0.217262
    11  H    0.037584
    12  H    0.492019
 Sum of Mulliken charges =  -0.00000

 Dipole moment (field-independent basis, Debye):
    X=              1.7555    Y=              3.5834    Z=              0.0002  Tot=              3.9903
 Quadrupole moment (field-independent basis, Debye-Ang):
   XX=            -31.1790   YY=            -30.1187   ZZ=            -31.2994
   XY=             -4.3528   XZ=             -0.0004   YZ=             -0.0004

  Exact polarizability:      58.122       1.550      55.672       0.000       0.001      39.579
 Approx polarizability:      55.064       3.967      61.850       0.000       0.002      44.264

 Normal termination of Gaussian 16 at Mon Feb 10 12:40:09 2020.
