 Gaussian 16, Revision C.01,
 Gaussian 16:  ES64L-G16RevC.01  3-Jul-2019

 ------------------------------------------------
 #p wB97XD/aug-cc-pvtz NoSymm MaxDisk=100GB Polar
 ------------------------------------------------

 -----
 Polar
 -----
 Symbolic Z-matrix:
 Charge =  0 Multiplicity = 1

                          Input orientation:
 ---------------------------------------------------------------------
 Center     Atomic      Atomic             Coordinates (Angstroms)
 Number     Number       Type             X           Y           Z
 ---------------------------------------------------------------------
      1          8           0       -1.955298   -0.100166    0.000022
      2          7           0        0.349881   -0.020296   -0.000019
      3          6           0        0.409465    1.428444   -0.000005
      4          6           0        1.599752   -0.749529    0.000033
      5          6           0       -0.858084   -0.654260   -0.000064
      6          1           0        0.935420    1.789475   -0.890462
      7          1           0        0.935390    1.789459    0.890476
      8          1           0       -0.613296    1.803884   -0.000020
      9          1           0        2.191671   -0.505145   -0.889269
     10          1           0        1.395705   -1.822540   -0.000002
     11          1           0        2.191582   -0.505184    0.889404
     12          1           0       -0.750046   -1.754478    0.000047
 ---------------------------------------------------------------------

 SCF Done:  E(RwB97XD) =  -248.525873207     A.U. after   12 cycles

 Alpha  occ. eigenvalues --  -19.21813 -14.47866 -10.38555 -10.33410 -10.31899
 Alpha  occ. eigenvalues --   -1.13289  -1.04595  -0.83701  -0.80452  -0.66681
 Alpha  occ. eigenvalues --   -0.61039  -0.57541  -0.56049  -0.50144  -0.50042
 Alpha  occ. eigenvalues --   -0.49318  -0.47477  -0.46556  -0.34440  -0.32986
 Alpha virt. eigenvalues --    0.02516   0.03850   0.04134   0.04738   0.06283
 Alpha virt. eigenvalues --    0.06355   0.06747   0.07840   0.09013   0.10222
 Alpha virt. eigenvalues --    0.10711   0.11029   0.12188   0.12665   0.13124

 Mulliken charges:
               1
     1  O   -0.746714
     2  N    0.121581
     3  C   -0.909426
     4  C   -0.846563
     5  C   -0.030216
     6  H    0.284450
     7  H    0.284447
     8  H    0.368540
     9  H    0.300086
    10  H    0.335741
    11  H    0.300096
    12  H    0.537978
 Sum of Mulliken charges =  -0.00000

 Dipole moment (field-independent basis, Debye):
    X=              4.1811    Y=             -0.4564    Z=             -0.0000  Tot=              4.2060
 Quadrupole moment (field-independent basis, Debye-Ang):
   XX=            -37.4418   YY=            -27.5069   ZZ=            -31.0312
   XY=             -0.0413   XZ=              0.0002   YZ=             -0.0001

  Exact polarizability:      63.409       0.812      53.193       0.000      -0.000      39.628
 Approx polarizability:      65.893      -0.310      53.393      -0.000       0.000      43.869

 Normal termination of Gaussian 16 at Mon Feb 10 12:40:09 2020.
