 Gaussian 16, Revision C.01,
 Gaussian 16:  ES64L-G16RevC.01  3-Jul-2019

 ------------------------------------------------
 #p wB97XD/aug-cc-pvtz NoSymm MaxDisk=100GB Polar
 ------------------------------------------------

 -----
 Polar
 -----
 Symbolic Z-matrix:
 Charge =  0 Multiplicity = 1

                          Input orientation:
 ---------------------------------------------------------------------
 Center     Atomic      Atomic             Coordinates (Angstroms)
 Number     Number       Type             X           Y           Z
 ---------------------------------------------------------------------
      1          8           0       -1.489121    1.167966   -0.000521
      2          8           0       -1.489128   -1.167956   -0.000479
      3          6           0       -0.194451    0.695156   -0.000089
      4          6           0       -0.194437   -0.695145   -0.000061
      5          6           0       -2.327877   -0.000016    0.000500
      6          6           0        0.977292    1.430023   -0.000006
      7          6           0        0.977290   -1.430026    0.000064
      8          6           0        2.176897    0.698703    0.000189
      9          6           0        2.176899   -0.698709    0.000219
     10          1           0       -2.944671    0.000021    0.904633
     11          1           0       -2.946763   -0.000013   -0.902164
     12          1           0        0.961533    2.515607   -0.000072
     13          1           0        0.961520   -2.515609    0.000048
     14          1           0        3.122352    1.234242    0.000304
     15          1           0        3.122353   -1.234249    0.000363
 ---------------------------------------------------------------------

 SCF Done:  E(RwB97XD) =  -420.785873190     A.U. after   14 cycles

 Alpha  occ. eigenvalues --  -19.30203 -19.30202 -10.40924 -10.35446 -10.35383
 Alpha  occ. eigenvalues --  -10.29959 -10.29955 -10.29493 -10.29432  -1.22901
 Alpha  occ. eigenvalues --   -1.13903  -0.96352  -0.86084  -0.85547  -0.77355
 Alpha  occ. eigenvalues --   -0.72005  -0.71485  -0.61385  -0.61198  -0.61155
 Alpha  occ. eigenvalues --   -0.58975  -0.53497  -0.51980  -0.50316  -0.48876
 Alpha  occ. eigenvalues --   -0.46798  -0.46690  -0.45739  -0.43563  -0.40527
 Alpha  occ. eigenvalues --   -0.32939  -0.28753
 Alpha virt. eigenvalues --    0.03210   0.03488   0.03786   0.04722   0.04967
 Alpha virt. eigenvalues --    0.05279   0.05467   0.06741   0.08189   0.08222
 Alpha virt. eigenvalues --    0.09893   0.10500   0.11235   0.11272   0.11888

 Mulliken charges:
               1
     1  O   -0.661311
     2  O   -0.661315
     3  C    0.812954
     4  C    0.813012
     5  C   -0.133932
     6  C   -0.964992
     7  C   -0.965025
     8  C   -0.474178
     9  C   -0.474162
    10  H    0.252938
    11  H    0.252912
    12  H    0.492515
    13  H    0.492514
    14  H    0.609039
    15  H    0.609031
 Sum of Mulliken charges =  -0.00000

 Dipole moment (field-independent basis, Debye):
    X=             -0.3878    Y=             -0.0001    Z=              0.0017  Tot=              0.3878
 Quadrupole moment (field-independent basis, Debye-Ang):
   XX=            -44.0195   YY=            -50.8293   ZZ=            -53.8418
   XY=              0.0000   XZ=             -0.0027   YZ=             -0.0001

  Exact polarizability:     115.153      -0.000      90.996      -0.002      -0.001      55.053
 Approx polarizability:     121.935      -0.000     110.659       0.003      -0.001      64.624

 Normal termination of Gaussian 16 at Mon Feb 10 13:22:09 2020.
