 Gaussian 16, Revision C.01,
 Gaussian 16:  ES64L-G16RevC.01  3-Jul-2019

 ------------------------------------------------
 #p wB97XD/aug-cc-pvtz NoSymm MaxDisk=100GB Polar
 ------------------------------------------------

 -----
 Polar
 -----
 Symbolic Z-matrix:
 Charge =  0 Multiplicity = 1

                          Input orientation:
 ---------------------------------------------------------------------
 Center     Atomic      Atomic             Coordinates (Angstroms)
 Number     Number       Type             X           Y           Z
 ---------------------------------------------------------------------
      1          8           0       -0.370885    1.137483   -0.179289
      2          8           0       -0.370324   -1.137831    0.178644
      3          6           0        0.943735    0.729212    0.208123
      4          6           0        0.944294   -0.728672   -0.207902
      5          6           0       -1.205696   -0.000242    0.000248
      6          1           0        1.088178    0.831240    1.292021
      7          1           0        1.659384    1.359640   -0.323152
      8          1           0        1.089495   -0.830595   -1.291700
      9          1           0        1.660027   -1.358636    0.323818
     10          1           0       -1.830123    0.094830    0.896838
     11          1           0       -1.831289   -0.095485   -0.895482
 ---------------------------------------------------------------------

 SCF Done:  E(RwB97XD) =  -268.364255898     A.U. after   11 cycles

 Alpha  occ. eigenvalues --  -19.26794 -19.26790 -10.38101 -10.34179 -10.34154
 Alpha  occ. eigenvalues --   -1.19418  -1.09926  -0.87164  -0.73089  -0.72991
 Alpha  occ. eigenvalues --   -0.61562  -0.60492  -0.56054  -0.51313  -0.50535
 Alpha  occ. eigenvalues --   -0.50039  -0.43606  -0.43177  -0.36744  -0.34403
 Alpha virt. eigenvalues --    0.03176   0.04133   0.04280   0.04659   0.06162
 Alpha virt. eigenvalues --    0.06282   0.08751   0.08818   0.10414   0.11973
 Alpha virt. eigenvalues --    0.12173   0.12584   0.12965   0.13248   0.14238

 Mulliken charges:
               1
     1  O   -0.568032
     2  O   -0.567926
     3  C   -0.220249
     4  C   -0.220413
     5  C   -0.080791
     6  H    0.235402
     7  H    0.300222
     8  H    0.235332
     9  H    0.300165
    10  H    0.293162
    11  H    0.293129
 Sum of Mulliken charges =  -0.00000

 Dipole moment (field-independent basis, Debye):
    X=              1.1826    Y=              0.0013    Z=              0.0015  Tot=              1.1826
 Quadrupole moment (field-independent basis, Debye-Ang):
   XX=            -25.9718   YY=            -34.6094   ZZ=            -29.5092
   XY=              0.0022   XZ=             -0.0006   YZ=              1.2612

  Exact polarizability:      49.915       0.001      42.799      -0.001       0.282      40.392
 Approx polarizability:      50.059       0.001      45.596       0.000      -0.964      43.474

 Normal termination of Gaussian 16 at Mon Feb 10 12:46:55 2020.
