 Gaussian 16, Revision C.01,
 Gaussian 16:  ES64L-G16RevC.01  3-Jul-2019

 ------------------------------------------------
 #p wB97XD/aug-cc-pvtz NoSymm MaxDisk=100GB Polar
 ------------------------------------------------

 -----
 Polar
 -----
 Symbolic Z-matrix:
 Charge =  0 Multiplicity = 1

                          Input orientation:
 ---------------------------------------------------------------------
 Center     Atomic      Atomic             Coordinates (Angstroms)
 Number     Number       Type             X           Y           Z
 ---------------------------------------------------------------------
      1          7           0       -0.510927   -0.951843   -0.026934
      2          6           0        0.456827   -0.100602   -0.021138
      3          6           0        1.723814   -0.508453   -0.734229
      4          6           0        0.467065    1.277824    0.613828
      5          6           0        2.789426   -0.999179    0.251072
      6          6           0       -0.164031    2.321414   -0.316041
      7          6           0       -1.776362   -0.650113    0.631615
      8          6           0       -2.897457   -0.717931   -0.400586
      9          1           0        2.112947    0.341175   -1.310933
     10          1           0        1.470383   -1.307238   -1.436319
     11          1           0       -0.051381    1.272297    1.577260
     12          1           0        1.504982    1.558461    0.822398
     13          1           0        3.055691   -0.225251    0.977374
     14          1           0        2.416206   -1.868097    0.799706
     15          1           0        3.702755   -1.291487   -0.275307
     16          1           0        0.347474    2.339042   -1.282852
     17          1           0       -0.099598    3.323044    0.119321
     18          1           0       -1.217624    2.094699   -0.498785
     19          1           0       -1.934556   -1.426030    1.390182
     20          1           0       -1.802244    0.319348    1.146596
     21          1           0       -3.873341   -0.577845    0.074273
     22          1           0       -2.766784    0.060224   -1.157858
     23          1           0       -2.884118   -1.687202   -0.903644
 ---------------------------------------------------------------------

 SCF Done:  E(RwB97XD) =  -330.536772360     A.U. after   12 cycles

 Alpha  occ. eigenvalues --  -14.41598 -10.32719 -10.30152 -10.29350 -10.28542
 Alpha  occ. eigenvalues --  -10.28170 -10.27667 -10.26861  -1.01129  -0.89352
 Alpha  occ. eigenvalues --   -0.86047  -0.83298  -0.75172  -0.72602  -0.69528
 Alpha  occ. eigenvalues --   -0.60516  -0.57807  -0.56314  -0.52374  -0.51976
 Alpha  occ. eigenvalues --   -0.51704  -0.49301  -0.47164  -0.45936  -0.45396
 Alpha  occ. eigenvalues --   -0.45310  -0.44764  -0.42546  -0.42006  -0.41057
 Alpha  occ. eigenvalues --   -0.34924  -0.31940
 Alpha virt. eigenvalues --    0.02980   0.03472   0.03744   0.03841   0.05182
 Alpha virt. eigenvalues --    0.05287   0.05436   0.05807   0.05870   0.07185
 Alpha virt. eigenvalues --    0.07268   0.07571   0.07774   0.08016   0.08528

 Mulliken charges:
               1
     1  N   -0.701326
     2  C    0.545371
     3  C   -0.284023
     4  C   -0.168587
     5  C   -1.015487
     6  C   -1.017344
     7  C   -0.433173
     8  C   -0.942023
     9  H    0.274000
    10  H    0.227077
    11  H    0.211545
    12  H    0.222845
    13  H    0.286424
    14  H    0.286900
    15  H    0.246602
    16  H    0.247000
    17  H    0.207298
    18  H    0.403393
    19  H    0.328533
    20  H    0.240494
    21  H    0.259149
    22  H    0.350235
    23  H    0.225098
 Sum of Mulliken charges =  -0.00000

 Dipole moment (field-independent basis, Debye):
    X=              0.4992    Y=              1.7639    Z=              0.6079  Tot=              1.9314
 Quadrupole moment (field-independent basis, Debye-Ang):
   XX=            -50.2647   YY=            -53.7796   ZZ=            -52.4984
   XY=              0.0102   XZ=             -1.4731   YZ=             -0.3928

  Exact polarizability:     113.904       4.130      95.824      -1.273       0.483      82.107
 Approx polarizability:     108.005       6.868     101.520      -2.229       0.874      93.412

 Normal termination of Gaussian 16 at Mon Feb 10 14:28:00 2020.
