 Gaussian 16, Revision C.01,
 Gaussian 16:  ES64L-G16RevC.01  3-Jul-2019

 ------------------------------------------------
 #p wB97XD/aug-cc-pvtz NoSymm MaxDisk=100GB Polar
 ------------------------------------------------

 -----
 Polar
 -----
 Symbolic Z-matrix:
 Charge =  0 Multiplicity = 1

                          Input orientation:
 ---------------------------------------------------------------------
 Center     Atomic      Atomic             Coordinates (Angstroms)
 Number     Number       Type             X           Y           Z
 ---------------------------------------------------------------------
      1          7           0        1.207033   -0.359405   -0.000005
      2          6           0       -1.202823   -0.143416   -0.000011
      3          6           0        0.184262    0.416863    0.000018
      4          1           0       -1.153322   -1.233345   -0.000060
      5          1           0       -1.755631    0.197007   -0.881794
      6          1           0       -1.755631    0.196928    0.881802
      7          1           0        0.260139    1.513095    0.000041
      8          1           0        2.066575    0.201468    0.000007
 ---------------------------------------------------------------------

 SCF Done:  E(RwB97XD) =  -133.958793810     A.U. after   11 cycles

 Alpha  occ. eigenvalues --  -14.42626 -10.34083 -10.28636  -1.00215  -0.83469
 Alpha  occ. eigenvalues --   -0.66292  -0.60036  -0.51475  -0.48869  -0.47477
 Alpha  occ. eigenvalues --   -0.39357  -0.35474
 Alpha virt. eigenvalues --    0.02995   0.04136   0.04860   0.04911   0.05796
 Alpha virt. eigenvalues --    0.06716   0.09875   0.10756   0.10969   0.12093
 Alpha virt. eigenvalues --    0.12876   0.13624   0.13958   0.16281   0.16483

 Mulliken charges:
               1
     1  N   -0.562865
     2  C   -0.637282
     3  C   -0.090776
     4  H    0.253741
     5  H    0.256029
     6  H    0.256029
     7  H    0.418830
     8  H    0.106293
 Sum of Mulliken charges =  -0.00000

 Dipole moment (field-independent basis, Debye):
    X=             -0.9068    Y=              1.9595    Z=              0.0000  Tot=              2.1592
 Quadrupole moment (field-independent basis, Debye-Ang):
   XX=            -17.6779   YY=            -20.0617   ZZ=            -19.9630
   XY=              2.4602   XZ=              0.0001   YZ=              0.0000

  Exact polarizability:      44.434      -2.576      35.009      -0.000       0.000      28.067
 Approx polarizability:      43.414      -4.647      37.002      -0.000       0.000      29.818

 Normal termination of Gaussian 16 at Mon Feb 10 12:42:04 2020.
