 Gaussian 16, Revision C.01,
 Gaussian 16:  ES64L-G16RevC.01  3-Jul-2019

 ------------------------------------------------
 #p wB97XD/aug-cc-pvtz NoSymm MaxDisk=100GB Polar
 ------------------------------------------------

 -----
 Polar
 -----
 Symbolic Z-matrix:
 Charge =  0 Multiplicity = 1

                          Input orientation:
 ---------------------------------------------------------------------
 Center     Atomic      Atomic             Coordinates (Angstroms)
 Number     Number       Type             X           Y           Z
 ---------------------------------------------------------------------
      1          7           0       -0.497138   -0.488403   -0.000008
      2          6           0        1.893303   -0.082801   -0.000014
      3          6           0        0.463585    0.357626    0.000039
      4          6           0       -1.847091    0.058994   -0.000007
      5          1           0        2.416069    0.304218   -0.881136
      6          1           0        2.415593    0.302324    0.882202
      7          1           0        1.939687   -1.172710   -0.001115
      8          1           0        0.280271    1.445208   -0.000029
      9          1           0       -1.876272    1.159231   -0.000457
     10          1           0       -2.376942   -0.310818    0.882314
     11          1           0       -2.377221   -0.311550   -0.881835
 ---------------------------------------------------------------------

 SCF Done:  E(RwB97XD) =  -173.268720550     A.U. after   12 cycles

 Alpha  occ. eigenvalues --  -14.43086 -10.33015 -10.30117 -10.28363  -1.01589
 Alpha  occ. eigenvalues --   -0.84983  -0.76766  -0.64943  -0.56547  -0.53056
 Alpha  occ. eigenvalues --   -0.52493  -0.49802  -0.46949  -0.44784  -0.36728
 Alpha  occ. eigenvalues --   -0.33895
 Alpha virt. eigenvalues --    0.03262   0.04010   0.04515   0.04568   0.05772
 Alpha virt. eigenvalues --    0.06304   0.06627   0.06864   0.09822   0.11225
 Alpha virt. eigenvalues --    0.12146   0.12175   0.12708   0.13056   0.13290

 Mulliken charges:
               1
     1  N   -0.411137
     2  C   -0.650680
     3  C   -0.353342
     4  C   -0.709166
     5  H    0.256290
     6  H    0.256323
     7  H    0.245128
     8  H    0.482737
     9  H    0.309029
    10  H    0.287434
    11  H    0.287385
 Sum of Mulliken charges =  -0.00000

 Dipole moment (field-independent basis, Debye):
    X=              0.3948    Y=              1.5776    Z=              0.0001  Tot=              1.6262
 Quadrupole moment (field-independent basis, Debye-Ang):
   XX=            -22.7720   YY=            -27.3153   ZZ=            -26.1078
   XY=             -0.0664   XZ=              0.0002   YZ=              0.0000

  Exact polarizability:      64.456       2.779      46.462       0.001      -0.000      38.075
 Approx polarizability:      58.465       5.695      51.116       0.001      -0.000      41.672

 Normal termination of Gaussian 16 at Mon Feb 10 12:47:28 2020.
