 Gaussian 16, Revision C.01,
 Gaussian 16:  ES64L-G16RevC.01  3-Jul-2019

 ------------------------------------------------
 #p wB97XD/aug-cc-pvtz NoSymm MaxDisk=100GB Polar
 ------------------------------------------------

 -----
 Polar
 -----
 Symbolic Z-matrix:
 Charge =  0 Multiplicity = 1

                          Input orientation:
 ---------------------------------------------------------------------
 Center     Atomic      Atomic             Coordinates (Angstroms)
 Number     Number       Type             X           Y           Z
 ---------------------------------------------------------------------
      1          7           0        0.040246    1.441660    0.000062
      2          6           0        0.003925    0.155415   -0.000299
      3          6           0       -1.340013   -0.520467    0.000025
      4          6           0        1.204431   -0.759851    0.000003
      5          1           0       -2.127710    0.233574   -0.000013
      6          1           0       -1.449571   -1.161597   -0.881346
      7          1           0       -1.449340   -1.161139    0.881780
      8          1           0        2.138552   -0.191807   -0.003074
      9          1           0        1.187638   -1.412741   -0.879124
     10          1           0        1.190574   -1.407812    0.882860
     11          1           0        1.018078    1.759320    0.000108
 ---------------------------------------------------------------------

 SCF Done:  E(RwB97XD) =  -173.282891282     A.U. after   12 cycles

 Alpha  occ. eigenvalues --  -14.41481 -10.34245 -10.29445 -10.28221  -1.00214
 Alpha  occ. eigenvalues --   -0.84898  -0.80497  -0.63553  -0.56507  -0.53776
 Alpha  occ. eigenvalues --   -0.52481  -0.48347  -0.47219  -0.45096  -0.37885
 Alpha  occ. eigenvalues --   -0.34661
 Alpha virt. eigenvalues --    0.02846   0.03942   0.04266   0.04736   0.06372
 Alpha virt. eigenvalues --    0.06557   0.06622   0.07239   0.09356   0.11477
 Alpha virt. eigenvalues --    0.11871   0.12154   0.12664   0.13019   0.13745

 Mulliken charges:
               1
     1  N   -0.691246
     2  C    0.665298
     3  C   -0.851854
     4  C   -0.819729
     5  H    0.265241
     6  H    0.273921
     7  H    0.273843
     8  H    0.246203
     9  H    0.283255
    10  H    0.283104
    11  H    0.071963
 Sum of Mulliken charges =  -0.00000

 Dipole moment (field-independent basis, Debye):
    X=              1.2125    Y=             -2.2843    Z=              0.0005  Tot=              2.5861
 Quadrupole moment (field-independent basis, Debye-Ang):
   XX=            -24.0352   YY=            -28.8707   ZZ=            -26.2052
   XY=              2.5253   XZ=              0.0006   YZ=             -0.0004

  Exact polarizability:      49.904       1.081      55.624       0.001      -0.001      37.801
 Approx polarizability:      47.776       1.589      59.064       0.001       0.000      41.915

 Normal termination of Gaussian 16 at Mon Feb 10 12:47:45 2020.
