 Gaussian 16, Revision C.01,
 Gaussian 16:  ES64L-G16RevC.01  3-Jul-2019

 ------------------------------------------------
 #p wB97XD/aug-cc-pvtz NoSymm MaxDisk=100GB Polar
 ------------------------------------------------

 -----
 Polar
 -----
 Symbolic Z-matrix:
 Charge =  0 Multiplicity = 1

                          Input orientation:
 ---------------------------------------------------------------------
 Center     Atomic      Atomic             Coordinates (Angstroms)
 Number     Number       Type             X           Y           Z
 ---------------------------------------------------------------------
      1          8           0       -1.254277   -0.246805    0.346918
      2          8           0       -0.146859    1.685855   -0.106598
      3          8           0        2.147799   -1.670652   -0.353090
      4          6           0        0.994626   -0.111192    1.056679
      5          6           0       -2.412009    0.308970   -0.331976
      6          6           0       -0.177275    0.564219    0.378866
      7          6           0        2.028076   -0.501968   -0.003405
      8          6           0       -3.493571   -0.744170   -0.268576
      9          6           0        2.865755    0.617371   -0.567112
     10          1           0        0.669915   -1.012385    1.577147
     11          1           0        1.432649    0.605955    1.758501
     12          1           0       -2.700534    1.236012    0.170392
     13          1           0       -2.129170    0.555843   -1.358602
     14          1           0       -4.394876   -0.379898   -0.769446
     15          1           0       -3.165820   -1.660359   -0.763867
     16          1           0       -3.742302   -0.977620    0.768694
     17          1           0        3.435345    0.251941   -1.422143
     18          1           0        3.557150    0.973266    0.204948
     19          1           0        2.230725    1.460680   -0.850313
 ---------------------------------------------------------------------

 SCF Done:  E(RwB97XD) =  -460.372035622     A.U. after   14 cycles

 Alpha  occ. eigenvalues --  -19.31339 -19.25289 -19.25286 -10.43667 -10.39644
 Alpha  occ. eigenvalues --  -10.35255 -10.31703 -10.29291 -10.28982  -1.21836
 Alpha  occ. eigenvalues --   -1.14856  -1.12832  -0.90882  -0.87563  -0.83205
 Alpha  occ. eigenvalues --   -0.74678  -0.67861  -0.64304  -0.60813  -0.59623
 Alpha  occ. eigenvalues --   -0.57791  -0.56271  -0.54836  -0.52715  -0.51116
 Alpha  occ. eigenvalues --   -0.49555  -0.49467  -0.48115  -0.46847  -0.45244
 Alpha  occ. eigenvalues --   -0.45122  -0.44488  -0.40094  -0.37554  -0.34542
 Alpha virt. eigenvalues --    0.02420   0.03070   0.03645   0.03983   0.04394
 Alpha virt. eigenvalues --    0.05082   0.05145   0.05914   0.06655   0.06716
 Alpha virt. eigenvalues --    0.07233   0.07520   0.09003   0.09809   0.10368

 Mulliken charges:
               1
     1  O   -0.320555
     2  O   -0.869266
     3  O   -0.866869
     4  C    0.053478
     5  C   -0.272203
     6  C    0.602788
     7  C    0.649869
     8  C   -0.874363
     9  C   -0.764933
    10  H    0.167235
    11  H    0.294485
    12  H    0.301050
    13  H    0.294704
    14  H    0.276909
    15  H    0.245615
    16  H    0.235125
    17  H    0.237172
    18  H    0.295139
    19  H    0.314621
 Sum of Mulliken charges =  -0.00000

 Dipole moment (field-independent basis, Debye):
    X=             -1.3145    Y=              1.1652    Z=              1.0960  Tot=              2.0704
 Quadrupole moment (field-independent basis, Debye-Ang):
   XX=            -45.8488   YY=            -63.9010   ZZ=            -51.0036
   XY=              6.0254   XZ=              3.2540   YZ=             -0.3877

  Exact polarizability:      99.290       2.776      84.202      -0.908      -0.614      70.204
 Approx polarizability:      88.083       1.029      99.252      -0.542      -0.706      79.818

 Normal termination of Gaussian 16 at Mon Feb 10 13:47:59 2020.
