 Gaussian 16, Revision C.01,
 Gaussian 16:  ES64L-G16RevC.01  3-Jul-2019

 ------------------------------------------------
 #p wB97XD/aug-cc-pvtz NoSymm MaxDisk=100GB Polar
 ------------------------------------------------

 -----
 Polar
 -----
 Symbolic Z-matrix:
 Charge =  0 Multiplicity = 1

                          Input orientation:
 ---------------------------------------------------------------------
 Center     Atomic      Atomic             Coordinates (Angstroms)
 Number     Number       Type             X           Y           Z
 ---------------------------------------------------------------------
      1          8           0        1.460816   -0.981727    0.000240
      2          8           0       -1.460813    0.981727    0.000223
      3          8           0        1.213225    1.282986   -0.000033
      4          8           0       -1.213227   -1.282986   -0.000130
      5          6           0        0.747693    0.160127   -0.000322
      6          6           0       -0.747694   -0.160127   -0.000239
      7          1           0        2.401680   -0.706923    0.000527
      8          1           0       -2.401678    0.706926    0.000440
 ---------------------------------------------------------------------

 SCF Done:  E(RwB97XD) =  -378.355579349     A.U. after   12 cycles

 Alpha  occ. eigenvalues --  -19.33568 -19.33568 -19.28079 -19.28078 -10.46262
 Alpha  occ. eigenvalues --  -10.46240  -1.25399  -1.22990  -1.15964  -1.14491
 Alpha  occ. eigenvalues --   -0.83907  -0.73467  -0.63259  -0.60867  -0.60447
 Alpha  occ. eigenvalues --   -0.59574  -0.54667  -0.53823  -0.51009  -0.44290
 Alpha  occ. eigenvalues --   -0.43804  -0.43688  -0.37927
 Alpha virt. eigenvalues --   -0.01899   0.02734   0.03122   0.07394   0.08221
 Alpha virt. eigenvalues --    0.09242   0.10034   0.10133   0.10556   0.10854
 Alpha virt. eigenvalues --    0.13440   0.14556   0.15127   0.16241   0.16349

 Mulliken charges:
               1
     1  O   -0.273902
     2  O   -0.273901
     3  O   -0.661950
     4  O   -0.661950
     5  C    0.735114
     6  C    0.735115
     7  H    0.200737
     8  H    0.200737
 Sum of Mulliken charges =  -0.00000

 Dipole moment (field-independent basis, Debye):
    X=             -0.0000    Y=              0.0000    Z=              0.0002  Tot=              0.0002
 Quadrupole moment (field-independent basis, Debye-Ang):
   XX=            -22.9539   YY=            -41.6834   ZZ=            -31.9833
   XY=             -6.1859   XZ=              0.0001   YZ=             -0.0003

  Exact polarizability:      46.701       0.867      48.126       0.001       0.001      26.833
 Approx polarizability:      44.483       3.044      59.367       0.001       0.001      30.299

 Normal termination of Gaussian 16 at Mon Feb 10 12:54:08 2020.
