 Gaussian 16, Revision C.01,
 Gaussian 16:  ES64L-G16RevC.01  3-Jul-2019

 ------------------------------------------------
 #p wB97XD/aug-cc-pvtz NoSymm MaxDisk=100GB Polar
 ------------------------------------------------

 -----
 Polar
 -----
 Symbolic Z-matrix:
 Charge = -1 Multiplicity = 1

                          Input orientation:
 ---------------------------------------------------------------------
 Center     Atomic      Atomic             Coordinates (Angstroms)
 Number     Number       Type             X           Y           Z
 ---------------------------------------------------------------------
      1          8           0        1.371950    1.036552    0.000153
      2          8           0        1.297492   -1.207090    0.000232
      3          8           0       -1.513294   -1.059233   -0.000304
      4          8           0       -1.276320    1.229026   -0.000211
      5          6           0        0.671622   -0.152820   -0.000179
      6          6           0       -0.894880    0.032819    0.000319
      7          1           0        2.300928    0.725958    0.000190
 ---------------------------------------------------------------------

 SCF Done:  E(RwB97XD) =  -377.813252169     A.U. after   13 cycles

 Alpha  occ. eigenvalues --  -19.15030 -19.09388 -19.02229 -19.02106 -10.26179
 Alpha  occ. eigenvalues --  -10.21126  -1.05115  -0.95731  -0.94675  -0.86703
 Alpha  occ. eigenvalues --   -0.59251  -0.46511  -0.42636  -0.38310  -0.37684
 Alpha  occ. eigenvalues --   -0.33734  -0.31598  -0.29834  -0.25641  -0.23436
 Alpha  occ. eigenvalues --   -0.16054  -0.15275  -0.14682
 Alpha virt. eigenvalues --    0.12432   0.18314   0.19781   0.20321   0.20926
 Alpha virt. eigenvalues --    0.22415   0.22899   0.22906   0.23412   0.27533
 Alpha virt. eigenvalues --    0.28842   0.29829   0.30444   0.33396   0.34053

 Mulliken charges:
               1
     1  O   -0.306104
     2  O   -0.673835
     3  O   -0.711985
     4  O   -0.716872
     5  C    0.582492
     6  C    0.654801
     7  H    0.171503
 Sum of Mulliken charges =  -1.00000

 Dipole moment (field-independent basis, Debye):
    X=              5.1804    Y=              0.9299    Z=              0.0007  Tot=              5.2632
 Quadrupole moment (field-independent basis, Debye-Ang):
   XX=            -44.9588   YY=            -49.1437   ZZ=            -34.0769
   XY=              2.9163   XZ=             -0.0027   YZ=              0.0003

  Exact polarizability:      56.971       0.426      57.248       0.003      -0.000      32.915
 Approx polarizability:      51.384      -0.158      65.946       0.005      -0.001      35.737

 Normal termination of Gaussian 16 at Mon Feb 10 12:50:59 2020.
