 Gaussian 16, Revision C.01,
 Gaussian 16:  ES64L-G16RevC.01  3-Jul-2019

 ------------------------------------------------
 #p wB97XD/aug-cc-pvtz NoSymm MaxDisk=100GB Polar
 ------------------------------------------------

 -----
 Polar
 -----
 Symbolic Z-matrix:
 Charge = -2 Multiplicity = 1

                          Input orientation:
 ---------------------------------------------------------------------
 Center     Atomic      Atomic             Coordinates (Angstroms)
 Number     Number       Type             X           Y           Z
 ---------------------------------------------------------------------
      1          8           0       -1.385880    1.135154   -0.000792
      2          8           0        1.385881   -1.135148   -0.000880
      3          8           0       -1.385879   -1.135154    0.000818
      4          8           0        1.385881    1.135148    0.000828
      5          6           0       -0.804715    0.000000    0.000043
      6          6           0        0.804711    0.000000   -0.000008
 ---------------------------------------------------------------------

 SCF Done:  E(RwB97XD) =  -377.097984401     A.U. after   14 cycles

 Alpha  occ. eigenvalues --  -18.84501 -18.84501 -18.84501 -18.84500 -10.02256
 Alpha  occ. eigenvalues --  -10.02243  -0.77504  -0.74674  -0.68287  -0.66428
 Alpha  occ. eigenvalues --   -0.32698  -0.19941  -0.17465  -0.15270  -0.14857
 Alpha  occ. eigenvalues --   -0.12513  -0.09241  -0.02844   0.00960   0.01122
 Alpha  occ. eigenvalues --    0.02154   0.05247   0.05458
 Alpha virt. eigenvalues --    0.27971   0.31175   0.32736   0.33529   0.33909
 Alpha virt. eigenvalues --    0.33981   0.36129   0.41221   0.41514   0.43812
 Alpha virt. eigenvalues --    0.43867   0.46403   0.46424   0.46548   0.48838

 Mulliken charges:
               1
     1  O   -0.737715
     2  O   -0.737715
     3  O   -0.737714
     4  O   -0.737715
     5  C    0.475432
     6  C    0.475427
 Sum of Mulliken charges =  -2.00000

 Dipole moment (field-independent basis, Debye):
    X=             -0.0000    Y=             -0.0000    Z=              0.0001  Tot=              0.0001
 Quadrupole moment (field-independent basis, Debye-Ang):
   XX=            -66.4945   YY=            -58.0307   ZZ=            -36.9852
   XY=              0.0000   XZ=              0.0004   YZ=             -0.0005

  Exact polarizability:      82.834      -0.000      73.160      -0.001       0.001      44.273
 Approx polarizability:      61.550      -0.000      76.042      -0.000       0.001      44.291

 Normal termination of Gaussian 16 at Mon Feb 10 12:50:09 2020.
