 Gaussian 16, Revision C.01,
 Gaussian 16:  ES64L-G16RevC.01  3-Jul-2019

 ------------------------------------------------
 #p wB97XD/aug-cc-pvtz NoSymm MaxDisk=100GB Polar
 ------------------------------------------------

 -----
 Polar
 -----
 Symbolic Z-matrix:
 Charge =  0 Multiplicity = 1

                          Input orientation:
 ---------------------------------------------------------------------
 Center     Atomic      Atomic             Coordinates (Angstroms)
 Number     Number       Type             X           Y           Z
 ---------------------------------------------------------------------
      1          8           0        2.331704   -0.818613   -0.001431
      2          8           0       -2.331702   -0.818616    0.000927
      3          8           0        1.426662    1.261362    0.001899
      4          8           0       -1.426672    1.261360   -0.001902
      5          6           0        0.000005   -0.738197    0.000456
      6          6           0        1.284053    0.056515    0.000388
      7          6           0       -1.284043    0.056524   -0.000302
      8          1           0        0.000191   -1.406728   -0.867304
      9          1           0       -0.000189   -1.405731    0.868996
     10          1           0        3.136749   -0.260256   -0.001143
     11          1           0       -3.136772   -0.260291    0.000251
 ---------------------------------------------------------------------

 SCF Done:  E(RwB97XD) =  -417.682720972     A.U. after   12 cycles

 Alpha  occ. eigenvalues --  -19.31782 -19.31781 -19.25817 -19.25817 -10.44482
 Alpha  occ. eigenvalues --  -10.44480 -10.33920  -1.22490  -1.22005  -1.13474
 Alpha  occ. eigenvalues --   -1.12834  -0.90950  -0.76817  -0.68800  -0.61609
 Alpha  occ. eigenvalues --   -0.60083  -0.59063  -0.57943  -0.57707  -0.54458
 Alpha  occ. eigenvalues --   -0.50535  -0.50002  -0.48752  -0.42727  -0.42122
 Alpha  occ. eigenvalues --   -0.38943  -0.37077
 Alpha virt. eigenvalues --    0.02493   0.03349   0.04089   0.04752   0.05888
 Alpha virt. eigenvalues --    0.06214   0.07859   0.09495   0.10189   0.10279
 Alpha virt. eigenvalues --    0.10325   0.10493   0.10772   0.12298   0.12430

 Mulliken charges:
               1
     1  O   -0.375765
     2  O   -0.375767
     3  O   -0.675829
     4  O   -0.675815
     5  C    0.096675
     6  C    0.526348
     7  C    0.526328
     8  H    0.281649
     9  H    0.281579
    10  H    0.195302
    11  H    0.195295
 Sum of Mulliken charges =  -0.00000

 Dipole moment (field-independent basis, Debye):
    X=              0.0001    Y=             -3.1320    Z=              0.0004  Tot=              3.1320
 Quadrupole moment (field-independent basis, Debye-Ang):
   XX=            -29.4631   YY=            -47.7675   ZZ=            -38.0319
   XY=             -0.0000   XZ=             -0.0051   YZ=             -0.0012

  Exact polarizability:      62.203       0.000      57.341      -0.007      -0.001      36.596
 Approx polarizability:      56.709      -0.000      70.421      -0.007      -0.001      42.319

 Normal termination of Gaussian 16 at Mon Feb 10 13:04:39 2020.
