 Gaussian 16, Revision C.01,
 Gaussian 16:  ES64L-G16RevC.01  3-Jul-2019

 ------------------------------------------------
 #p wB97XD/aug-cc-pvtz NoSymm MaxDisk=100GB Polar
 ------------------------------------------------

 -----
 Polar
 -----
 Symbolic Z-matrix:
 Charge = -1 Multiplicity = 1

                          Input orientation:
 ---------------------------------------------------------------------
 Center     Atomic      Atomic             Coordinates (Angstroms)
 Number     Number       Type             X           Y           Z
 ---------------------------------------------------------------------
      1          8           0       -1.624844    0.420508    1.066204
      2          8           0       -1.828570   -0.263414   -1.070907
      3          8           0        0.987464    1.271657   -0.417562
      4          8           0        2.471513   -0.382235    0.155814
      5          6           0        0.143831   -0.906185    0.199681
      6          6           0       -1.168316   -0.256135   -0.039141
      7          6           0        1.341026    0.121783   -0.050550
      8          1           0        0.214342   -1.270430    1.228020
      9          1           0        0.256720   -1.747883   -0.487925
     10          1           0       -2.414806    0.889405    0.731568
 ---------------------------------------------------------------------

 SCF Done:  E(RwB97XD) =  -417.138637756     A.U. after   14 cycles

 Alpha  occ. eigenvalues --  -19.16195 -19.10028 -19.01706 -19.01686 -10.28044
 Alpha  occ. eigenvalues --  -10.20830 -10.13926  -1.06366  -0.96907  -0.94581
 Alpha  occ. eigenvalues --   -0.86345  -0.70491  -0.55410  -0.44647  -0.44077
 Alpha  occ. eigenvalues --   -0.41897  -0.38440  -0.35940  -0.34810  -0.32973
 Alpha  occ. eigenvalues --   -0.30826  -0.28073  -0.26621  -0.22657  -0.15829
 Alpha  occ. eigenvalues --   -0.14708  -0.14465
 Alpha virt. eigenvalues --    0.12219   0.13708   0.14591   0.17468   0.19230
 Alpha virt. eigenvalues --    0.20474   0.21038   0.21979   0.22267   0.22579
 Alpha virt. eigenvalues --    0.22805   0.24345   0.24937   0.26717   0.27619

 Mulliken charges:
               1
     1  O   -0.417981
     2  O   -0.816456
     3  O   -0.753556
     4  O   -0.773055
     5  C   -0.128302
     6  C    0.691169
     7  C    0.541276
     8  H    0.231034
     9  H    0.244138
    10  H    0.181733
 Sum of Mulliken charges =  -1.00000

 Dipole moment (field-independent basis, Debye):
    X=             -5.8340    Y=             -1.8068    Z=              1.9617  Tot=              6.4147
 Quadrupole moment (field-independent basis, Debye-Ang):
   XX=            -63.3220   YY=            -46.4390   ZZ=            -46.6165
   XY=             -3.5477   XZ=             -3.8728   YZ=              1.3812

  Exact polarizability:      75.617      -3.077      59.373       2.493      -1.377      53.449
 Approx polarizability:      71.062      -5.794      63.094       5.000      -1.507      60.495

 Normal termination of Gaussian 16 at Mon Feb 10 13:01:35 2020.
