 Gaussian 16, Revision C.01,
 Gaussian 16:  ES64L-G16RevC.01  3-Jul-2019

 ------------------------------------------------
 #p wB97XD/aug-cc-pvtz NoSymm MaxDisk=100GB Polar
 ------------------------------------------------

 -----
 Polar
 -----
 Symbolic Z-matrix:
 Charge = -2 Multiplicity = 1

                          Input orientation:
 ---------------------------------------------------------------------
 Center     Atomic      Atomic             Coordinates (Angstroms)
 Number     Number       Type             X           Y           Z
 ---------------------------------------------------------------------
      1          8           0       -1.820821   -1.138610   -0.259900
      2          8           0        1.821203   -1.138407   -0.259477
      3          8           0       -1.821052    1.138469   -0.259417
      4          8           0        1.820670    1.138673   -0.259839
      5          6           0        0.000000   -0.000098    0.847214
      6          6           0       -1.330553   -0.000080    0.022288
      7          6           0        1.330553    0.000063    0.022286
      8          1           0        0.000055   -0.898202    1.479098
      9          1           0       -0.000054    0.897889    1.479240
 ---------------------------------------------------------------------

 SCF Done:  E(RwB97XD) =  -416.438565623     A.U. after   14 cycles

 Alpha  occ. eigenvalues --  -18.86619 -18.86619 -18.86618 -18.86618 -10.05107
 Alpha  occ. eigenvalues --  -10.05107  -9.95984  -0.79135  -0.78447  -0.70186
 Alpha  occ. eigenvalues --   -0.69954  -0.49261  -0.28885  -0.24941  -0.19907
 Alpha  occ. eigenvalues --   -0.19354  -0.19037  -0.16182  -0.13248  -0.13247
 Alpha  occ. eigenvalues --   -0.12887  -0.01086  -0.00768  -0.00628   0.01019
 Alpha  occ. eigenvalues --    0.01289   0.01615
 Alpha virt. eigenvalues --    0.23410   0.23541   0.26959   0.28763   0.32055
 Alpha virt. eigenvalues --    0.32384   0.32474   0.32745   0.33694   0.35114
 Alpha virt. eigenvalues --    0.37427   0.38734   0.40133   0.41143   0.43344

 Mulliken charges:
               1
     1  O   -0.828149
     2  O   -0.828152
     3  O   -0.828139
     4  O   -0.828135
     5  C   -0.142814
     6  C    0.505301
     7  C    0.505303
     8  H    0.222387
     9  H    0.222398
 Sum of Mulliken charges =  -2.00000

 Dipole moment (field-independent basis, Debye):
    X=              0.0000    Y=             -0.0003    Z=              3.1172  Tot=              3.1172
 Quadrupole moment (field-independent basis, Debye-Ang):
   XX=            -86.9352   YY=            -64.7820   ZZ=            -46.2084
   XY=              0.0011   XZ=             -0.0000   YZ=             -0.0002

  Exact polarizability:      87.087      -0.003      82.567      -0.000      -0.000      62.509
 Approx polarizability:      70.742      -0.004      87.696      -0.000       0.000      61.388

 Normal termination of Gaussian 16 at Mon Feb 10 13:04:12 2020.
