 Gaussian 16, Revision C.01,
 Gaussian 16:  ES64L-G16RevC.01  3-Jul-2019

 ------------------------------------------------
 #p wB97XD/aug-cc-pvtz NoSymm MaxDisk=100GB Polar
 ------------------------------------------------

 -----
 Polar
 -----
 Symbolic Z-matrix:
 Charge =  0 Multiplicity = 1

                          Input orientation:
 ---------------------------------------------------------------------
 Center     Atomic      Atomic             Coordinates (Angstroms)
 Number     Number       Type             X           Y           Z
 ---------------------------------------------------------------------
      1          8           0        0.391970    1.529385   -0.000679
      2          8           0       -2.156813    0.739740    0.000742
      3          8           0       -1.481938   -1.432780   -0.000836
      4          6           0        1.290472   -0.718435    0.000824
      5          6           0        2.679886   -0.099059   -0.000119
      6          6           0        0.199804    0.320006   -0.000037
      7          6           0       -1.230706   -0.237690   -0.000100
      8          1           0        1.133045   -1.370603   -0.867272
      9          1           0        1.133435   -1.368526    0.870584
     10          1           0        2.825874    0.528000   -0.882042
     11          1           0        2.826165    0.530046    0.880290
     12          1           0        3.443044   -0.881029    0.000645
     13          1           0       -3.024049    0.282430    0.000582
 ---------------------------------------------------------------------

 SCF Done:  E(RwB97XD) =  -381.740018077     A.U. after   13 cycles

 Alpha  occ. eigenvalues --  -19.32775 -19.27617 -19.27420 -10.44904 -10.40869
 Alpha  occ. eigenvalues --  -10.31127 -10.28619  -1.23527  -1.16611  -1.14398
 Alpha  occ. eigenvalues --   -0.90023  -0.81553  -0.74918  -0.65859  -0.60862
 Alpha  occ. eigenvalues --   -0.59790  -0.58463  -0.55350  -0.54758  -0.51763
 Alpha  occ. eigenvalues --   -0.47849  -0.47341  -0.46213  -0.44339  -0.43147
 Alpha  occ. eigenvalues --   -0.42182  -0.35441
 Alpha virt. eigenvalues --   -0.02199   0.02789   0.03363   0.04491   0.04711
 Alpha virt. eigenvalues --    0.05548   0.06872   0.08187   0.09540   0.09830
 Alpha virt. eigenvalues --    0.10588   0.10732   0.11714   0.11856   0.12274

 Mulliken charges:
               1
     1  O   -0.792986
     2  O   -0.341889
     3  O   -0.754684
     4  C   -0.265428
     5  C   -0.932208
     6  C    0.751807
     7  C    0.756259
     8  H    0.286212
     9  H    0.286248
    10  H    0.276699
    11  H    0.276729
    12  H    0.234721
    13  H    0.218522
 Sum of Mulliken charges =  -0.00000

 Dipole moment (field-independent basis, Debye):
    X=             -0.0550    Y=             -1.2069    Z=              0.0027  Tot=              1.2082
 Quadrupole moment (field-independent basis, Debye-Ang):
   XX=            -33.1321   YY=            -49.4851   ZZ=            -39.1938
   XY=             -3.7076   XZ=             -0.0009   YZ=             -0.0016

  Exact polarizability:      69.940       0.221      65.119      -0.001      -0.001      43.925
 Approx polarizability:      62.529       1.348      79.941      -0.001       0.000      51.210

 Normal termination of Gaussian 16 at Mon Feb 10 13:20:03 2020.
