 Gaussian 16, Revision C.01,
 Gaussian 16:  ES64L-G16RevC.01  3-Jul-2019

 ------------------------------------------------
 #p wB97XD/aug-cc-pvtz NoSymm MaxDisk=100GB Polar
 ------------------------------------------------

 -----
 Polar
 -----
 Symbolic Z-matrix:
 Charge = -1 Multiplicity = 1

                          Input orientation:
 ---------------------------------------------------------------------
 Center     Atomic      Atomic             Coordinates (Angstroms)
 Number     Number       Type             X           Y           Z
 ---------------------------------------------------------------------
      1          8           0       -0.422399    1.547812   -0.002497
      2          8           0        2.258726    0.716074    0.002744
      3          8           0        1.438911   -1.433049   -0.002220
      4          6           0       -1.198001   -0.716636    0.001153
      5          6           0       -2.604179   -0.134328    0.000905
      6          6           0       -0.111072    0.353760   -0.000569
      7          6           0        1.367127   -0.167441    0.000088
      8          1           0       -1.020332   -1.365869   -0.862962
      9          1           0       -1.019848   -1.363717    0.866816
     10          1           0       -2.761071    0.496744   -0.878003
     11          1           0       -3.363383   -0.924956    0.002158
     12          1           0       -2.760507    0.498975    0.878316
 ---------------------------------------------------------------------

 SCF Done:  E(RwB97XD) =  -381.192568710     A.U. after   14 cycles

 Alpha  occ. eigenvalues --  -19.09187 -19.02051 -19.01709 -10.21620 -10.20035
 Alpha  occ. eigenvalues --  -10.15497 -10.15016  -0.98302  -0.93962  -0.86171
 Alpha  occ. eigenvalues --   -0.74017  -0.62375  -0.52280  -0.43758  -0.41403
 Alpha  occ. eigenvalues --   -0.38546  -0.36531  -0.33725  -0.33560  -0.31476
 Alpha  occ. eigenvalues --   -0.30355  -0.29395  -0.27499  -0.21550  -0.15812
 Alpha  occ. eigenvalues --   -0.14636  -0.13510
 Alpha virt. eigenvalues --    0.11060   0.12873   0.13219   0.14422   0.15389
 Alpha virt. eigenvalues --    0.18350   0.18808   0.19127   0.20761   0.21220
 Alpha virt. eigenvalues --    0.21838   0.21901   0.23760   0.23867   0.24175

 Mulliken charges:
               1
     1  O   -0.795205
     2  O   -0.759875
     3  O   -0.766214
     4  C   -0.204976
     5  C   -1.059750
     6  C    0.584772
     7  C    0.594046
     8  H    0.291534
     9  H    0.291812
    10  H    0.285814
    11  H    0.252337
    12  H    0.285705
 Sum of Mulliken charges =  -1.00000

 Dipole moment (field-independent basis, Debye):
    X=             -7.1330    Y=             -1.1229    Z=              0.0029  Tot=              7.2209
 Quadrupole moment (field-independent basis, Debye-Ang):
   XX=            -65.1290   YY=            -57.0863   ZZ=            -41.6573
   XY=              2.5445   XZ=             -0.0112   YZ=             -0.0080

  Exact polarizability:      80.513       1.079      74.942       0.013       0.008      50.569
 Approx polarizability:      70.410       2.118      86.277       0.018       0.015      57.437

 Normal termination of Gaussian 16 at Mon Apr 25 20:55:24 2011.
