 Gaussian 16, Revision C.01,
 Gaussian 16:  ES64L-G16RevC.01  3-Jul-2019

 ------------------------------------------------
 #p wB97XD/aug-cc-pvtz NoSymm MaxDisk=100GB Polar
 ------------------------------------------------

 -----
 Polar
 -----
 Symbolic Z-matrix:
 Charge =  0 Multiplicity = 1

                          Input orientation:
 ---------------------------------------------------------------------
 Center     Atomic      Atomic             Coordinates (Angstroms)
 Number     Number       Type             X           Y           Z
 ---------------------------------------------------------------------
      1          8           0       -1.417120   -1.348406    0.000297
      2          8           0        1.417120   -1.348405   -0.000302
      3          7           0       -0.000001    0.484607   -0.000016
      4          6           0       -2.406762    0.860400   -0.000078
      5          6           0        2.406763    0.860401    0.000071
      6          6           0       -1.258396   -0.138633    0.000084
      7          6           0        1.258396   -0.138632   -0.000100
      8          6           0       -3.762404    0.168825   -0.000054
      9          6           0        3.762404    0.168823    0.000089
     10          1           0       -2.301813    1.510590   -0.878398
     11          1           0       -2.301894    1.510778    0.878116
     12          1           0        2.301798    1.510607    0.878377
     13          1           0        2.301915    1.510763   -0.878137
     14          1           0       -0.000001    1.498817   -0.000001
     15          1           0       -3.870414   -0.466338   -0.880798
     16          1           0       -4.566277    0.909432   -0.000070
     17          1           0       -3.870398   -0.466295    0.880721
     18          1           0        4.566278    0.909429    0.000107
     19          1           0        3.870395   -0.466323    0.880847
     20          1           0        3.870415   -0.466314   -0.880672
 ---------------------------------------------------------------------

 SCF Done:  E(RwB97XD) =  -440.516516447     A.U. after   12 cycles

 Alpha  occ. eigenvalues --  -19.23622 -19.23621 -14.49031 -10.41045 -10.41045
 Alpha  occ. eigenvalues --  -10.31201 -10.31201 -10.28267 -10.28267  -1.16328
 Alpha  occ. eigenvalues --   -1.13714  -1.03833  -0.89925  -0.88520  -0.79582
 Alpha  occ. eigenvalues --   -0.74359  -0.68617  -0.67015  -0.60561  -0.58118
 Alpha  occ. eigenvalues --   -0.58008  -0.56301  -0.52874  -0.51418  -0.50722
 Alpha  occ. eigenvalues --   -0.48171  -0.46459  -0.46412  -0.45883  -0.45726
 Alpha  occ. eigenvalues --   -0.44080  -0.43378  -0.37473  -0.37367  -0.33220
 Alpha virt. eigenvalues --    0.01815   0.02904   0.03522   0.03848   0.03893
 Alpha virt. eigenvalues --    0.05030   0.05141   0.05404   0.06494   0.06592
 Alpha virt. eigenvalues --    0.07197   0.07510   0.09030   0.10096   0.10291

 Mulliken charges:
               1
     1  O   -0.790485
     2  O   -0.790484
     3  N    0.235641
     4  C   -0.219774
     5  C   -0.219773
     6  C    0.484972
     7  C    0.484973
     8  C   -1.005154
     9  C   -1.005154
    10  H    0.297552
    11  H    0.297547
    12  H    0.297551
    13  H    0.297547
    14  H    0.012046
    15  H    0.288123
    16  H    0.235211
    17  H    0.288163
    18  H    0.235211
    19  H    0.288121
    20  H    0.288165
 Sum of Mulliken charges =  -0.00000

 Dipole moment (field-independent basis, Debye):
    X=              0.0000    Y=              6.1156    Z=              0.0000  Tot=              6.1156
 Quadrupole moment (field-independent basis, Debye-Ang):
   XX=            -50.1488   YY=            -59.0967   ZZ=            -53.3436
   XY=             -0.0000   XZ=              0.0015   YZ=              0.0000

  Exact polarizability:     114.915       0.000      87.845      -0.001      -0.000      66.390
 Approx polarizability:      95.929       0.000     107.199      -0.001      -0.000      78.458

 Normal termination of Gaussian 16 at Mon Feb 10 14:55:34 2020.
