 Gaussian 16, Revision C.01,
 Gaussian 16:  ES64L-G16RevC.01  3-Jul-2019

 ------------------------------------------------
 #p wB97XD/aug-cc-pvtz NoSymm MaxDisk=100GB Polar
 ------------------------------------------------

 -----
 Polar
 -----
 Symbolic Z-matrix:
 Charge =  0 Multiplicity = 1

                          Input orientation:
 ---------------------------------------------------------------------
 Center     Atomic      Atomic             Coordinates (Angstroms)
 Number     Number       Type             X           Y           Z
 ---------------------------------------------------------------------
      1          8           0        1.685373   -0.608335   -0.124379
      2          8           0        0.571912    1.286376    0.069512
      3          7           0        0.640846    0.047976    0.012227
      4          6           0       -0.626493   -0.741146    0.163978
      5          6           0       -1.859006    0.088488   -0.121684
      6          1           0       -0.510006   -1.590565   -0.510358
      7          1           0       -0.603971   -1.116317    1.190931
      8          1           0       -1.938296    0.923725    0.573571
      9          1           0       -1.835629    0.484782   -1.138432
     10          1           0       -2.743303   -0.545831   -0.016127
 ---------------------------------------------------------------------

 SCF Done:  E(RwB97XD) =  -284.347249190     A.U. after   13 cycles

 Alpha  occ. eigenvalues --  -19.29797 -19.29557 -14.68315 -10.36231 -10.30545
 Alpha  occ. eigenvalues --   -1.32632  -1.15593  -0.94152  -0.81317  -0.70383
 Alpha  occ. eigenvalues --   -0.64516  -0.63577  -0.61070  -0.55314  -0.51618
 Alpha  occ. eigenvalues --   -0.49234  -0.46819  -0.40371  -0.40009  -0.38950
 Alpha virt. eigenvalues --   -0.01102   0.02555   0.04065   0.04241   0.04880
 Alpha virt. eigenvalues --    0.06515   0.09353   0.09833   0.10939   0.11677
 Alpha virt. eigenvalues --    0.11833   0.12444   0.13314   0.14309   0.15042

 Mulliken charges:
               1
     1  O   -0.668596
     2  O   -0.636492
     3  N    1.006338
     4  C   -0.362646
     5  C   -0.688546
     6  H    0.296522
     7  H    0.251863
     8  H    0.268715
     9  H    0.286512
    10  H    0.246330
 Sum of Mulliken charges =  -0.00000

 Dipole moment (field-independent basis, Debye):
    X=             -3.4593    Y=             -1.6949    Z=              0.3090  Tot=              3.8646
 Quadrupole moment (field-independent basis, Debye-Ang):
   XX=            -32.3773   YY=            -31.5705   ZZ=            -27.9321
   XY=              0.9678   XZ=              0.2712   YZ=             -0.4257

  Exact polarizability:      50.717      -3.220      48.071      -0.993       0.305      34.311
 Approx polarizability:      50.954      -8.101      59.916      -1.836       1.440      38.488

 Normal termination of Gaussian 16 at Mon Feb 10 13:13:09 2020.
