 Gaussian 16, Revision C.01,
 Gaussian 16:  ES64L-G16RevC.01  3-Jul-2019

 ------------------------------------------------
 #p wB97XD/aug-cc-pvtz NoSymm MaxDisk=100GB Polar
 ------------------------------------------------

 -----
 Polar
 -----
 Symbolic Z-matrix:
 Charge =  0 Multiplicity = 1

                          Input orientation:
 ---------------------------------------------------------------------
 Center     Atomic      Atomic             Coordinates (Angstroms)
 Number     Number       Type             X           Y           Z
 ---------------------------------------------------------------------
      1          8           0        2.290200    1.100444   -0.000131
      2          8           0        2.290200   -1.100444    0.000036
      3          7           0        1.713315    0.000000   -0.000037
      4          6           0        0.241770    0.000000   -0.000009
      5          6           0       -0.424866    1.222656    0.000042
      6          6           0       -0.424866   -1.222656   -0.000021
      7          6           0       -1.819532    1.210131    0.000070
      8          6           0       -1.819532   -1.210131    0.000004
      9          6           0       -2.518054    0.000000    0.000056
     10          1           0        0.141010    2.147478    0.000048
     11          1           0        0.141010   -2.147478   -0.000057
     12          1           0       -2.361467    2.152162    0.000113
     13          1           0       -2.361467   -2.152162   -0.000006
     14          1           0       -3.605010    0.000000    0.000074
 ---------------------------------------------------------------------

 SCF Done:  E(RwB97XD) =  -436.757120858     A.U. after   14 cycles

 Alpha  occ. eigenvalues --  -19.29437 -19.29436 -14.68743 -10.36572 -10.32892
 Alpha  occ. eigenvalues --  -10.32892 -10.32718 -10.32411 -10.32406  -1.32725
 Alpha  occ. eigenvalues --   -1.15478  -1.00128  -0.91571  -0.88084  -0.80781
 Alpha  occ. eigenvalues --   -0.73490  -0.69997  -0.66384  -0.62890  -0.61298
 Alpha  occ. eigenvalues --   -0.60711  -0.56623  -0.56005  -0.54083  -0.49022
 Alpha  occ. eigenvalues --   -0.47881  -0.46000  -0.40475  -0.40321  -0.38969
 Alpha  occ. eigenvalues --   -0.36721  -0.36325
 Alpha virt. eigenvalues --   -0.03777   0.02393   0.02496   0.03262   0.03942
 Alpha virt. eigenvalues --    0.05291   0.05455   0.05573   0.08481   0.08672
 Alpha virt. eigenvalues --    0.10308   0.10586   0.10610   0.10793   0.10863

 Mulliken charges:
               1
     1  O   -0.672358
     2  O   -0.672358
     3  N    0.853525
     4  C    0.553854
     5  C   -0.712922
     6  C   -0.712922
     7  C   -0.487611
     8  C   -0.487611
     9  C   -0.487507
    10  H    0.655308
    11  H    0.655308
    12  H    0.474960
    13  H    0.474960
    14  H    0.565372
 Sum of Mulliken charges =  -0.00000

 Dipole moment (field-independent basis, Debye):
    X=             -4.7354    Y=             -0.0000    Z=              0.0001  Tot=              4.7354
 Quadrupole moment (field-independent basis, Debye-Ang):
   XX=            -54.9326   YY=            -47.3251   ZZ=            -52.9476
   XY=             -0.0000   XZ=              0.0000   YZ=              0.0006

  Exact polarizability:     115.330      -0.000      97.887      -0.001      -0.000      50.125
 Approx polarizability:     121.100      -0.000     128.873      -0.001      -0.001      60.259

 Normal termination of Gaussian 16 at Mon Feb 10 13:44:49 2020.
