 Gaussian 16, Revision C.01,
 Gaussian 16:  ES64L-G16RevC.01  3-Jul-2019

 ------------------------------------------------
 #p wB97XD/aug-cc-pvtz NoSymm MaxDisk=100GB Polar
 ------------------------------------------------

 -----
 Polar
 -----
 Symbolic Z-matrix:
 Charge =  0 Multiplicity = 1

                          Input orientation:
 ---------------------------------------------------------------------
 Center     Atomic      Atomic             Coordinates (Angstroms)
 Number     Number       Type             X           Y           Z
 ---------------------------------------------------------------------
      1          8           0        0.950438    0.122824   -0.174191
      2          8           0        0.167008   -1.953806    0.378819
      3          7           0       -1.257398   -0.278816   -0.331619
      4          6           0       -1.438094    1.144588   -0.601525
      5          6           0       -1.508648    1.990893    0.665553
      6          6           0       -2.441660   -1.073165   -0.047616
      7          6           0       -0.039970   -0.805527   -0.000990
      8          6           0        2.276476   -0.382984    0.099110
      9          6           0        3.225688    0.775429   -0.109167
     10          1           0       -0.620080    1.481151   -1.239672
     11          1           0       -2.365068    1.236990   -1.177681
     12          1           0       -2.320237    1.656846    1.317761
     13          1           0       -0.566398    1.918008    1.212627
     14          1           0       -1.684365    3.042030    0.415806
     15          1           0       -2.945807   -0.738613    0.866960
     16          1           0       -2.136507   -2.110521    0.076590
     17          1           0       -3.141290   -0.993937   -0.884680
     18          1           0        2.309760   -0.765699    1.122378
     19          1           0        2.488128   -1.216074   -0.576564
     20          1           0        3.162449    1.144374   -1.135236
     21          1           0        2.985364    1.595327    0.571366
     22          1           0        4.253511    0.454282    0.082461
 ---------------------------------------------------------------------

 SCF Done:  E(RwB97XD) =  -441.718516259     A.U. after   13 cycles

 Alpha  occ. eigenvalues --  -19.28901 -19.21458 -14.46489 -10.42649 -10.33825
 Alpha  occ. eigenvalues --  -10.32405 -10.31218 -10.28136 -10.28070  -1.19896
 Alpha  occ. eigenvalues --   -1.10275  -1.04078  -0.87214  -0.86222  -0.80161
 Alpha  occ. eigenvalues --   -0.74576  -0.71449  -0.65032  -0.61768  -0.58611
 Alpha  occ. eigenvalues --   -0.57402  -0.55008  -0.52834  -0.52223  -0.49978
 Alpha  occ. eigenvalues --   -0.49220  -0.49034  -0.47511  -0.46974  -0.45686
 Alpha  occ. eigenvalues --   -0.44163  -0.44040  -0.42941  -0.37964  -0.35661
 Alpha  occ. eigenvalues --   -0.32193
 Alpha virt. eigenvalues --    0.02893   0.03467   0.03972   0.04088   0.05147
 Alpha virt. eigenvalues --    0.05270   0.05475   0.05930   0.06388   0.07539
 Alpha virt. eigenvalues --    0.07735   0.07990   0.08369   0.10020   0.10566

 Mulliken charges:
               1
     1  O   -0.061487
     2  O   -0.895563
     3  N    0.117442
     4  C   -0.380944
     5  C   -0.927710
     6  C   -0.945632
     7  C    0.571460
     8  C   -0.316155
     9  C   -0.910890
    10  H    0.265739
    11  H    0.304995
    12  H    0.258999
    13  H    0.353079
    14  H    0.251306
    15  H    0.308023
    16  H    0.360158
    17  H    0.306884
    18  H    0.308987
    19  H    0.314026
    20  H    0.229937
    21  H    0.239936
    22  H    0.247408
 Sum of Mulliken charges =  -0.00000

 Dipole moment (field-independent basis, Debye):
    X=             -0.5661    Y=              2.5121    Z=             -0.5365  Tot=              2.6304
 Quadrupole moment (field-independent basis, Debye-Ang):
   XX=            -46.7084   YY=            -61.5384   ZZ=            -55.9042
   XY=              0.1844   XZ=              0.5387   YZ=              1.2544

  Exact polarizability:     107.286      -0.582      93.553       1.401      -2.189      74.235
 Approx polarizability:      99.784      -2.435      99.484       2.160      -4.746      85.277

 Normal termination of Gaussian 16 at Mon Feb 10 14:45:05 2020.
