 Gaussian 16, Revision C.01,
 Gaussian 16:  ES64L-G16RevC.01  3-Jul-2019

 ------------------------------------------------
 #p wB97XD/aug-cc-pvtz NoSymm MaxDisk=100GB Polar
 ------------------------------------------------

 -----
 Polar
 -----
 Symbolic Z-matrix:
 Charge =  0 Multiplicity = 1

                          Input orientation:
 ---------------------------------------------------------------------
 Center     Atomic      Atomic             Coordinates (Angstroms)
 Number     Number       Type             X           Y           Z
 ---------------------------------------------------------------------
      1          8           0        1.603180   -0.732498   -0.000011
      2          8           0        0.617334    1.329424   -0.000032
      3          7           0       -0.625051   -0.615190   -0.000026
      4          6           0       -1.930111    0.012639    0.000039
      5          6           0        0.521056    0.108872    0.000032
      6          1           0       -0.539119   -1.621662    0.000069
      7          1           0       -2.500330   -0.265777   -0.890626
      8          1           0       -1.771479    1.090406   -0.000823
      9          1           0       -2.499701   -0.264421    0.891538
     10          1           0        2.376199   -0.136692   -0.000049
 ---------------------------------------------------------------------

 SCF Done:  E(RwB97XD) =  -284.474939377     A.U. after   13 cycles

 Alpha  occ. eigenvalues --  -19.29940 -19.22589 -14.47252 -10.44112 -10.32368
 Alpha  occ. eigenvalues --   -1.20894  -1.11062  -1.03634  -0.82192  -0.70376
 Alpha  occ. eigenvalues --   -0.65829  -0.57883  -0.56474  -0.54284  -0.51332
 Alpha  occ. eigenvalues --   -0.50441  -0.48273  -0.40861  -0.36979  -0.34964
 Alpha virt. eigenvalues --    0.02691   0.03799   0.04690   0.04759   0.06567
 Alpha virt. eigenvalues --    0.08764   0.09552   0.10177   0.11318   0.11756
 Alpha virt. eigenvalues --    0.11834   0.13341   0.13850   0.14841   0.15410

 Mulliken charges:
               1
     1  O   -0.337647
     2  O   -0.661733
     3  N    0.011116
     4  C   -0.686233
     5  C    0.498482
     6  H    0.057447
     7  H    0.275895
     8  H    0.359547
     9  H    0.275767
    10  H    0.207359
 Sum of Mulliken charges =  -0.00000

 Dipole moment (field-independent basis, Debye):
    X=             -1.1560    Y=             -2.3229    Z=              0.0002  Tot=              2.5947
 Quadrupole moment (field-independent basis, Debye-Ang):
   XX=            -23.0203   YY=            -32.7845   ZZ=            -30.1754
   XY=              0.7054   XZ=              0.0001   YZ=             -0.0003

  Exact polarizability:      53.306       1.913      44.276      -0.001       0.000      32.542
 Approx polarizability:      49.135       2.418      50.920      -0.001      -0.000      35.285

 1\1\GINC-NODE35\SP\RwB97XD\Aug-CC-pVTZ\C2H5N1O2\LIUCHW\10-Feb-2020\0\\
 #p wB97XD/aug-cc-pvtz NoSymm MaxDisk=100GB Polar\\Polar\\0,1\O,0,1.603
 18,-0.732498,-0.000011\O,0,0.617334,1.329424,-0.000032\N,0,-0.625051,-
 0.61519,-0.000026\C,0,-1.930111,0.012639,0.000039\C,0,0.521056,0.10887
 2,0.000032\H,0,-0.539119,-1.621662,0.000069\H,0,-2.50033,-0.265777,-0.
 890626\H,0,-1.771479,1.090406,-0.000823\H,0,-2.499701,-0.264421,0.8915
 38\H,0,2.376199,-0.136692,-0.000049\\Version=ES64L-G16RevC.01\HF=-284.
 4749394\RMSD=2.330e-09\Dipole=-0.454797,-0.9139114,0.000061\Polar=53.3

 Normal termination of Gaussian 16 at Mon Feb 10 13:11:50 2020.
