 Gaussian 16, Revision C.01,
 Gaussian 16:  ES64L-G16RevC.01  3-Jul-2019

 ------------------------------------------------
 #p wB97XD/aug-cc-pvtz NoSymm MaxDisk=100GB Polar
 ------------------------------------------------

 -----
 Polar
 -----
 Symbolic Z-matrix:
 Charge = -1 Multiplicity = 1

                          Input orientation:
 ---------------------------------------------------------------------
 Center     Atomic      Atomic             Coordinates (Angstroms)
 Number     Number       Type             X           Y           Z
 ---------------------------------------------------------------------
      1          8           0        0.701895   -1.149936    0.000013
      2          8           0        0.701886    1.149941    0.000013
      3          7           0       -1.257075   -0.000004   -0.000185
      4          6           0        0.180221    0.000000    0.000047
      5          1           0       -1.756025    0.873839    0.000401
      6          1           0       -1.756022   -0.873850    0.000401
 ---------------------------------------------------------------------

 SCF Done:  E(RwB97XD) =  -244.595764646     A.U. after   12 cycles

 Alpha  occ. eigenvalues --  -18.98435 -18.98435 -14.24271 -10.19524  -0.92561
 Alpha  occ. eigenvalues --   -0.83234  -0.76611  -0.44965  -0.41226  -0.32570
 Alpha  occ. eigenvalues --   -0.29525  -0.27917  -0.14474  -0.14074  -0.12988
 Alpha  occ. eigenvalues --   -0.11620
 Alpha virt. eigenvalues --    0.13521   0.15194   0.21319   0.21962   0.23448
 Alpha virt. eigenvalues --    0.24335   0.24892   0.27118   0.29084   0.31980
 Alpha virt. eigenvalues --    0.32861   0.35014   0.35263   0.35657   0.38246

 Mulliken charges:
               1
     1  O   -0.699111
     2  O   -0.699112
     3  N   -0.260816
     4  C    0.494542
     5  H    0.082248
     6  H    0.082249
 Sum of Mulliken charges =  -1.00000

 Dipole moment (field-independent basis, Debye):
    X=             -4.1987    Y=             -0.0000    Z=              0.0018  Tot=              4.1987
 Quadrupole moment (field-independent basis, Debye-Ang):
   XX=            -28.4427   YY=            -33.9879   ZZ=            -26.6787
   XY=              0.0000   XZ=             -0.0039   YZ=             -0.0000

  Exact polarizability:      47.314       0.000      46.226       0.001      -0.000      32.290
 Approx polarizability:      42.210      -0.000      46.970       0.000      -0.000      31.309

 Normal termination of Gaussian 16 at Mon Feb 10 13:09:01 2020.
