 Gaussian 16, Revision C.01,
 Gaussian 16:  ES64L-G16RevC.01  3-Jul-2019

 ------------------------------------------------
 #p wB97XD/aug-cc-pvtz NoSymm MaxDisk=100GB Polar
 ------------------------------------------------

 -----
 Polar
 -----
 Symbolic Z-matrix:
 Charge =  0 Multiplicity = 1

                          Input orientation:
 ---------------------------------------------------------------------
 Center     Atomic      Atomic             Coordinates (Angstroms)
 Number     Number       Type             X           Y           Z
 ---------------------------------------------------------------------
      1          8           0       -0.143473   -0.341826    0.000120
      2          8           0       -2.294348   -0.302220   -0.000302
      3          7           0       -1.333136    0.420779    0.000141
      4          6           0        0.994290    0.557775    0.000026
      5          6           0        2.226396   -0.319413    0.000035
      6          1           0        0.950428    1.193405   -0.889450
      7          1           0        0.950490    1.193507    0.889432
      8          1           0        3.126333    0.301880   -0.000035
      9          1           0        2.241608   -0.955966    0.886904
     10          1           0        2.241544   -0.956074   -0.886758
 ---------------------------------------------------------------------

 SCF Done:  E(RwB97XD) =  -284.339825937     A.U. after   14 cycles

 Alpha  occ. eigenvalues --  -19.32768 -19.32568 -14.62246 -10.35704 -10.29506
 Alpha  occ. eigenvalues --   -1.31029  -1.15983  -0.88776  -0.77680  -0.72554
 Alpha  occ. eigenvalues --   -0.63625  -0.60668  -0.58773  -0.55597  -0.50553
 Alpha  occ. eigenvalues --   -0.48667  -0.47039  -0.46430  -0.40109  -0.36420
 Alpha virt. eigenvalues --   -0.01426   0.02931   0.04155   0.04231   0.05109
 Alpha virt. eigenvalues --    0.06688   0.09106   0.09760   0.11102   0.12076
 Alpha virt. eigenvalues --    0.12224   0.12380   0.13297   0.13616   0.14499

 Mulliken charges:
               1
     1  O   -0.311134
     2  O   -0.378163
     3  N    0.190932
     4  C   -0.034439
     5  C   -0.824938
     6  H    0.281216
     7  H    0.281180
     8  H    0.268274
     9  H    0.263535
    10  H    0.263536
 Sum of Mulliken charges =  -0.00000

 Dipole moment (field-independent basis, Debye):
    X=              2.7625    Y=              1.0671    Z=              0.0001  Tot=              2.9614
 Quadrupole moment (field-independent basis, Debye-Ang):
   XX=            -31.1182   YY=            -30.5378   ZZ=            -28.4250
   XY=              0.0633   XZ=             -0.0006   YZ=             -0.0006

  Exact polarizability:      63.648       1.197      40.300       0.003       0.001      35.544
 Approx polarizability:      63.201       2.522      44.115       0.005       0.002      38.973

 Normal termination of Gaussian 16 at Mon Feb 10 13:23:59 2020.
