 Gaussian 16, Revision C.01,
 Gaussian 16:  ES64L-G16RevC.01  3-Jul-2019

 ------------------------------------------------
 #p wB97XD/aug-cc-pvtz NoSymm MaxDisk=100GB Polar
 ------------------------------------------------

 -----
 Polar
 -----
 Symbolic Z-matrix:
 Charge =  1 Multiplicity = 1

                          Input orientation:
 ---------------------------------------------------------------------
 Center     Atomic      Atomic             Coordinates (Angstroms)
 Number     Number       Type             X           Y           Z
 ---------------------------------------------------------------------
      1          7           0        1.938154   -0.000039    0.000019
      2          7           0        3.074970    0.000022   -0.000056
      3          6           0        0.547336   -0.000017    0.000014
      4          6           0       -0.094002   -1.247333    0.000008
      5          6           0       -0.093966    1.247316    0.000007
      6          6           0       -1.485359   -1.220988    0.000005
      7          6           0       -1.485324    1.221011    0.000003
      8          6           0       -2.172617    0.000022    0.000002
      9          1           0        0.469283   -2.176574    0.000010
     10          1           0        0.469346    2.176541    0.000008
     11          1           0       -2.033850   -2.158134    0.000004
     12          1           0       -2.033786    2.158175    0.000002
     13          1           0       -3.259266    0.000038   -0.000001
 ---------------------------------------------------------------------

 SCF Done:  E(RwB97XD) =  -340.830960990     A.U. after   13 cycles

 Alpha  occ. eigenvalues --  -14.83741 -14.80395 -10.57833 -10.51562 -10.51562
 Alpha  occ. eigenvalues --  -10.49594 -10.48892 -10.48890  -1.46760  -1.20966
 Alpha  occ. eigenvalues --   -1.12041  -1.05866  -0.99077  -0.91790  -0.86265
 Alpha  occ. eigenvalues --   -0.81694  -0.80736  -0.80186  -0.77880  -0.73410
 Alpha  occ. eigenvalues --   -0.71965  -0.71325  -0.66366  -0.64064  -0.63016
 Alpha  occ. eigenvalues --   -0.54314  -0.53423
 Alpha virt. eigenvalues --   -0.23496  -0.21269  -0.14044  -0.10781  -0.09052
 Alpha virt. eigenvalues --   -0.06649  -0.06271  -0.04502  -0.04293  -0.04227
 Alpha virt. eigenvalues --   -0.04006  -0.01425  -0.01244  -0.01139  -0.01106

 Mulliken charges:
               1
     1  N    0.372067
     2  N   -0.744836
     3  C    1.281541
     4  C   -0.662346
     5  C   -0.662352
     6  C   -0.375132
     7  C   -0.375144
     8  C   -0.269578
     9  H    0.492961
    10  H    0.492962
    11  H    0.467948
    12  H    0.467959
    13  H    0.513950
 Sum of Mulliken charges =   1.00000

 Dipole moment (field-independent basis, Debye):
    X=              0.9018    Y=             -0.0000    Z=              0.0000  Tot=              0.9018
 Quadrupole moment (field-independent basis, Debye-Ang):
   XX=            -21.2061   YY=            -30.9167   ZZ=            -45.3623
   XY=             -0.0001   XZ=             -0.0000   YZ=             -0.0000

  Exact polarizability:     123.395       0.000      78.549      -0.001      -0.000      42.630
 Approx polarizability:     149.857       0.001      94.261      -0.001      -0.000      51.535

 Normal termination of Gaussian 16 at Mon Feb 10 13:42:49 2020.
