 Gaussian 16, Revision C.01,
 Gaussian 16:  ES64L-G16RevC.01  3-Jul-2019

 ------------------------------------------------
 #p wB97XD/aug-cc-pvtz NoSymm MaxDisk=100GB Polar
 ------------------------------------------------

 -----
 Polar
 -----
 Symbolic Z-matrix:
 Charge =  0 Multiplicity = 1

                          Input orientation:
 ---------------------------------------------------------------------
 Center     Atomic      Atomic             Coordinates (Angstroms)
 Number     Number       Type             X           Y           Z
 ---------------------------------------------------------------------
      1          7           0        0.383360   -0.512537   -0.000124
      2          7           0       -0.383280    0.512036   -0.000365
      3          6           0        1.767230   -0.186195   -0.000023
      4          6           0       -1.767158    0.185805   -0.000125
      5          6           0        2.629655   -1.288966   -0.000410
      6          6           0       -2.282056   -1.120390    0.000425
      7          6           0        2.281741    1.120162    0.000443
      8          6           0       -2.629309    1.288836   -0.000405
      9          6           0        4.010237   -1.092724   -0.000378
     10          6           0       -3.661270   -1.304780    0.000447
     11          6           0        3.660893    1.305051    0.000518
     12          6           0       -4.009958    1.093100   -0.000343
     13          6           0        4.527631    0.204475    0.000145
     14          6           0       -4.527707   -0.203939    0.000144
     15          1           0        2.194174   -2.285002   -0.000828
     16          1           0       -1.594946   -1.960763    0.000731
     17          1           0        1.594279    1.960249    0.000718
     18          1           0       -2.193345    2.284662   -0.000750
     19          1           0        4.680828   -1.948446   -0.000632
     20          1           0       -4.069268   -2.312904    0.000972
     21          1           0        4.068495    2.313333    0.000824
     22          1           0       -4.680244    1.949058   -0.000476
     23          1           0        5.603653    0.361405    0.000024
     24          1           0       -5.603754   -0.360696    0.000222
 ---------------------------------------------------------------------

 SCF Done:  E(RwB97XD) =  -572.743501976     A.U. after   14 cycles

 Alpha  occ. eigenvalues --  -14.49173 -14.49128 -10.32593 -10.32593 -10.30294
 Alpha  occ. eigenvalues --  -10.30293 -10.30113 -10.30112 -10.30100 -10.30100
 Alpha  occ. eigenvalues --  -10.30041 -10.30041 -10.29927 -10.29926  -1.13045
 Alpha  occ. eigenvalues --   -0.97832  -0.95949  -0.90076  -0.85588  -0.85527
 Alpha  occ. eigenvalues --   -0.84289  -0.77930  -0.71729  -0.71249  -0.69473
 Alpha  occ. eigenvalues --   -0.66216  -0.62382  -0.60093  -0.57514  -0.56483
 Alpha  occ. eigenvalues --   -0.54417  -0.53310  -0.52281  -0.51769  -0.51691
 Alpha  occ. eigenvalues --   -0.51426  -0.48846  -0.47307  -0.44996  -0.44679
 Alpha  occ. eigenvalues --   -0.44265  -0.43113  -0.43090  -0.35855  -0.34021
 Alpha  occ. eigenvalues --   -0.33968  -0.32658  -0.30458
 Alpha virt. eigenvalues --   -0.03147   0.03014   0.03106   0.03501   0.04095
 Alpha virt. eigenvalues --    0.04137   0.04521   0.04883   0.05346   0.05550
 Alpha virt. eigenvalues --    0.06038   0.06406   0.07601   0.08390   0.09038

 Mulliken charges:
               1
     1  N   -0.380696
     2  N   -0.380097
     3  C    0.932486
     4  C    0.931981
     5  C   -0.927728
     6  C   -0.741337
     7  C   -0.741272
     8  C   -0.927586
     9  C   -0.517827
    10  C   -0.719333
    11  C   -0.719645
    12  C   -0.517880
    13  C   -0.432868
    14  C   -0.432755
    15  H    0.585629
    16  H    0.669758
    17  H    0.669929
    18  H    0.585652
    19  H    0.510632
    20  H    0.479478
    21  H    0.479507
    22  H    0.510607
    23  H    0.541684
    24  H    0.541681
 Sum of Mulliken charges =  -0.00000

 Dipole moment (field-independent basis, Debye):
    X=             -0.0004    Y=              0.0003    Z=              0.0004  Tot=              0.0006
 Quadrupole moment (field-independent basis, Debye-Ang):
   XX=            -63.4057   YY=            -72.8350   ZZ=            -87.1509
   XY=             -0.0573   XZ=             -0.0020   YZ=              0.0005

  Exact polarizability:     300.112      -4.091     158.356       0.000       0.000      87.674
 Approx polarizability:     265.903      -9.776     198.574       0.002      -0.000     107.936

 Normal termination of Gaussian 16 at Mon Apr 25 23:34:13 2011.
