 Gaussian 16, Revision C.01,
 Gaussian 16:  ES64L-G16RevC.01  3-Jul-2019

 ------------------------------------------------
 #p wB97XD/aug-cc-pvtz NoSymm MaxDisk=100GB Polar
 ------------------------------------------------

 -----
 Polar
 -----
 Symbolic Z-matrix:
 Charge =  0 Multiplicity = 1

                          Input orientation:
 ---------------------------------------------------------------------
 Center     Atomic      Atomic             Coordinates (Angstroms)
 Number     Number       Type             X           Y           Z
 ---------------------------------------------------------------------
      1         16           0        0.455812    0.226123   -0.438036
      2          8           0        0.461844    1.499932    0.380861
      3          6           0       -0.900632   -0.802908    0.198236
      4          6           0       -2.220586   -0.070224    0.003805
      5          6           0        1.795750   -0.822017    0.176717
      6          1           0       -0.876200   -1.758474   -0.337562
      7          1           0       -0.707495   -0.982475    1.261593
      8          1           0       -2.183796    0.897117    0.508918
      9          1           0       -2.426133    0.100372   -1.056629
     10          1           0       -3.043748   -0.654148    0.422637
     11          1           0        2.739437   -0.353111   -0.107893
     12          1           0        1.729063   -1.818194   -0.268524
     13          1           0        1.733931   -0.877629    1.266604
 ---------------------------------------------------------------------

 SCF Done:  E(RwB97XD) =  -592.548805581     A.U. after   13 cycles

 Alpha  occ. eigenvalues --  -89.15252 -19.20764 -10.32244 -10.31705 -10.28947
 Alpha  occ. eigenvalues --   -8.14992  -6.09843  -6.09801  -6.09227  -1.10208
 Alpha  occ. eigenvalues --   -0.90915  -0.85565  -0.75595  -0.68588  -0.57154
 Alpha  occ. eigenvalues --   -0.56164  -0.53626  -0.52961  -0.49749  -0.46513
 Alpha  occ. eigenvalues --   -0.45968  -0.45462  -0.43338  -0.35189  -0.31191
 Alpha virt. eigenvalues --    0.02702   0.03470   0.04211   0.04602   0.05740
 Alpha virt. eigenvalues --    0.05996   0.06611   0.07381   0.08552   0.09041
 Alpha virt. eigenvalues --    0.09825   0.10988   0.11532   0.11597   0.12511

 Mulliken charges:
               1
     1  S    0.825257
     2  O   -0.908955
     3  C   -0.340717
     4  C   -0.892446
     5  C   -0.805956
     6  H    0.320747
     7  H    0.238975
     8  H    0.306013
     9  H    0.276378
    10  H    0.228039
    11  H    0.215029
    12  H    0.292651
    13  H    0.244985
 Sum of Mulliken charges =  -0.00000

 Dipole moment (field-independent basis, Debye):
    X=             -0.2601    Y=             -4.1473    Z=             -0.4442  Tot=              4.1791
 Quadrupole moment (field-independent basis, Debye-Ang):
   XX=            -34.4272   YY=            -43.0406   ZZ=            -39.6241
   XY=             -2.0890   XZ=             -0.4623   YZ=             -1.6023

  Exact polarizability:      75.440      -1.475      65.171       0.370       0.080      55.482
 Approx polarizability:      71.931      -0.306      75.848      -0.059       2.033      63.688

 1\1\GINC-NODE35\SP\RwB97XD\Aug-CC-pVTZ\C3H8O1S1\LIUCHW\10-Feb-2020\0\\
 #p wB97XD/aug-cc-pvtz NoSymm MaxDisk=100GB Polar\\Polar\\0,1\S,0,0.455
 812,0.226123,-0.438036\O,0,0.461844,1.499932,0.380861\C,0,-0.900632,-0
 .802908,0.198236\C,0,-2.220586,-0.070224,0.003805\C,0,1.79575,-0.82201
 7,0.176717\H,0,-0.8762,-1.758474,-0.337562\H,0,-0.707495,-0.982475,1.2
 61593\H,0,-2.183796,0.897117,0.508918\H,0,-2.426133,0.100372,-1.056629
 \H,0,-3.043748,-0.654148,0.422637\H,0,2.739437,-0.353111,-0.107893\H,0
 ,1.729063,-1.818194,-0.268524\H,0,1.733931,-0.877629,1.266604\\Version

 Normal termination of Gaussian 16 at Mon Feb 10 13:30:38 2020.
