 Gaussian 16, Revision C.01,
 Gaussian 16:  ES64L-G16RevC.01  3-Jul-2019

 ------------------------------------------------
 #p wB97XD/aug-cc-pvtz NoSymm MaxDisk=100GB Polar
 ------------------------------------------------

 -----
 Polar
 -----
 Symbolic Z-matrix:
 Charge =  0 Multiplicity = 1

                          Input orientation:
 ---------------------------------------------------------------------
 Center     Atomic      Atomic             Coordinates (Angstroms)
 Number     Number       Type             X           Y           Z
 ---------------------------------------------------------------------
      1         16           0       -0.421478   -0.155404    0.015808
      2          8           0       -1.540555    0.982223   -0.385747
      3          8           0       -0.640297   -0.477222    1.426904
      4          8           0       -0.422017   -1.195704   -1.003391
      5          6           0        1.048288    0.831611   -0.171204
      6          6           0        2.287468   -0.022806    0.068524
      7          1           0        1.017235    1.239084   -1.184764
      8          1           0        0.962817    1.651656    0.545227
      9          1           0        3.179880    0.597939   -0.035757
     10          1           0        2.275120   -0.446182    1.075066
     11          1           0        2.339977   -0.836963   -0.656292
     12          1           0       -2.222962    0.953713    0.317541
 ---------------------------------------------------------------------

 SCF Done:  E(RwB97XD) =  -703.705977011     A.U. after   13 cycles

 Alpha  occ. eigenvalues --  -89.29137 -19.32021 -19.26347 -19.26164 -10.34606
 Alpha  occ. eigenvalues --  -10.30715  -8.26991  -6.22086  -6.21744  -6.21709
 Alpha  occ. eigenvalues --   -1.25115  -1.14738  -1.11840  -0.92320  -0.80384
 Alpha  occ. eigenvalues --   -0.71766  -0.64726  -0.60966  -0.59151  -0.56370
 Alpha  occ. eigenvalues --   -0.53701  -0.51624  -0.49328  -0.47260  -0.46776
 Alpha  occ. eigenvalues --   -0.43983  -0.41847  -0.41033  -0.39864
 Alpha virt. eigenvalues --    0.02520   0.03349   0.04444   0.04603   0.05918
 Alpha virt. eigenvalues --    0.06666   0.08891   0.09616   0.09854   0.10080
 Alpha virt. eigenvalues --    0.10987   0.11447   0.12312   0.13039   0.13213

 Mulliken charges:
               1
     1  S    2.006088
     2  O   -0.520839
     3  O   -0.881355
     4  O   -0.885608
     5  C   -0.328681
     6  C   -0.837469
     7  H    0.239921
     8  H    0.239250
     9  H    0.234074
    10  H    0.278450
    11  H    0.278726
    12  H    0.177442
 Sum of Mulliken charges =  -0.00000

 Dipole moment (field-independent basis, Debye):
    X=              1.5580    Y=              3.1321    Z=              0.2143  Tot=              3.5048
 Quadrupole moment (field-independent basis, Debye-Ang):
   XX=            -35.2105   YY=            -44.4790   ZZ=            -47.6598
   XY=             -1.2614   XZ=             -1.8893   YZ=              0.1715

  Exact polarizability:      63.845      -0.567      54.186      -0.863       0.394      53.879
 Approx polarizability:      61.695      -1.056      61.871      -1.505       1.279      65.910

 1\1\GINC-GENOME\SP\RwB97XD\Aug-CC-pVTZ\C2H6O3S1\LIUCHW\10-Feb-2020\0\\
 #p wB97XD/aug-cc-pvtz NoSymm MaxDisk=100GB Polar\\Polar\\0,1\S,0,-0.42
 1478,-0.155404,0.015808\O,0,-1.540555,0.982223,-0.385747\O,0,-0.640297
 ,-0.477222,1.426904\O,0,-0.422017,-1.195704,-1.003391\C,0,1.048288,0.8
 31611,-0.171204\C,0,2.287468,-0.022806,0.068524\H,0,1.017235,1.239084,
 -1.184764\H,0,0.962817,1.651656,0.545227\H,0,3.17988,0.597939,-0.03575
 7\H,0,2.27512,-0.446182,1.075066\H,0,2.339977,-0.836963,-0.656292\H,0,
 -2.222962,0.953713,0.317541\\Version=ES64L-G16RevC.01\HF=-703.705977\R

 Normal termination of Gaussian 16 at Mon Feb 10 13:41:19 2020.
