 Gaussian 16, Revision C.01,
 Gaussian 16:  ES64L-G16RevC.01  3-Jul-2019

 ------------------------------------------------
 #p wB97XD/aug-cc-pvtz NoSymm MaxDisk=100GB Polar
 ------------------------------------------------

 -----
 Polar
 -----
 Symbolic Z-matrix:
 Charge = -1 Multiplicity = 1

                          Input orientation:
 ---------------------------------------------------------------------
 Center     Atomic      Atomic             Coordinates (Angstroms)
 Number     Number       Type             X           Y           Z
 ---------------------------------------------------------------------
      1         16           0        0.540124   -0.056732    0.000000
      2          8           0        0.487424   -0.864786   -1.251288
      3          8           0        1.575894    1.012150   -0.000006
      4          8           0        0.487417   -0.864761    1.251304
      5          6           0       -1.023602    0.853073   -0.000011
      6          6           0       -2.222786   -0.081737    0.000001
      7          1           0       -1.014306    1.494276    0.886783
      8          1           0       -1.014304    1.494250   -0.886825
      9          1           0       -3.167931    0.474451   -0.000010
     10          1           0       -2.186495   -0.722066   -0.884236
     11          1           0       -2.186499   -0.722039    0.884258
 ---------------------------------------------------------------------

 SCF Done:  E(RwB97XD) =  -703.182399616     A.U. after   12 cycles

 Alpha  occ. eigenvalues --  -89.06385 -19.03561 -19.03559 -19.03558 -10.15074
 Alpha  occ. eigenvalues --  -10.14439  -8.03972  -5.98898  -5.98843  -5.98840
 Alpha  occ. eigenvalues --   -1.01452  -0.88015  -0.87953  -0.73055  -0.59815
 Alpha  occ. eigenvalues --   -0.48287  -0.40531  -0.40413  -0.36357  -0.35064
 Alpha  occ. eigenvalues --   -0.33546  -0.31344  -0.29362  -0.23174  -0.23152
 Alpha  occ. eigenvalues --   -0.19437  -0.19381  -0.18443  -0.15430
 Alpha virt. eigenvalues --    0.11743   0.13679   0.13867   0.14929   0.15856
 Alpha virt. eigenvalues --    0.20118   0.20384   0.21352   0.21624   0.22677
 Alpha virt. eigenvalues --    0.23753   0.24348   0.24506   0.26329   0.26497

 Mulliken charges:
               1
     1  S    1.935349
     2  O   -0.947066
     3  O   -0.954623
     4  O   -0.947066
     5  C   -0.476691
     6  C   -0.961705
     7  H    0.249243
     8  H    0.249244
     9  H    0.262270
    10  H    0.295522
    11  H    0.295522
 Sum of Mulliken charges =  -1.00000

 Dipole moment (field-independent basis, Debye):
    X=             -4.9027    Y=              1.7794    Z=             -0.0000  Tot=              5.2156
 Quadrupole moment (field-independent basis, Debye-Ang):
   XX=            -53.6755   YY=            -51.8539   ZZ=            -53.4823
   XY=             -2.5722   XZ=              0.0000   YZ=             -0.0000

  Exact polarizability:      71.491       0.120      62.391      -0.000      -0.000      60.684
 Approx polarizability:      68.090       1.640      68.446      -0.000       0.000      68.984

 Normal termination of Gaussian 16 at Mon Feb 10 13:41:45 2020.
