 Gaussian 16, Revision C.01,
 Gaussian 16:  ES64L-G16RevC.01  3-Jul-2019

 ------------------------------------------------
 #p wB97XD/aug-cc-pvtz NoSymm MaxDisk=100GB Polar
 ------------------------------------------------

 -----
 Polar
 -----
 Symbolic Z-matrix:
 Charge =  0 Multiplicity = 1

                          Input orientation:
 ---------------------------------------------------------------------
 Center     Atomic      Atomic             Coordinates (Angstroms)
 Number     Number       Type             X           Y           Z
 ---------------------------------------------------------------------
      1         16           0       -1.465967   -0.014351   -0.137559
      2          8           0       -1.839492   -0.136542    1.459129
      3          8           0       -1.943591    1.298021   -0.571883
      4          8           0       -1.896445   -1.250521   -0.770004
      5          6           0        0.301645   -0.002164   -0.077786
      6          6           0        0.982811   -1.219538   -0.016625
      7          6           0        0.971399    1.222497   -0.076647
      8          6           0        2.375658   -1.201184    0.052446
      9          6           0        2.365170    1.220763   -0.011879
     10          6           0        3.065517    0.014132    0.058720
     11          1           0        0.431126   -2.154810   -0.041395
     12          1           0        0.410246    2.149535   -0.149985
     13          1           0        2.923421   -2.138771    0.097839
     14          1           0        2.904527    2.164328   -0.018911
     15          1           0        4.151352    0.020267    0.109149
     16          1           0       -2.302164    0.694362    1.696929
 ---------------------------------------------------------------------

 SCF Done:  E(RwB97XD) =  -856.111539601     A.U. after   14 cycles

 Alpha  occ. eigenvalues --  -89.29493 -19.31806 -19.26521 -19.26297 -10.34708
 Alpha  occ. eigenvalues --  -10.32862 -10.32812 -10.32433 -10.32175 -10.32143
 Alpha  occ. eigenvalues --   -8.27301  -6.22378  -6.22069  -6.22044  -1.25272
 Alpha  occ. eigenvalues --   -1.14581  -1.12213  -0.99315  -0.89602  -0.87820
 Alpha  occ. eigenvalues --   -0.79161  -0.73246  -0.71409  -0.66172  -0.62998
 Alpha  occ. eigenvalues --   -0.59662  -0.58372  -0.56716  -0.55773  -0.53818
 Alpha  occ. eigenvalues --   -0.53435  -0.49725  -0.48333  -0.46339  -0.45756
 Alpha  occ. eigenvalues --   -0.44260  -0.42314  -0.41555  -0.40483  -0.36309
 Alpha  occ. eigenvalues --   -0.36108
 Alpha virt. eigenvalues --    0.00514   0.02406   0.02585   0.03201   0.03480
 Alpha virt. eigenvalues --    0.04562   0.05465   0.06145   0.07938   0.08754
 Alpha virt. eigenvalues --    0.09466   0.10296   0.10336   0.10549   0.10733

 Mulliken charges:
               1
     1  S    2.105355
     2  O   -0.511117
     3  O   -0.899180
     4  O   -0.897177
     5  C    0.762421
     6  C   -0.964346
     7  C   -0.963824
     8  C   -0.472315
     9  C   -0.521823
    10  C   -0.422243
    11  H    0.531583
    12  H    0.518163
    13  H    0.495092
    14  H    0.515622
    15  H    0.566292
    16  H    0.157497
 Sum of Mulliken charges =  -0.00000

 Dipole moment (field-independent basis, Debye):
    X=              3.8847    Y=              1.0565    Z=              2.0697  Tot=              4.5267
 Quadrupole moment (field-independent basis, Debye-Ang):
   XX=            -59.8539   YY=            -61.8004   ZZ=            -67.0683
   XY=             -2.8963   XZ=             -5.7966   YZ=              2.0333

  Exact polarizability:     126.857      -0.596     103.530       0.786       0.193      68.884
 Approx polarizability:     129.392      -0.718     131.815       2.294       0.095      83.346

 Normal termination of Gaussian 16 at Mon Feb 10 15:13:19 2020.
