 Gaussian 16, Revision C.01,
 Gaussian 16:  ES64L-G16RevC.01  3-Jul-2019

 ------------------------------------------------
 #p wB97XD/aug-cc-pvtz NoSymm MaxDisk=100GB Polar
 ------------------------------------------------

 -----
 Polar
 -----
 Symbolic Z-matrix:
 Charge = -1 Multiplicity = 1

                          Input orientation:
 ---------------------------------------------------------------------
 Center     Atomic      Atomic             Coordinates (Angstroms)
 Number     Number       Type             X           Y           Z
 ---------------------------------------------------------------------
      1         16           0       -1.550065   -0.000077    0.005504
      2          8           0       -1.867726   -0.004031    1.456813
      3          8           0       -1.917342    1.254861   -0.701345
      4          8           0       -1.917959   -1.250455   -0.709099
      5          6           0        0.257702    0.000060   -0.038021
      6          6           0        0.959857   -1.208245   -0.026456
      7          6           0        0.960099    1.208248   -0.026686
      8          6           0        2.355676   -1.207915    0.002497
      9          6           0        2.355946    1.207751    0.002177
     10          6           0        3.059393   -0.000122    0.021785
     11          1           0        0.393980   -2.135410   -0.062956
     12          1           0        0.394259    2.135437   -0.063264
     13          1           0        2.898210   -2.152445    0.006383
     14          1           0        2.898671    2.152187    0.005835
     15          1           0        4.148091   -0.000199    0.043214
 ---------------------------------------------------------------------

 SCF Done:  E(RwB97XD) =  -855.593262203     A.U. after   13 cycles

 Alpha  occ. eigenvalues --  -89.08183 -19.05057 -19.05049 -19.05029 -10.18521
 Alpha  occ. eigenvalues --  -10.18303 -10.18295 -10.17834 -10.17408 -10.17404
 Alpha  occ. eigenvalues --   -8.05724  -6.00700  -6.00583  -6.00575  -1.03143
 Alpha  occ. eigenvalues --   -0.89668  -0.89523  -0.84155  -0.73423  -0.73081
 Alpha  occ. eigenvalues --   -0.59801  -0.58369  -0.52589  -0.48082  -0.42515
 Alpha  occ. eigenvalues --   -0.42441  -0.40696  -0.39217  -0.37002  -0.36235
 Alpha  occ. eigenvalues --   -0.34318  -0.33332  -0.30851  -0.24729  -0.24685
 Alpha  occ. eigenvalues --   -0.23845  -0.21798  -0.21036  -0.20516  -0.18790
 Alpha  occ. eigenvalues --   -0.16826
 Alpha virt. eigenvalues --    0.10093   0.10854   0.11771   0.14073   0.14480
 Alpha virt. eigenvalues --    0.16131   0.16636   0.17895   0.19259   0.19445
 Alpha virt. eigenvalues --    0.19586   0.19752   0.20224   0.20425   0.20958

 Mulliken charges:
               1
     1  S    1.937348
     2  O   -0.941460
     3  O   -0.952774
     4  O   -0.952643
     5  C    0.840454
     6  C   -0.958942
     7  C   -0.959732
     8  C   -0.592425
     9  C   -0.593020
    10  C   -0.535678
    11  H    0.521676
    12  H    0.521243
    13  H    0.544008
    14  H    0.544909
    15  H    0.577034
 Sum of Mulliken charges =  -1.00000

 Dipole moment (field-independent basis, Debye):
    X=              8.3683    Y=             -0.0014    Z=             -0.1111  Tot=              8.3690
 Quadrupole moment (field-independent basis, Debye-Ang):
   XX=            -88.0029   YY=            -70.6770   ZZ=            -77.8643
   XY=              0.0029   XZ=              0.0259   YZ=             -0.0013

  Exact polarizability:     136.889       0.008     110.560      -0.039      -0.002      76.913
 Approx polarizability:     136.077       0.014     134.369       0.099       0.001      92.200

 Normal termination of Gaussian 16 at Mon Feb 10 14:35:48 2020.
