 Gaussian 16, Revision C.01,
 Gaussian 16:  ES64L-G16RevC.01  3-Jul-2019

 ------------------------------------------------
 #p wB97XD/aug-cc-pvtz NoSymm MaxDisk=100GB Polar
 ------------------------------------------------

 -----
 Polar
 -----
 Symbolic Z-matrix:
 Charge =  0 Multiplicity = 1

                          Input orientation:
 ---------------------------------------------------------------------
 Center     Atomic      Atomic             Coordinates (Angstroms)
 Number     Number       Type             X           Y           Z
 ---------------------------------------------------------------------
      1          8           0       -0.181634   -0.458190   -0.000152
      2          8           0        1.190244    1.353689    0.000085
      3          6           0       -1.306203    0.455044    0.000022
      4          6           0       -2.554926   -0.396656    0.000069
      5          6           0        1.035449    0.143835   -0.000170
      6          6           0        2.132955   -0.885999    0.000042
      7          1           0       -1.241254    1.096357    0.883299
      8          1           0       -1.241411    1.096489   -0.883172
      9          1           0       -3.442401    0.242535    0.000194
     10          1           0       -2.584967   -1.033024   -0.886825
     11          1           0       -2.584813   -1.033153    0.886876
     12          1           0        2.041663   -1.524842   -0.881519
     13          1           0        2.042271   -1.523754    0.882464
     14          1           0        3.098391   -0.381943   -0.000552
 ---------------------------------------------------------------------

 SCF Done:  E(RwB97XD) =  -307.726797050     A.U. after   12 cycles

 Alpha  occ. eigenvalues --  -19.29939 -19.23939 -10.42054 -10.34414 -10.29691
 Alpha  occ. eigenvalues --  -10.28509  -1.20369  -1.11450  -0.88785  -0.83989
 Alpha  occ. eigenvalues --   -0.73359  -0.66323  -0.58901  -0.58408  -0.56059
 Alpha  occ. eigenvalues --   -0.53582  -0.50408  -0.48864  -0.47779  -0.46959
 Alpha  occ. eigenvalues --   -0.44067  -0.43899  -0.38958  -0.36211
 Alpha virt. eigenvalues --    0.03013   0.03653   0.04253   0.04501   0.05719
 Alpha virt. eigenvalues --    0.05814   0.06225   0.06968   0.07936   0.09236
 Alpha virt. eigenvalues --    0.10649   0.10900   0.11611   0.12185   0.12676

 Mulliken charges:
               1
     1  O   -0.201453
     2  O   -0.719812
     3  C   -0.193606
     4  C   -0.889778
     5  C    0.468901
     6  C   -0.581427
     7  H    0.292662
     8  H    0.292639
     9  H    0.282426
    10  H    0.239348
    11  H    0.239342
    12  H    0.239887
    13  H    0.239906
    14  H    0.290967
 Sum of Mulliken charges =  -0.00000

 Dipole moment (field-independent basis, Debye):
    X=             -0.9868    Y=             -1.8452    Z=              0.0000  Tot=              2.0926
 Quadrupole moment (field-independent basis, Debye-Ang):
   XX=            -32.8121   YY=            -40.5658   ZZ=            -35.5574
   XY=             -5.2471   XZ=             -0.0002   YZ=             -0.0007

  Exact polarizability:      70.297      -0.183      58.783       0.001       0.000      47.159
 Approx polarizability:      62.241       1.666      66.141       0.001       0.001      52.962

 Normal termination of Gaussian 16 at Mon Feb 10 14:13:50 2020.
