 Gaussian 16, Revision C.01,
 Gaussian 16:  ES64L-G16RevC.01  3-Jul-2019

 ------------------------------------------------
 #p wB97XD/aug-cc-pvtz NoSymm MaxDisk=100GB Polar
 ------------------------------------------------

 -----
 Polar
 -----
 Symbolic Z-matrix:
 Charge =  0 Multiplicity = 1

                          Input orientation:
 ---------------------------------------------------------------------
 Center     Atomic      Atomic             Coordinates (Angstroms)
 Number     Number       Type             X           Y           Z
 ---------------------------------------------------------------------
      1         16           0       -0.847606   -0.163702    0.000003
      2          8           0        0.635633    0.529781   -0.000016
      3          8           0       -1.048985   -0.865766    1.266205
      4          8           0       -1.049000   -0.865806   -1.266173
      5          6           0        1.732505   -0.436353   -0.000012
      6          6           0       -1.765329    1.351486   -0.000014
      7          6           0        3.006793    0.374082    0.000006
      8          1           0        1.643171   -1.062026    0.892350
      9          1           0        1.643189   -1.062013   -0.892385
     10          1           0       -2.822265    1.080922    0.000009
     11          1           0       -1.515415    1.913680    0.899017
     12          1           0       -1.515444    1.913641   -0.899078
     13          1           0        3.869133   -0.298667    0.000008
     14          1           0        3.057171    1.006371   -0.888517
     15          1           0        3.057156    1.006355    0.888543
 ---------------------------------------------------------------------

 SCF Done:  E(RwB97XD) =  -743.009769930     A.U. after   13 cycles

 Alpha  occ. eigenvalues --  -89.28587 -19.30961 -19.25526 -19.25525 -10.35825
 Alpha  occ. eigenvalues --  -10.33613 -10.29388  -8.26414  -6.21479  -6.21183
 Alpha  occ. eigenvalues --   -6.21160  -1.24304  -1.14230  -1.10998  -0.90527
 Alpha  occ. eigenvalues --   -0.86555  -0.75046  -0.70248  -0.63159  -0.59390
 Alpha  occ. eigenvalues --   -0.59349  -0.56703  -0.54187  -0.52504  -0.52026
 Alpha  occ. eigenvalues --   -0.49073  -0.48120  -0.47158  -0.42794  -0.42559
 Alpha  occ. eigenvalues --   -0.40962  -0.40826  -0.38186
 Alpha virt. eigenvalues --    0.02770   0.03476   0.04357   0.04386   0.05497
 Alpha virt. eigenvalues --    0.05793   0.06283   0.07133   0.08926   0.10081
 Alpha virt. eigenvalues --    0.10706   0.11028   0.11648   0.12116   0.12156

 Mulliken charges:
               1
     1  S    2.191235
     2  O   -0.465037
     3  O   -0.924286
     4  O   -0.924287
     5  C   -0.259794
     6  C   -0.831638
     7  C   -0.859592
     8  H    0.292378
     9  H    0.292370
    10  H    0.252211
    11  H    0.236246
    12  H    0.236245
    13  H    0.278335
    14  H    0.242806
    15  H    0.242807
 Sum of Mulliken charges =  -0.00000

 Dipole moment (field-independent basis, Debye):
    X=              1.4276    Y=              2.9879    Z=             -0.0001  Tot=              3.3114
 Quadrupole moment (field-independent basis, Debye-Ang):
   XX=            -41.5477   YY=            -49.0669   ZZ=            -54.2439
   XY=             -7.4221   XZ=              0.0000   YZ=             -0.0000

  Exact polarizability:      80.839      -2.392      66.331       0.000       0.000      63.579
 Approx polarizability:      74.998      -0.041      73.888       0.000       0.000      76.845

 1\1\GINC-GENOME\SP\RwB97XD\Aug-CC-pVTZ\C3H8O3S1\LIUCHW\10-Feb-2020\0\\
 #p wB97XD/aug-cc-pvtz NoSymm MaxDisk=100GB Polar\\Polar\\0,1\S,0,-0.84
 7606,-0.163702,0.000003\O,0,0.635633,0.529781,-0.000016\O,0,-1.048985,
 -0.865766,1.266205\O,0,-1.049,-0.865806,-1.266173\C,0,1.732505,-0.4363
 53,-0.000012\C,0,-1.765329,1.351486,-0.000014\C,0,3.006793,0.374082,0.
 000006\H,0,1.643171,-1.062026,0.89235\H,0,1.643189,-1.062013,-0.892385
 \H,0,-2.822265,1.080922,0.000009\H,0,-1.515415,1.91368,0.899017\H,0,-1
 .515444,1.913641,-0.899078\H,0,3.869133,-0.298667,0.000008\H,0,3.05717

 Normal termination of Gaussian 16 at Mon Feb 10 14:16:38 2020.
