 Gaussian 16, Revision C.01,
 Gaussian 16:  ES64L-G16RevC.01  3-Jul-2019

 ------------------------------------------------
 #p wB97XD/aug-cc-pvtz NoSymm MaxDisk=100GB Polar
 ------------------------------------------------

 -----
 Polar
 -----
 Symbolic Z-matrix:
 Charge =  0 Multiplicity = 1

                          Input orientation:
 ---------------------------------------------------------------------
 Center     Atomic      Atomic             Coordinates (Angstroms)
 Number     Number       Type             X           Y           Z
 ---------------------------------------------------------------------
      1         16           0        0.126470   -0.774246    0.000011
      2          7           0        2.664851    0.590919   -0.000026
      3          6           0       -0.983522    0.682739    0.000051
      4          6           0       -2.424284    0.189164   -0.000038
      5          6           0        1.614906    0.039034   -0.000008
      6          1           0       -0.771806    1.280390    0.888685
      7          1           0       -0.771689    1.280511   -0.888474
      8          1           0       -2.638127   -0.411518   -0.887452
      9          1           0       -2.638287   -0.411497    0.887354
     10          1           0       -3.100178    1.047989   -0.000139
 ---------------------------------------------------------------------

 SCF Done:  E(RwB97XD) =  -570.263307117     A.U. after   13 cycles

 Alpha  occ. eigenvalues --  -89.10969 -14.45042 -10.35410 -10.35208 -10.31185
 Alpha  occ. eigenvalues --   -8.11815  -6.06862  -6.06395  -6.05802  -1.00772
 Alpha  occ. eigenvalues --   -0.94403  -0.85759  -0.73733  -0.61612  -0.58142
 Alpha  occ. eigenvalues --   -0.52086  -0.50479  -0.48342  -0.47082  -0.45456
 Alpha  occ. eigenvalues --   -0.45240  -0.40816  -0.34610
 Alpha virt. eigenvalues --    0.02143   0.03513   0.03939   0.04020   0.04740
 Alpha virt. eigenvalues --    0.06316   0.07042   0.08483   0.08583   0.08669
 Alpha virt. eigenvalues --    0.09862   0.10881   0.11313   0.11802   0.12546

 Mulliken charges:
               1
     1  S    0.221657
     2  N   -0.468234
     3  C   -0.273836
     4  C   -0.856465
     5  C    0.092294
     6  H    0.253461
     7  H    0.253459
     8  H    0.270820
     9  H    0.270821
    10  H    0.236024
 Sum of Mulliken charges =  -0.00000

 Dipole moment (field-independent basis, Debye):
    X=             -4.7112    Y=             -0.0355    Z=              0.0001  Tot=              4.7113
 Quadrupole moment (field-independent basis, Debye-Ang):
   XX=            -44.7424   YY=            -37.2442   ZZ=            -37.6306
   XY=             -4.1072   XZ=              0.0000   YZ=             -0.0000

  Exact polarizability:      87.310       4.117      56.370      -0.000       0.000      47.954
 Approx polarizability:      90.956       8.905      66.350      -0.001      -0.000      54.864

 Normal termination of Gaussian 16 at Mon Feb 10 13:52:21 2020.
