 Gaussian 16, Revision C.01,
 Gaussian 16:  ES64L-G16RevC.01  3-Jul-2019

 ------------------------------------------------
 #p wB97XD/aug-cc-pvtz NoSymm MaxDisk=100GB Polar
 ------------------------------------------------

 -----
 Polar
 -----
 Symbolic Z-matrix:
 Charge =  0 Multiplicity = 1

                          Input orientation:
 ---------------------------------------------------------------------
 Center     Atomic      Atomic             Coordinates (Angstroms)
 Number     Number       Type             X           Y           Z
 ---------------------------------------------------------------------
      1         16           0        1.599236   -0.000491   -0.971330
      2          7           0        2.992853    0.000727    1.556131
      3          6           0       -0.098302   -0.000189   -0.386826
      4          6           0       -0.760225    1.216425   -0.192611
      5          6           0       -0.760360   -1.216595   -0.191773
      6          6           0       -2.092634    1.210135    0.222991
      7          6           0       -2.092771   -1.209870    0.223818
      8          6           0       -2.759391    0.000240    0.429247
      9          6           0        2.388341    0.000232    0.535282
     10          1           0       -0.233539    2.153173   -0.354616
     11          1           0       -0.233777   -2.153514   -0.353126
     12          1           0       -2.610266    2.152760    0.381371
     13          1           0       -2.610508   -2.152328    0.382845
     14          1           0       -3.797612    0.000409    0.751115
 ---------------------------------------------------------------------

 SCF Done:  E(RwB97XD) =  -722.671360005     A.U. after   14 cycles

 Alpha  occ. eigenvalues --  -89.11504 -14.44931 -10.35556 -10.35356 -10.32532
 Alpha  occ. eigenvalues --  -10.32532 -10.32154 -10.32007 -10.31996  -8.12326
 Alpha  occ. eigenvalues --   -6.07368  -6.06919  -6.06313  -1.00930  -0.99089
 Alpha  occ. eigenvalues --   -0.92515  -0.87584  -0.84733  -0.72996  -0.71871
 Alpha  occ. eigenvalues --   -0.64520  -0.59788  -0.57202  -0.56061  -0.53580
 Alpha  occ. eigenvalues --   -0.52094  -0.48632  -0.46590  -0.46368  -0.45721
 Alpha  occ. eigenvalues --   -0.45376  -0.40927  -0.36034  -0.35989  -0.35082
 Alpha virt. eigenvalues --    0.01080   0.02306   0.02444   0.03269   0.03392
 Alpha virt. eigenvalues --    0.04222   0.05018   0.05077   0.06671   0.07297
 Alpha virt. eigenvalues --    0.08173   0.09076   0.09217   0.10093   0.10534

 Mulliken charges:
               1
     1  S    0.111408
     2  N   -0.550885
     3  C    0.594357
     4  C   -0.946910
     5  C   -0.946932
     6  C   -0.438856
     7  C   -0.438811
     8  C   -0.331455
     9  C    0.295829
    10  H    0.534846
    11  H    0.534848
    12  H    0.529034
    13  H    0.529060
    14  H    0.524467
 Sum of Mulliken charges =  -0.00000

 Dipole moment (field-independent basis, Debye):
    X=             -4.3288    Y=             -0.0010    Z=             -2.0808  Tot=              4.8030
 Quadrupole moment (field-independent basis, Debye-Ang):
   XX=            -62.6755   YY=            -53.0427   ZZ=            -65.1916
   XY=             -0.0041   XZ=             -9.4470   YZ=             -0.0045

  Exact polarizability:     136.422       0.001      98.177       0.212      -0.002      83.195
 Approx polarizability:     139.572       0.003     119.881       1.413      -0.000     106.523

 Normal termination of Gaussian 16 at Mon Feb 10 14:28:05 2020.
