 Gaussian 16, Revision C.01,
 Gaussian 16:  ES64L-G16RevC.01  3-Jul-2019

 ------------------------------------------------
 #p wB97XD/aug-cc-pvtz NoSymm MaxDisk=100GB Polar
 ------------------------------------------------

 -----
 Polar
 -----
 Symbolic Z-matrix:
 Charge =  0 Multiplicity = 1

                          Input orientation:
 ---------------------------------------------------------------------
 Center     Atomic      Atomic             Coordinates (Angstroms)
 Number     Number       Type             X           Y           Z
 ---------------------------------------------------------------------
      1          6           0       -0.605980   -0.404962   -0.000007
      2          6           0        0.605982    0.404967   -0.000007
      3          6           0       -1.847402    0.109869    0.000005
      4          6           0        1.847401   -0.109872    0.000005
      5          1           0       -0.472523   -1.486780   -0.000015
      6          1           0        0.472533    1.486786   -0.000015
      7          1           0       -2.727964   -0.523422    0.000009
      8          1           0       -2.015263    1.183451    0.000016
      9          1           0        2.727969    0.523409    0.000009
     10          1           0        2.015250   -1.183456    0.000016
 ---------------------------------------------------------------------

 SCF Done:  E(RwB97XD) =  -155.990694906     A.U. after   11 cycles

 Alpha  occ. eigenvalues --  -10.29917 -10.29879 -10.28807 -10.28806  -0.90943
 Alpha  occ. eigenvalues --   -0.83442  -0.70225  -0.64770  -0.55748  -0.55293
 Alpha  occ. eigenvalues --   -0.47987  -0.47284  -0.43106  -0.41528  -0.31402
 Alpha virt. eigenvalues --    0.02771   0.03427   0.03702   0.04026   0.05711
 Alpha virt. eigenvalues --    0.05899   0.07768   0.08935   0.09427   0.11020
 Alpha virt. eigenvalues --    0.11326   0.11454   0.11805   0.13009   0.13315

 Mulliken charges:
               1
     1  C   -0.012223
     2  C   -0.012218
     3  C   -1.026722
     4  C   -1.026725
     5  H    0.351866
     6  H    0.351866
     7  H    0.369080
     8  H    0.317996
     9  H    0.369086
    10  H    0.317993
 Sum of Mulliken charges =  -0.00000

 Dipole moment (field-independent basis, Debye):
    X=              0.0000    Y=              0.0000    Z=              0.0000  Tot=              0.0000
 Quadrupole moment (field-independent basis, Debye-Ang):
   XX=            -23.0527   YY=            -22.8322   ZZ=            -29.0151
   XY=             -0.1469   XZ=             -0.0000   YZ=             -0.0000

  Exact polarizability:      87.318      -5.736      46.590       0.000      -0.000      37.465
 Approx polarizability:      85.927      -8.679      50.123      -0.000      -0.000      39.654

 Normal termination of Gaussian 16 at Mon Feb 10 13:53:48 2020.
