 Gaussian 16, Revision C.01,
 Gaussian 16:  ES64L-G16RevC.01  3-Jul-2019

 ------------------------------------------------
 #p wB97XD/aug-cc-pvtz NoSymm MaxDisk=100GB Polar
 ------------------------------------------------

 -----
 Polar
 -----
 Symbolic Z-matrix:
 Charge =  0 Multiplicity = 1

                          Input orientation:
 ---------------------------------------------------------------------
 Center     Atomic      Atomic             Coordinates (Angstroms)
 Number     Number       Type             X           Y           Z
 ---------------------------------------------------------------------
      1          8           0        1.801345   -0.122267   -0.000145
      2          6           0       -0.561151   -0.452020   -0.000012
      3          6           0        0.670705    0.354613   -0.000004
      4          6           0       -1.765278    0.140635    0.000150
      5          1           0       -0.443860   -1.532410   -0.000144
      6          1           0        0.513440    1.454071    0.000046
      7          1           0       -2.689437   -0.427049    0.000169
      8          1           0       -1.856553    1.224152    0.000283
 ---------------------------------------------------------------------

 SCF Done:  E(RwB97XD) =  -191.917097674     A.U. after   12 cycles

 Alpha  occ. eigenvalues --  -19.25632 -10.38588 -10.32689 -10.31815  -1.14553
 Alpha  occ. eigenvalues --   -0.91122  -0.75191  -0.67439  -0.57345  -0.57183
 Alpha  occ. eigenvalues --   -0.51230  -0.49182  -0.48459  -0.38116  -0.35164
 Alpha virt. eigenvalues --   -0.00921   0.02761   0.03804   0.04497   0.06065
 Alpha virt. eigenvalues --    0.07432   0.09187   0.09867   0.10810   0.11217
 Alpha virt. eigenvalues --    0.12007   0.12242   0.13345   0.13555   0.14142

 Mulliken charges:
               1
     1  O   -0.674596
     2  C   -0.137263
     3  C    0.157830
     4  C   -0.859415
     5  H    0.420049
     6  H    0.409549
     7  H    0.403186
     8  H    0.280660
 Sum of Mulliken charges =  -0.00000

 Dipole moment (field-independent basis, Debye):
    X=             -3.4412    Y=              0.7133    Z=              0.0003  Tot=              3.5143
 Quadrupole moment (field-independent basis, Debye-Ang):
   XX=            -27.0164   YY=            -21.5771   ZZ=            -25.0673
   XY=              0.9041   XZ=              0.0002   YZ=              0.0003

  Exact polarizability:      62.873      -4.249      39.467      -0.003       0.001      28.813
 Approx polarizability:      66.194      -8.026      41.629      -0.004       0.002      31.151

 Normal termination of Gaussian 16 at Mon Feb 10 13:46:06 2020.
