 Gaussian 16, Revision C.01,
 Gaussian 16:  ES64L-G16RevC.01  3-Jul-2019

 ------------------------------------------------
 #p wB97XD/aug-cc-pvtz NoSymm MaxDisk=100GB Polar
 ------------------------------------------------

 -----
 Polar
 -----
 Symbolic Z-matrix:
 Charge =  0 Multiplicity = 1

                          Input orientation:
 ---------------------------------------------------------------------
 Center     Atomic      Atomic             Coordinates (Angstroms)
 Number     Number       Type             X           Y           Z
 ---------------------------------------------------------------------
      1          8           0        2.311377   -0.337458    0.055847
      2          7           0        1.136009    0.334394   -0.364356
      3          6           0       -1.198792    0.602393    0.134009
      4          6           0       -2.222984   -0.484757   -0.203887
      5          6           0        0.152605    0.024526    0.404325
      6          1           0       -1.533492    1.161230    1.016740
      7          1           0       -1.107908    1.316178   -0.690232
      8          1           0       -1.926632   -1.022070   -1.108471
      9          1           0       -2.309621   -1.211471    0.609288
     10          1           0       -3.211064   -0.047754   -0.372117
     11          1           0        0.298047   -0.671298    1.235229
     12          1           0        2.962618   -0.018878   -0.593399
 ---------------------------------------------------------------------

 SCF Done:  E(RwB97XD) =  -248.462686370     A.U. after   13 cycles

 Alpha  occ. eigenvalues --  -19.29124 -14.49078 -10.32597 -10.29850 -10.28489
 Alpha  occ. eigenvalues --   -1.17610  -0.96761  -0.87006  -0.74495  -0.65760
 Alpha  occ. eigenvalues --   -0.61918  -0.55680  -0.53937  -0.50799  -0.49738
 Alpha  occ. eigenvalues --   -0.46516  -0.44520  -0.43637  -0.37113  -0.33979
 Alpha virt. eigenvalues --    0.03196   0.03921   0.04229   0.04410   0.05847
 Alpha virt. eigenvalues --    0.06087   0.06648   0.06759   0.10152   0.10680
 Alpha virt. eigenvalues --    0.11483   0.12313   0.12331   0.12931   0.13164

 Mulliken charges:
               1
     1  O   -0.307080
     2  N   -0.394601
     3  C   -0.043809
     4  C   -0.917687
     5  C   -0.235468
     6  H    0.216999
     7  H    0.241193
     8  H    0.283806
     9  H    0.272879
    10  H    0.233212
    11  H    0.484546
    12  H    0.166010
 Sum of Mulliken charges =  -0.00000

 Dipole moment (field-independent basis, Debye):
    X=             -0.9985    Y=              0.0329    Z=              0.1912  Tot=              1.0172
 Quadrupole moment (field-independent basis, Debye-Ang):
   XX=            -27.2271   YY=            -32.3614   ZZ=            -30.8075
   XY=              0.3224   XZ=             -2.6999   YZ=              0.0855

  Exact polarizability:      72.711      -0.669      45.391      -4.048      -2.040      46.047
 Approx polarizability:      67.747      -0.971      48.652      -6.161      -3.151      51.937

 Normal termination of Gaussian 16 at Mon Feb 10 14:04:45 2020.
