 Gaussian 16, Revision C.01,
 Gaussian 16:  ES64L-G16RevC.01  3-Jul-2019

 ------------------------------------------------
 #p wB97XD/aug-cc-pvtz NoSymm MaxDisk=100GB Polar
 ------------------------------------------------

 -----
 Polar
 -----
 Symbolic Z-matrix:
 Charge =  0 Multiplicity = 1

                          Input orientation:
 ---------------------------------------------------------------------
 Center     Atomic      Atomic             Coordinates (Angstroms)
 Number     Number       Type             X           Y           Z
 ---------------------------------------------------------------------
      1          8           0        1.823011   -0.156200    0.000046
      2          7           0        0.587296   -0.858355   -0.000026
      3          6           0       -0.397537   -0.023049   -0.000017
      4          6           0       -1.770956   -0.622844    0.000007
      5          6           0       -0.217269    1.466950   -0.000015
      6          1           0       -1.704995   -1.712401   -0.000482
      7          1           0       -2.332246   -0.298848    0.883024
      8          1           0       -2.332664   -0.298028   -0.882433
      9          1           0       -1.182245    1.977404   -0.000533
     10          1           0        0.356001    1.778436    0.878053
     11          1           0        0.356922    1.778325   -0.877516
     12          1           0        2.458641   -0.893145   -0.000153
 ---------------------------------------------------------------------

 SCF Done:  E(RwB97XD) =  -248.470845645     A.U. after   13 cycles

 Alpha  occ. eigenvalues --  -19.28699 -14.47774 -10.33163 -10.28854 -10.28748
 Alpha  occ. eigenvalues --   -1.17047  -0.96811  -0.83311  -0.80574  -0.63417
 Alpha  occ. eigenvalues --   -0.58566  -0.56107  -0.54056  -0.49364  -0.48673
 Alpha  occ. eigenvalues --   -0.47738  -0.46324  -0.45229  -0.36237  -0.33033
 Alpha virt. eigenvalues --    0.03144   0.03914   0.04223   0.04526   0.05970
 Alpha virt. eigenvalues --    0.06719   0.06731   0.07618   0.08914   0.11556
 Alpha virt. eigenvalues --    0.11626   0.12211   0.12437   0.12998   0.13579

 Mulliken charges:
               1
     1  O   -0.305157
     2  N   -0.443400
     3  C    0.379985
     4  C   -0.793339
     5  C   -0.611167
     6  H    0.291342
     7  H    0.270279
     8  H    0.270270
     9  H    0.267471
    10  H    0.267501
    11  H    0.267516
    12  H    0.138699
 Sum of Mulliken charges =  -0.00000

 Dipole moment (field-independent basis, Debye):
    X=             -0.8331    Y=              0.6444    Z=             -0.0002  Tot=              1.0532
 Quadrupole moment (field-independent basis, Debye-Ang):
   XX=            -26.6662   YY=            -31.1903   ZZ=            -31.5672
   XY=             -2.2242   XZ=             -0.0010   YZ=              0.0003

  Exact polarizability:      66.517      -3.109      53.638      -0.001       0.001      40.501
 Approx polarizability:      67.166      -4.975      55.495      -0.001       0.001      45.250

 1\1\GINC-NODE59\SP\RwB97XD\Aug-CC-pVTZ\C3H7N1O1\LIUCHW\10-Feb-2020\0\\
 #p wB97XD/aug-cc-pvtz NoSymm MaxDisk=100GB Polar\\Polar\\0,1\O,0,1.823
 011,-0.1562,0.000046\N,0,0.587296,-0.858355,-0.000026\C,0,-0.397537,-0
 .023049,-0.000017\C,0,-1.770956,-0.622844,0.000007\C,0,-0.217269,1.466
 95,-0.000015\H,0,-1.704995,-1.712401,-0.000482\H,0,-2.332246,-0.298848
 ,0.883024\H,0,-2.332664,-0.298028,-0.882433\H,0,-1.182245,1.977404,-0.
 000533\H,0,0.356001,1.778436,0.878053\H,0,0.356922,1.778325,-0.877516\
 H,0,2.458641,-0.893145,-0.000153\\Version=ES64L-G16RevC.01\HF=-248.470

 Normal termination of Gaussian 16 at Mon Feb 10 14:05:55 2020.
