 Gaussian 16, Revision C.01,
 Gaussian 16:  ES64L-G16RevC.01  3-Jul-2019

 ------------------------------------------------
 #p wB97XD/aug-cc-pvtz NoSymm MaxDisk=100GB Polar
 ------------------------------------------------

 -----
 Polar
 -----
 Symbolic Z-matrix:
 Charge =  0 Multiplicity = 1

                          Input orientation:
 ---------------------------------------------------------------------
 Center     Atomic      Atomic             Coordinates (Angstroms)
 Number     Number       Type             X           Y           Z
 ---------------------------------------------------------------------
      1          8           0        2.749268   -0.444392   -0.325622
      2          6           0        0.447806    0.253560    0.142238
      3          6           0        1.922737    0.535337    0.303999
      4          6           0       -0.470555    1.297520   -0.012962
      5          6           0       -0.018093   -1.066842    0.176948
      6          6           0       -1.836328    1.029701   -0.126423
      7          6           0       -1.381592   -1.336173    0.056286
      8          6           0       -2.294594   -0.288734   -0.092174
      9          1           0        2.150850    1.546301   -0.066067
     10          1           0        2.207812    0.503431    1.360216
     11          1           0       -0.115654    2.326598   -0.051979
     12          1           0        0.698811   -1.876494    0.288876
     13          1           0       -2.540945    1.848870   -0.249734
     14          1           0       -1.734004   -2.364809    0.082014
     15          1           0       -3.357170   -0.499625   -0.185717
     16          1           0        2.479871   -0.475356   -1.260112
 ---------------------------------------------------------------------

 SCF Done:  E(RwB97XD) =  -346.783260945     A.U. after   13 cycles

 Alpha  occ. eigenvalues --  -19.25952 -10.34027 -10.30288 -10.29749 -10.29681
 Alpha  occ. eigenvalues --  -10.29647 -10.29540 -10.29312  -1.12718  -0.96218
 Alpha  occ. eigenvalues --   -0.86862  -0.84911  -0.77702  -0.70472  -0.68532
 Alpha  occ. eigenvalues --   -0.61879  -0.58896  -0.55566  -0.53475  -0.53111
 Alpha  occ. eigenvalues --   -0.51206  -0.50587  -0.45894  -0.45289  -0.42982
 Alpha  occ. eigenvalues --   -0.41508  -0.37426  -0.33560  -0.32642
 Alpha virt. eigenvalues --    0.02970   0.03522   0.03686   0.04362   0.04724
 Alpha virt. eigenvalues --    0.04816   0.04976   0.05445   0.06796   0.07145
 Alpha virt. eigenvalues --    0.09326   0.09828   0.10339   0.10974   0.11144

 Mulliken charges:
               1
     1  O   -0.563888
     2  C    1.245383
     3  C   -0.173298
     4  C   -1.147796
     5  C   -1.073538
     6  C   -0.422319
     7  C   -0.580828
     8  C   -0.466161
     9  H    0.275838
    10  H    0.355480
    11  H    0.480374
    12  H    0.517369
    13  H    0.460676
    14  H    0.458645
    15  H    0.484502
    16  H    0.149560
 Sum of Mulliken charges =  -0.00000

 Dipole moment (field-independent basis, Debye):
    X=             -1.1438    Y=              0.7737    Z=             -0.6170  Tot=              1.5124
 Quadrupole moment (field-independent basis, Debye-Ang):
   XX=            -50.0813   YY=            -43.7350   ZZ=            -48.0394
   XY=              2.4642   XZ=             -0.7485   YZ=              0.1919

  Exact polarizability:     108.332       1.110      93.644       2.940      -0.760      59.272
 Approx polarizability:     112.934      -0.188     110.062       4.071      -1.438      70.023

 Normal termination of Gaussian 16 at Mon Feb 10 14:39:16 2020.
