 Gaussian 16, Revision C.01,
 Gaussian 16:  ES64L-G16RevC.01  3-Jul-2019

 ------------------------------------------------
 #p wB97XD/aug-cc-pvtz NoSymm MaxDisk=100GB Polar
 ------------------------------------------------

 -----
 Polar
 -----
 Symbolic Z-matrix:
 Charge =  0 Multiplicity = 1

                          Input orientation:
 ---------------------------------------------------------------------
 Center     Atomic      Atomic             Coordinates (Angstroms)
 Number     Number       Type             X           Y           Z
 ---------------------------------------------------------------------
      1          6           0        1.926646   -0.000128   -0.592519
      2          6           0        0.439886   -0.000066   -0.344480
      3          6           0       -0.260684   -1.203749   -0.191584
      4          6           0       -0.260585    1.203687   -0.191670
      5          6           0        2.721646    0.000095    0.716916
      6          6           0       -1.626743   -1.207005    0.095137
      7          6           0       -1.626643    1.207077    0.095050
      8          6           0       -2.313384    0.000070    0.242572
      9          1           0        2.197977   -0.879781   -1.188030
     10          1           0        2.198002    0.879304   -1.188345
     11          1           0        0.268435   -2.148520   -0.310997
     12          1           0        0.268613    2.148405   -0.311153
     13          1           0        2.477617    0.884237    1.312770
     14          1           0        3.799484    0.000041    0.526579
     15          1           0        2.477584   -0.883822    1.313089
     16          1           0       -2.155356   -2.151448    0.203102
     17          1           0       -2.155177    2.151573    0.202948
     18          1           0       -3.378016    0.000122    0.463502
 ---------------------------------------------------------------------

 SCF Done:  E(RwB97XD) =  -310.878691195     A.U. after   12 cycles

 Alpha  occ. eigenvalues --  -10.29740 -10.29073 -10.29065 -10.28845 -10.28837
 Alpha  occ. eigenvalues --  -10.28806 -10.28806 -10.27645  -0.95833  -0.88765
 Alpha  occ. eigenvalues --   -0.84258  -0.81984  -0.72799  -0.69828  -0.66843
 Alpha  occ. eigenvalues --   -0.59983  -0.55556  -0.54633  -0.51604  -0.50810
 Alpha  occ. eigenvalues --   -0.49983  -0.48143  -0.45595  -0.43915  -0.43368
 Alpha  occ. eigenvalues --   -0.41342  -0.41097  -0.32898  -0.31881
 Alpha virt. eigenvalues --    0.03130   0.03482   0.03698   0.04487   0.04822
 Alpha virt. eigenvalues --    0.05060   0.05420   0.05764   0.06372   0.06520
 Alpha virt. eigenvalues --    0.06984   0.07574   0.08957   0.10123   0.11287

 Mulliken charges:
               1
     1  C   -0.148035
     2  C    1.191847
     3  C   -1.172276
     4  C   -1.172274
     5  C   -0.931617
     6  C   -0.550507
     7  C   -0.550528
     8  C   -0.376977
     9  H    0.244624
    10  H    0.244633
    11  H    0.478462
    12  H    0.478469
    13  H    0.286744
    14  H    0.246117
    15  H    0.286734
    16  H    0.465100
    17  H    0.465089
    18  H    0.514396
 Sum of Mulliken charges =  -0.00000

 Dipole moment (field-independent basis, Debye):
    X=              0.4195    Y=             -0.0000    Z=             -0.0132  Tot=              0.4197
 Quadrupole moment (field-independent basis, Debye-Ang):
   XX=            -45.3951   YY=            -45.0648   ZZ=            -52.5840
   XY=             -0.0001   XZ=             -1.6697   YZ=             -0.0003

  Exact polarizability:     118.338      -0.000      98.712      -5.342      -0.001      67.758
 Approx polarizability:     120.223      -0.000     117.839      -8.385      -0.001      77.982

 1\1\GINC-G2-NODE38\SP\RwB97XD\Aug-CC-pVTZ\C8H10\LIUCHW\10-Feb-2020\0\\
 #p wB97XD/aug-cc-pvtz NoSymm MaxDisk=100GB Polar\\Polar\\0,1\C,0,1.926
 646,-0.000128,-0.592519\C,0,0.439886,-0.000066,-0.34448\C,0,-0.260684,
 -1.203749,-0.191584\C,0,-0.260585,1.203687,-0.19167\C,0,2.721646,0.000
 095,0.716916\C,0,-1.626743,-1.207005,0.095137\C,0,-1.626643,1.207077,0
 .09505\C,0,-2.313384,0.00007,0.242572\H,0,2.197977,-0.879781,-1.18803\
 H,0,2.198002,0.879304,-1.188345\H,0,0.268435,-2.14852,-0.310997\H,0,0.
 268613,2.148405,-0.311153\H,0,2.477617,0.884237,1.31277\H,0,3.799484,0

 Normal termination of Gaussian 16 at Mon Feb 10 15:00:37 2020.
