 Gaussian 16, Revision C.01,
 Gaussian 16:  ES64L-G16RevC.01  3-Jul-2019

 ------------------------------------------------
 #p wB97XD/aug-cc-pvtz NoSymm MaxDisk=100GB Polar
 ------------------------------------------------

 -----
 Polar
 -----
 Symbolic Z-matrix:
 Charge =  0 Multiplicity = 1

                          Input orientation:
 ---------------------------------------------------------------------
 Center     Atomic      Atomic             Coordinates (Angstroms)
 Number     Number       Type             X           Y           Z
 ---------------------------------------------------------------------
      1          7           0       -2.713579   -0.463203   -0.384090
      2          6           0       -0.434849    0.243779    0.162979
      3          6           0       -1.907772    0.522975    0.344738
      4          6           0        0.041971   -1.073341    0.195658
      5          6           0        0.476265    1.291386   -0.010216
      6          6           0        1.405643   -1.332990    0.057427
      7          6           0        1.842376    1.033252   -0.144009
      8          6           0        2.310671   -0.281152   -0.109401
      9          1           0       -2.169330    0.434079    1.406604
     10          1           0       -2.106527    1.569756    0.059548
     11          1           0       -0.670263   -1.885474    0.313946
     12          1           0        0.114230    2.318044   -0.046659
     13          1           0        1.764967   -2.359427    0.082362
     14          1           0        2.538749    1.857445   -0.281077
     15          1           0        3.373223   -0.485746   -0.217578
     16          1           0       -2.551721   -0.349948   -1.384047
     17          1           0       -3.704113   -0.279763   -0.227525
 ---------------------------------------------------------------------

 SCF Done:  E(RwB97XD) =  -326.914259469     A.U. after   13 cycles

 Alpha  occ. eigenvalues --  -14.42237 -10.31573 -10.29584 -10.28999 -10.28877
 Alpha  occ. eigenvalues --  -10.28866 -10.28794 -10.28370  -0.99189  -0.94920
 Alpha  occ. eigenvalues --   -0.85481  -0.84091  -0.75920  -0.69703  -0.67160
 Alpha  occ. eigenvalues --   -0.60570  -0.57553  -0.55894  -0.53599  -0.50774
 Alpha  occ. eigenvalues --   -0.50208  -0.49345  -0.47607  -0.44500  -0.41995
 Alpha  occ. eigenvalues --   -0.41701  -0.33823  -0.32746  -0.31644
 Alpha virt. eigenvalues --    0.02896   0.03461   0.03876   0.04494   0.04904
 Alpha virt. eigenvalues --    0.05098   0.05480   0.05814   0.06317   0.07026
 Alpha virt. eigenvalues --    0.07313   0.09657   0.10287   0.10492   0.11418

 Mulliken charges:
               1
     1  N   -0.442217
     2  C    1.313644
     3  C   -0.124560
     4  C   -1.055862
     5  C   -1.224716
     6  C   -0.608568
     7  C   -0.428722
     8  C   -0.473603
     9  H    0.341549
    10  H    0.255765
    11  H    0.482625
    12  H    0.467123
    13  H    0.444464
    14  H    0.469113
    15  H    0.489587
    16  H    0.055593
    17  H    0.038785
 Sum of Mulliken charges =  -0.00000

 Dipole moment (field-independent basis, Debye):
    X=             -0.7990    Y=              1.0299    Z=             -0.3647  Tot=              1.3536
 Quadrupole moment (field-independent basis, Debye-Ang):
   XX=            -41.1397   YY=            -46.6612   ZZ=            -50.0812
   XY=             -2.8740   XZ=              0.2368   YZ=             -0.3843

  Exact polarizability:     115.534      -0.741      97.510      -3.139      -1.091      62.873
 Approx polarizability:     118.240      -0.312     114.388      -4.840      -2.007      73.951

 Normal termination of Gaussian 16 at Mon Feb 10 15:19:43 2020.
