 Gaussian 16, Revision C.01,
 Gaussian 16:  ES64L-G16RevC.01  3-Jul-2019

 ------------------------------------------------
 #p wB97XD/aug-cc-pvtz NoSymm MaxDisk=100GB Polar
 ------------------------------------------------

 -----
 Polar
 -----
 Symbolic Z-matrix:
 Charge =  0 Multiplicity = 1

                          Input orientation:
 ---------------------------------------------------------------------
 Center     Atomic      Atomic             Coordinates (Angstroms)
 Number     Number       Type             X           Y           Z
 ---------------------------------------------------------------------
      1          8           0        2.844368   -0.400274   -0.000064
      2          6           0        0.530349    0.219781   -0.000032
      3          6           0       -0.365013    1.295427    0.000003
      4          6           0        0.053612   -1.097965   -0.000010
      5          6           0       -1.739277    1.055292    0.000066
      6          6           0       -1.318387   -1.332711    0.000048
      7          6           0       -2.215362   -0.257965    0.000085
      8          6           0        1.987298    0.478248   -0.000090
      9          1           0        0.015457    2.316129   -0.000017
     10          1           0        0.771984   -1.913874   -0.000034
     11          1           0       -2.438253    1.887922    0.000095
     12          1           0       -1.694938   -2.352668    0.000061
     13          1           0       -3.286443   -0.445791    0.000133
     14          1           0        2.277926    1.549830   -0.000149
 ---------------------------------------------------------------------

 SCF Done:  E(RwB97XD) =  -345.571317901     A.U. after   13 cycles

 Alpha  occ. eigenvalues --  -19.25307 -10.38332 -10.31773 -10.31568 -10.31401
 Alpha  occ. eigenvalues --  -10.31185 -10.31127 -10.31022  -1.14334  -0.97841
 Alpha  occ. eigenvalues --   -0.87941  -0.86561  -0.75622  -0.72025  -0.67473
 Alpha  occ. eigenvalues --   -0.62250  -0.58032  -0.55780  -0.53392  -0.52517
 Alpha  occ. eigenvalues --   -0.51937  -0.50277  -0.45889  -0.45669  -0.44242
 Alpha  occ. eigenvalues --   -0.35150  -0.34925  -0.34764
 Alpha virt. eigenvalues --   -0.01053   0.02640   0.03319   0.03590   0.03928
 Alpha virt. eigenvalues --    0.04839   0.05465   0.06697   0.07214   0.09061
 Alpha virt. eigenvalues --    0.09418   0.10005   0.10705   0.10822   0.10908

 Mulliken charges:
               1
     1  O   -0.799670
     2  C    1.254487
     3  C   -1.014134
     4  C   -0.903514
     5  C   -0.438417
     6  C   -0.464549
     7  C   -0.409418
     8  C   -0.062228
     9  H    0.519553
    10  H    0.511081
    11  H    0.447503
    12  H    0.422159
    13  H    0.495402
    14  H    0.441744
 Sum of Mulliken charges =  -0.00000

 Dipole moment (field-independent basis, Debye):
    X=             -3.2354    Y=              1.3377    Z=              0.0000  Tot=              3.5010
 Quadrupole moment (field-independent basis, Debye-Ang):
   XX=            -51.2510   YY=            -40.3256   ZZ=            -49.1508
   XY=              4.0795   XZ=             -0.0003   YZ=             -0.0001

  Exact polarizability:     116.162      -0.284      92.406      -0.002      -0.000      50.626
 Approx polarizability:     124.414      -4.293     110.159      -0.002      -0.000      60.240

 Normal termination of Gaussian 16 at Mon Feb 10 15:09:30 2020.
