 Gaussian 16, Revision C.01,
 Gaussian 16:  ES64L-G16RevC.01  3-Jul-2019

 ------------------------------------------------
 #p wB97XD/aug-cc-pvtz NoSymm MaxDisk=100GB Polar
 ------------------------------------------------

 -----
 Polar
 -----
 Symbolic Z-matrix:
 Charge =  0 Multiplicity = 1

                          Input orientation:
 ---------------------------------------------------------------------
 Center     Atomic      Atomic             Coordinates (Angstroms)
 Number     Number       Type             X           Y           Z
 ---------------------------------------------------------------------
      1          8           0       -2.304220   -1.099163   -0.000329
      2          8           0       -2.337767    1.163592    0.000036
      3          6           0       -0.218471    0.027496   -0.000015
      4          6           0        0.508043    1.224381   -0.000158
      5          6           0        0.446112   -1.205474    0.000226
      6          6           0        1.900690    1.186952   -0.000081
      7          6           0        1.840438   -1.232299    0.000312
      8          6           0        2.569253   -0.040349    0.000158
      9          6           0       -1.700241    0.121441   -0.000085
     10          1           0       -0.032650    2.166647   -0.000325
     11          1           0       -0.125148   -2.128392    0.000336
     12          1           0        2.466566    2.115206   -0.000203
     13          1           0        2.360642   -2.186950    0.000507
     14          1           0        3.656313   -0.067905    0.000223
     15          1           0       -3.264775   -0.906925   -0.000329
 ---------------------------------------------------------------------

 SCF Done:  E(RwB97XD) =  -420.835962695     A.U. after   14 cycles

 Alpha  occ. eigenvalues --  -19.30946 -19.24674 -10.43178 -10.31769 -10.31164
 Alpha  occ. eigenvalues --  -10.31159 -10.30891 -10.30726 -10.30656  -1.21337
 Alpha  occ. eigenvalues --   -1.12003  -0.97575  -0.87891  -0.86180  -0.76437
 Alpha  occ. eigenvalues --   -0.71754  -0.68561  -0.63200  -0.59246  -0.57359
 Alpha  occ. eigenvalues --   -0.55083  -0.54837  -0.53731  -0.52214  -0.49633
 Alpha  occ. eigenvalues --   -0.47050  -0.45287  -0.43911  -0.41609  -0.37325
 Alpha  occ. eigenvalues --   -0.34792  -0.34599
 Alpha virt. eigenvalues --    0.00296   0.02788   0.03355   0.03771   0.04099
 Alpha virt. eigenvalues --    0.04764   0.05531   0.06453   0.07715   0.09349
 Alpha virt. eigenvalues --    0.09606   0.10458   0.10879   0.10904   0.11084

 Mulliken charges:
               1
     1  O   -0.400303
     2  O   -0.862860
     3  C    1.327453
     4  C   -1.134256
     5  C   -0.756068
     6  C   -0.500395
     7  C   -0.516649
     8  C   -0.415749
     9  C    0.560174
    10  H    0.524732
    11  H    0.554271
    12  H    0.477153
    13  H    0.427645
    14  H    0.497072
    15  H    0.217780
 Sum of Mulliken charges =  -0.00000

 Dipole moment (field-independent basis, Debye):
    X=              1.5955    Y=             -1.4649    Z=             -0.0001  Tot=              2.1660
 Quadrupole moment (field-independent basis, Debye-Ang):
   XX=            -44.6526   YY=            -50.1022   ZZ=            -54.4643
   XY=              5.5613   XZ=              0.0013   YZ=             -0.0019

  Exact polarizability:     119.590      -1.422      97.049       0.004      -0.004      53.160
 Approx polarizability:     123.625      -3.385     118.167       0.003      -0.005      63.522

 Normal termination of Gaussian 16 at Mon Feb 10 15:07:18 2020.
