 Gaussian 16, Revision C.01,
 Gaussian 16:  ES64L-G16RevC.01  3-Jul-2019

 ------------------------------------------------
 #p wB97XD/aug-cc-pvtz NoSymm MaxDisk=100GB Polar
 ------------------------------------------------

 -----
 Polar
 -----
 Symbolic Z-matrix:
 Charge = -1 Multiplicity = 1

                          Input orientation:
 ---------------------------------------------------------------------
 Center     Atomic      Atomic             Coordinates (Angstroms)
 Number     Number       Type             X           Y           Z
 ---------------------------------------------------------------------
      1          8           0        2.362130    1.145775   -0.000025
      2          8           0        2.362131   -1.145774   -0.000057
      3          6           0        0.281859    0.000000   -0.000044
      4          6           0       -0.433753   -1.203674   -0.000119
      5          6           0       -0.433754    1.203674    0.000110
      6          6           0       -1.830168   -1.207333   -0.000054
      7          6           0       -1.830170    1.207333    0.000183
      8          6           0       -2.536652    0.000000    0.000100
      9          6           0        1.830792    0.000000   -0.000112
     10          1           0        0.146034   -2.123392   -0.000226
     11          1           0        0.146033    2.123392    0.000159
     12          1           0       -2.374346   -2.152219   -0.000122
     13          1           0       -2.374348    2.152219    0.000306
     14          1           0       -3.626388   -0.000002    0.000155
 ---------------------------------------------------------------------

 SCF Done:  E(RwB97XD) =  -420.278679552     A.U. after   14 cycles

 Alpha  occ. eigenvalues --  -19.01189 -19.01188 -10.19864 -10.16984 -10.16642
 Alpha  occ. eigenvalues --  -10.16638 -10.15155 -10.15150 -10.14625  -0.93969
 Alpha  occ. eigenvalues --   -0.85511  -0.82100  -0.71108  -0.71070  -0.56842
 Alpha  occ. eigenvalues --   -0.56226  -0.48897  -0.43873  -0.40149  -0.39054
 Alpha  occ. eigenvalues --   -0.37304  -0.35658  -0.33663  -0.31229  -0.30017
 Alpha  occ. eigenvalues --   -0.29542  -0.27964  -0.20099  -0.18764  -0.15302
 Alpha  occ. eigenvalues --   -0.14676  -0.14180
 Alpha virt. eigenvalues --    0.10496   0.11212   0.12046   0.14218   0.14498
 Alpha virt. eigenvalues --    0.17196   0.18185   0.18541   0.18881   0.19957
 Alpha virt. eigenvalues --    0.19985   0.20058   0.20536   0.20973   0.21387

 Mulliken charges:
               1
     1  O   -0.833848
     2  O   -0.833848
     3  C    1.254060
     4  C   -0.984676
     5  C   -0.984674
     6  C   -0.682775
     7  C   -0.682774
     8  C   -0.485560
     9  C    0.685108
    10  H    0.396207
    11  H    0.396208
    12  H    0.602699
    13  H    0.602699
    14  H    0.551175
 Sum of Mulliken charges =  -1.00000

 Dipole moment (field-independent basis, Debye):
    X=             -9.0178    Y=             -0.0000    Z=              0.0001  Tot=              9.0178
 Quadrupole moment (field-independent basis, Debye-Ang):
   XX=            -84.8826   YY=            -60.5158   ZZ=            -57.0677
   XY=             -0.0000   XZ=              0.0002   YZ=              0.0004

  Exact polarizability:     126.851      -0.000     109.049      -0.002       0.004      61.682
 Approx polarizability:     125.866      -0.000     129.989      -0.002       0.004      71.445

 Normal termination of Gaussian 16 at Mon Feb 10 15:07:24 2020.
