 Gaussian 16, Revision C.01,
 Gaussian 16:  ES64L-G16RevC.01  3-Jul-2019

 ------------------------------------------------
 #p wB97XD/aug-cc-pvtz NoSymm MaxDisk=100GB Polar
 ------------------------------------------------

 -----
 Polar
 -----
 Symbolic Z-matrix:
 Charge =  0 Multiplicity = 1

                          Input orientation:
 ---------------------------------------------------------------------
 Center     Atomic      Atomic             Coordinates (Angstroms)
 Number     Number       Type             X           Y           Z
 ---------------------------------------------------------------------
      1          8           0        1.528022   -0.768495    0.000157
      2          8           0        0.614571    1.307869    0.000068
      3          6           0       -0.810953   -0.638316   -0.000114
      4          6           0        0.475477    0.095591   -0.000447
      5          6           0       -1.966903    0.036735    0.000130
      6          1           0       -0.766407   -1.722444   -0.000100
      7          1           0       -2.923927   -0.473049    0.000321
      8          1           0       -1.965633    1.122007    0.000110
      9          1           0        2.329496   -0.205565    0.000462
 ---------------------------------------------------------------------

 SCF Done:  E(RwB97XD) =  -267.181621553     A.U. after   13 cycles

 Alpha  occ. eigenvalues --  -19.31084 -19.24767 -10.43244 -10.31761 -10.31636
 Alpha  occ. eigenvalues --   -1.21364  -1.12139  -0.90457  -0.77283  -0.66287
 Alpha  occ. eigenvalues --   -0.61477  -0.58416  -0.54639  -0.53192  -0.50869
 Alpha  occ. eigenvalues --   -0.47216  -0.41963  -0.37725  -0.37531
 Alpha virt. eigenvalues --    0.00385   0.03028   0.03586   0.04613   0.05861
 Alpha virt. eigenvalues --    0.08924   0.09430   0.10775   0.10855   0.11199
 Alpha virt. eigenvalues --    0.11389   0.11838   0.12805   0.13139   0.15282

 Mulliken charges:
               1
     1  O   -0.354703
     2  O   -0.737443
     3  C   -0.135436
     4  C    0.672641
     5  C   -0.788899
     6  H    0.462292
     7  H    0.359806
     8  H    0.322795
     9  H    0.198947
 Sum of Mulliken charges =  -0.00000

 Dipole moment (field-independent basis, Debye):
    X=             -0.6858    Y=             -1.5062    Z=             -0.0002  Tot=              1.6550
 Quadrupole moment (field-independent basis, Debye-Ang):
   XX=            -21.1718   YY=            -32.6411   ZZ=            -30.3468
   XY=              0.0172   XZ=              0.0003   YZ=             -0.0000

  Exact polarizability:      62.019      -2.374      46.338      -0.001       0.001      31.369
 Approx polarizability:      59.884      -4.416      53.564      -0.000       0.003      34.366

 Normal termination of Gaussian 16 at Mon Feb 10 14:36:04 2020.
