 Gaussian 16, Revision C.01,
 Gaussian 16:  ES64L-G16RevC.01  3-Jul-2019

 ------------------------------------------------
 #p wB97XD/aug-cc-pvtz NoSymm MaxDisk=100GB Polar
 ------------------------------------------------

 -----
 Polar
 -----
 Symbolic Z-matrix:
 Charge = -1 Multiplicity = 1

                          Input orientation:
 ---------------------------------------------------------------------
 Center     Atomic      Atomic             Coordinates (Angstroms)
 Number     Number       Type             X           Y           Z
 ---------------------------------------------------------------------
      1          8           0       -1.602172   -0.755391   -0.000173
      2          8           0       -0.611713    1.313074    0.000144
      3          6           0        0.748620   -0.639863    0.000106
      4          6           0       -0.624624    0.049159    0.000037
      5          6           0        1.910736    0.027963   -0.000139
      6          1           0        0.735460   -1.731669    0.000720
      7          1           0        2.881051   -0.467112    0.000195
      8          1           0        1.886171    1.113765   -0.000715
 ---------------------------------------------------------------------

 SCF Done:  E(RwB97XD) =  -266.618206880     A.U. after   14 cycles

 Alpha  occ. eigenvalues --  -19.00121 -18.99889 -10.18565 -10.12883 -10.12748
 Alpha  occ. eigenvalues --   -0.92573  -0.84115  -0.70128  -0.52960  -0.42251
 Alpha  occ. eigenvalues --   -0.37535  -0.34225  -0.29762  -0.29664  -0.27955
 Alpha  occ. eigenvalues --   -0.18701  -0.14109  -0.13378  -0.12896
 Alpha virt. eigenvalues --    0.12164   0.13884   0.14863   0.19056   0.19698
 Alpha virt. eigenvalues --    0.20814   0.22103   0.23094   0.23666   0.24234
 Alpha virt. eigenvalues --    0.24618   0.24968   0.25236   0.27265   0.30285

 Mulliken charges:
               1
     1  O   -0.774540
     2  O   -0.761989
     3  C   -0.218131
     4  C    0.577623
     5  C   -0.978905
     6  H    0.442588
     7  H    0.365237
     8  H    0.348118
 Sum of Mulliken charges =  -1.00000

 Dipole moment (field-independent basis, Debye):
    X=              4.7532    Y=             -1.4066    Z=              0.0004  Tot=              4.9569
 Quadrupole moment (field-independent basis, Debye-Ang):
   XX=            -42.8341   YY=            -39.0776   ZZ=            -32.8405
   XY=             -0.9746   XZ=             -0.0003   YZ=             -0.0028

  Exact polarizability:      72.223       4.900      58.529      -0.001      -0.001      40.368
 Approx polarizability:      67.350       9.300      62.806      -0.000      -0.000      41.904

 Normal termination of Gaussian 16 at Mon Feb 10 14:42:18 2020.
