 Gaussian 16, Revision C.01,
 Gaussian 16:  ES64L-G16RevC.01  3-Jul-2019

 ------------------------------------------------
 #p wB97XD/aug-cc-pvtz NoSymm MaxDisk=100GB Polar
 ------------------------------------------------

 -----
 Polar
 -----
 Symbolic Z-matrix:
 Charge =  0 Multiplicity = 1

                          Input orientation:
 ---------------------------------------------------------------------
 Center     Atomic      Atomic             Coordinates (Angstroms)
 Number     Number       Type             X           Y           Z
 ---------------------------------------------------------------------
      1          8           0        1.664295    0.720102   -0.516070
      2          8           0        1.077581   -1.079705    0.731974
      3          7           0       -1.398849   -1.073266   -0.483711
      4          6           0       -0.649564    0.176990   -0.415485
      5          6           0       -1.189305    1.216227    0.578864
      6          6           0        0.766446   -0.164725   -0.011566
      7          1           0       -0.617129    0.622171   -1.415279
      8          1           0       -0.584079    2.127567    0.572132
      9          1           0       -2.216445    1.483467    0.312669
     10          1           0       -1.189628    0.798324    1.590372
     11          1           0       -2.395930   -0.870834   -0.538577
     12          1           0       -1.238941   -1.592554    0.378921
     13          1           0        2.533629    0.450591   -0.152378
 ---------------------------------------------------------------------

 SCF Done:  E(RwB97XD) =  -323.775506450     A.U. after   13 cycles

 Alpha  occ. eigenvalues --  -19.31405 -19.25242 -14.42458 -10.43068 -10.33954
 Alpha  occ. eigenvalues --  -10.29341  -1.21756  -1.12601  -1.00116  -0.85961
 Alpha  occ. eigenvalues --   -0.77546  -0.68315  -0.62619  -0.58983  -0.56330
 Alpha  occ. eigenvalues --   -0.53761  -0.52959  -0.50255  -0.50191  -0.46683
 Alpha  occ. eigenvalues --   -0.45368  -0.41750  -0.37445  -0.33720
 Alpha virt. eigenvalues --    0.02838   0.03472   0.04231   0.04502   0.05875
 Alpha virt. eigenvalues --    0.06272   0.06762   0.07275   0.09099   0.09687
 Alpha virt. eigenvalues --    0.10934   0.11140   0.11875   0.12489   0.12827

 Mulliken charges:
               1
     1  O   -0.420495
     2  O   -0.817331
     3  N   -0.581363
     4  C    0.750832
     5  C   -1.022547
     6  C    0.658038
     7  H    0.256161
     8  H    0.271919
     9  H    0.262325
    10  H    0.285260
    11  H    0.055888
    12  H    0.092449
    13  H    0.208865
 Sum of Mulliken charges =  -0.00000

 Dipole moment (field-independent basis, Debye):
    X=             -0.7996    Y=              2.1665    Z=              0.1953  Tot=              2.3176
 Quadrupole moment (field-independent basis, Debye-Ang):
   XX=            -28.8131   YY=            -40.3191   ZZ=            -38.6780
   XY=              1.2568   XZ=             -1.3602   YZ=             -0.0742

  Exact polarizability:      60.265       0.320      56.535      -0.017      -2.051      48.858
 Approx polarizability:      59.110       0.312      60.627       0.704      -6.300      55.160

 Normal termination of Gaussian 16 at Mon Feb 10 14:59:03 2020.
