 Gaussian 16, Revision C.01,
 Gaussian 16:  ES64L-G16RevC.01  3-Jul-2019

 -----------------------------------------------------
 #p wB97XD/aug-cc-pvtz MaxDisk=100GB IOP(5/13=1) Polar
 -----------------------------------------------------

 -----
 Polar
 -----
 Symbolic Z-matrix:
 Charge = -4 Multiplicity = 1

                         Standard orientation:
 ---------------------------------------------------------------------
 Center     Atomic      Atomic             Coordinates (Angstroms)
 Number     Number       Type             X           Y           Z
 ---------------------------------------------------------------------
      1         15           0       -1.677808   -0.000001    0.000549
      2         15           0        1.677800    0.000002    0.000540
      3          8           0       -0.000004   -0.000182    0.391977
      4          8           0       -2.361363   -0.000397    1.409654
      5          8           0       -2.000797   -1.297353   -0.803744
      6          8           0        2.361297   -0.000840    1.409669
      7          8           0        2.000833    1.298078   -0.802567
      8          8           0       -2.000710    1.297853   -0.802966
      9          8           0        2.000759   -1.297163   -0.804065
 ---------------------------------------------------------------------

 SCF Done:  E(RwB97XD) =  -1208.99935379     A.U. after   18 cycles

 The electronic state is 1-A.
 Alpha  occ. eigenvalues --  -76.73549 -76.73549 -18.62625 -18.59313 -18.59312
 Alpha  occ. eigenvalues --  -18.59083 -18.59083 -18.59082 -18.59082  -6.13727
 Alpha  occ. eigenvalues --   -6.13727  -4.28813  -4.28812  -4.28483  -4.28483
 Alpha  occ. eigenvalues --   -4.28465  -4.28465  -0.49989  -0.47213  -0.41654
 Alpha  occ. eigenvalues --   -0.39413  -0.39405  -0.39381  -0.39332  -0.05850
 Alpha  occ. eigenvalues --    0.04262   0.08272   0.11401   0.11528   0.13238
 Alpha  occ. eigenvalues --    0.13292   0.17148   0.19564   0.19615   0.21794
 Alpha  occ. eigenvalues --    0.21802   0.21853   0.22074   0.22668   0.25466
 Alpha  occ. eigenvalues --    0.25658   0.27461   0.27506   0.28298   0.28397
 Alpha virt. eigenvalues --    0.43655   0.45884   0.48046   0.48141   0.48216
 Alpha virt. eigenvalues --    0.48340   0.53433   0.56111   0.58203   0.59232
 Alpha virt. eigenvalues --    0.60366   0.60700   0.62759   0.65134   0.66349

 Mulliken charges:
               1
     1  P    1.399212
     2  P    1.399213
     3  O   -0.566969
     4  O   -1.056866
     5  O   -1.029431
     6  O   -1.056869
     7  O   -1.029430
     8  O   -1.029430
     9  O   -1.029430
 Sum of Mulliken charges =  -4.00000

 Dipole moment (field-independent basis, Debye):
    X=             -0.0001    Y=             -0.0001    Z=              0.3047  Tot=              0.3047
 Quadrupole moment (field-independent basis, Debye-Ang):
   XX=           -182.2729   YY=           -109.8503   ZZ=           -110.0012
   XY=              0.0001   XZ=             -0.0005   YZ=              0.0001

  Exact polarizability:     175.660      -0.000     138.720       0.000       0.001     137.273
 Approx polarizability:     122.846       0.000     116.364      -0.000       0.000     115.934

 1\1\GINC-NODE35\SP\RwB97XD\Aug-CC-pVTZ\O7P2(4-)\LIUCHW\21-Mar-2020\0\\
 #p wB97XD/aug-cc-pvtz MaxDisk=100GB IOP(5/13=1) Polar\\Polar\\-4,1\P,0
 ,-1.677808,-0.000001,0.000549\P,0,1.6778,0.000002,0.00054\O,0,-0.00000
 4,-0.000182,0.391977\O,0,-2.361363,-0.000397,1.409654\O,0,-2.000797,-1
 .297353,-0.803744\O,0,2.361297,-0.00084,1.409669\O,0,2.000833,1.298078
 ,-0.802567\O,0,-2.00071,1.297853,-0.802966\O,0,2.000759,-1.297163,-0.8
 04065\\Version=ES64L-G16RevC.01\State=1-A\HF=-1208.9993538\RMSD=5.638e
 -09\Dipole=-0.0000315,-0.0000466,0.1198749\Polar=175.6596721,-0.000085

 Normal termination of Gaussian 16 at Sat Mar 21 05:51:49 2020.
