 Gaussian 16, Revision C.01,
 Gaussian 16:  ES64L-G16RevC.01  3-Jul-2019

 -----------------------------------------------------
 #p wB97XD/aug-cc-pvtz MaxDisk=100GB IOP(5/13=1) Polar
 -----------------------------------------------------

 -----
 Polar
 -----
 Symbolic Z-matrix:
 Charge =  1 Multiplicity = 1

                         Standard orientation:
 ---------------------------------------------------------------------
 Center     Atomic      Atomic             Coordinates (Angstroms)
 Number     Number       Type             X           Y           Z
 ---------------------------------------------------------------------
      1          7           0       -2.315621    0.000013    0.009222
      2          6           0       -0.826546    0.000077   -0.015213
      3          6           0       -0.171658   -1.225997   -0.005010
      4          6           0       -0.171526    1.226038   -0.005005
      5          6           0        1.224715   -1.213007    0.001415
      6          6           0        1.224880    1.212921    0.001412
      7          6           0        1.918301   -0.000069    0.006513
      8          1           0       -0.716425   -2.168217   -0.008550
      9          1           0       -0.716143    2.168351   -0.008527
     10          1           0       -2.698394    0.831939   -0.461913
     11          1           0       -2.698761   -0.824474   -0.474535
     12          1           0       -2.687360   -0.007192    0.970556
     13          1           0        1.766463   -2.154141    0.001774
     14          1           0        1.766717    2.154002    0.001763
     15          1           0        3.004264   -0.000138    0.010205
 ---------------------------------------------------------------------

 SCF Done:  E(RwB97XD) =  -287.959618426     A.U. after   12 cycles

 The electronic state is 1-A.
 Alpha  occ. eigenvalues --  -14.76482 -10.52510 -10.47022 -10.47019 -10.45474
 Alpha  occ. eigenvalues --  -10.45469 -10.44980  -1.30600  -1.12684  -1.02024
 Alpha  occ. eigenvalues --   -1.01691  -0.89887  -0.88535  -0.86749  -0.83485
 Alpha  occ. eigenvalues --   -0.80453  -0.74301  -0.70451  -0.68572  -0.67673
 Alpha  occ. eigenvalues --   -0.62952  -0.60323  -0.59556  -0.50199  -0.49838
 Alpha virt. eigenvalues --   -0.12331  -0.11836  -0.11402  -0.07824  -0.07221
 Alpha virt. eigenvalues --   -0.06707  -0.04496  -0.04406  -0.04315  -0.03408
 Alpha virt. eigenvalues --   -0.02591  -0.01836  -0.01127  -0.00810  -0.00498

 Mulliken charges:
               1
     1  N    0.088615
     2  C    1.399616
     3  C   -1.110393
     4  C   -1.108559
     5  C   -0.360732
     6  C   -0.360700
     7  C   -0.432142
     8  H    0.537426
     9  H    0.536329
    10  H    0.078682
    11  H    0.080175
    12  H    0.139689
    13  H    0.475729
    14  H    0.477347
    15  H    0.558918
 Sum of Mulliken charges =   1.00000

 Dipole moment (field-independent basis, Debye):
    X=             -7.0925    Y=             -0.0003    Z=              0.0712  Tot=              7.0928
 Quadrupole moment (field-independent basis, Debye-Ang):
   XX=             -6.6106   YY=            -29.6637   ZZ=            -41.3074
   XY=              0.0009   XZ=             -0.0895   YZ=              0.0000

  Exact polarizability:      90.027       0.003      81.074       0.118      -0.000      45.234
 Approx polarizability:      99.420       0.006      97.030       0.235      -0.000      54.209

 Normal termination of Gaussian 16 at Sat Mar 21 06:03:41 2020.
