 Gaussian 16, Revision C.01,
 Gaussian 16:  ES64L-G16RevC.01  3-Jul-2019

 -----------------------------------------------------
 #p wB97XD/aug-cc-pvtz MaxDisk=100GB IOP(5/13=1) Polar
 -----------------------------------------------------

 -----
 Polar
 -----
 Symbolic Z-matrix:
 Charge =  0 Multiplicity = 1

                         Standard orientation:
 ---------------------------------------------------------------------
 Center     Atomic      Atomic             Coordinates (Angstroms)
 Number     Number       Type             X           Y           Z
 ---------------------------------------------------------------------
      1          8           0       -0.708755   -1.119340   -0.254671
      2          8           0       -0.752900    2.545498    0.201128
      3          8           0        1.986345    1.978898   -0.342673
      4          8           0        2.911654   -0.674448    0.169567
      5          8           0        0.915762   -2.726286   -0.067243
      6          8           0       -3.413855   -0.887791    0.189909
      7          6           0       -0.320517    1.252029   -0.238282
      8          6           0        1.117458    1.003316    0.201262
      9          6           0       -1.227317    0.125062    0.231277
     10          6           0        1.582260   -0.381635   -0.222643
     11          6           0        0.584279   -1.427917    0.286235
     12          6           0       -2.646172    0.201639   -0.296484
     13          1           0       -0.342121    1.302124   -1.332603
     14          1           0        1.138981    1.043840    1.311640
     15          1           0       -1.261402    0.102796    1.336512
     16          1           0        1.582306   -0.426199   -1.319555
     17          1           0        0.526537   -1.415278    1.386288
     18          1           0       -2.608831    0.217324   -1.396030
     19          1           0       -3.128177    1.120009    0.045448
     20          1           0       -0.826426    2.511096    1.173715
     21          1           0        1.506966    2.825247   -0.250978
     22          1           0        3.003174   -0.453243    1.113433
     23          1           0        1.254332   -2.712213   -0.980367
     24          1           0       -2.891291   -1.682711   -0.023827
 ---------------------------------------------------------------------

 SCF Done:  E(RwB97XD) =  -687.241891347     A.U. after   13 cycles

 The electronic state is 1-A.
 Alpha  occ. eigenvalues --  -19.29270 -19.28690 -19.28047 -19.27398 -19.27189
 Alpha  occ. eigenvalues --  -19.25869 -10.40775 -10.36566 -10.36506 -10.36364
 Alpha  occ. eigenvalues --  -10.36115 -10.34320  -1.19765  -1.16757  -1.15151
 Alpha  occ. eigenvalues --   -1.13862  -1.13134  -1.12051  -0.90605  -0.88472
 Alpha  occ. eigenvalues --   -0.79871  -0.76214  -0.73152  -0.72356  -0.65927
 Alpha  occ. eigenvalues --   -0.63561  -0.62651  -0.61871  -0.60340  -0.58479
 Alpha  occ. eigenvalues --   -0.56927  -0.56605  -0.53498  -0.52191  -0.51658
 Alpha  occ. eigenvalues --   -0.50101  -0.47931  -0.47448  -0.46280  -0.45469
 Alpha  occ. eigenvalues --   -0.44207  -0.43150  -0.42037  -0.40433  -0.39215
 Alpha  occ. eigenvalues --   -0.38125  -0.36844  -0.35661
 Alpha virt. eigenvalues --    0.01945   0.03167   0.03400   0.03866   0.04843
 Alpha virt. eigenvalues --    0.05318   0.05365   0.05615   0.06167   0.07409
 Alpha virt. eigenvalues --    0.07623   0.07946   0.08438   0.09411   0.10063

 Mulliken charges:
               1
     1  O   -0.806195
     2  O   -0.802535
     3  O   -0.830142
     4  O   -0.789283
     5  O   -0.756235
     6  O   -0.677247
     7  C    0.383555
     8  C    0.384953
     9  C    0.635203
    10  C    0.448457
    11  C    0.379876
    12  C   -0.381001
    13  H    0.330514
    14  H    0.141291
    15  H    0.290732
    16  H    0.326300
    17  H    0.378626
    18  H    0.239397
    19  H    0.279023
    20  H    0.141507
    21  H    0.174464
    22  H    0.148373
    23  H    0.160372
    24  H    0.199995
 Sum of Mulliken charges =  -0.00000

 Dipole moment (field-independent basis, Debye):
    X=              0.2204    Y=              1.5885    Z=              1.3703  Tot=              2.1094
 Quadrupole moment (field-independent basis, Debye-Ang):
   XX=            -88.9527   YY=            -75.3825   ZZ=            -63.5961
   XY=             -2.9465   XZ=              3.8780   YZ=              6.4896

  Exact polarizability:     107.385      -2.252     103.148       0.055       0.817      85.916
 Approx polarizability:     104.200      -3.207     107.277      -1.280       1.499     106.086

 Normal termination of Gaussian 16 at Sat Mar 21 08:34:48 2020.
