 Gaussian 16, Revision C.01,
 Gaussian 16:  ES64L-G16RevC.01  3-Jul-2019

 -----------------------------------------------------
 #p wB97XD/aug-cc-pvtz MaxDisk=100GB IOP(5/13=1) Polar
 -----------------------------------------------------

 -----
 Polar
 -----
 Symbolic Z-matrix:
 Charge =  0 Multiplicity = 1

                         Standard orientation:
 ---------------------------------------------------------------------
 Center     Atomic      Atomic             Coordinates (Angstroms)
 Number     Number       Type             X           Y           Z
 ---------------------------------------------------------------------
      1         15           0        2.611451    0.043353   -0.189796
      2          8           0       -0.741573   -0.516655   -0.875930
      3          8           0       -3.147120    1.752520    0.185742
      4          8           0       -3.557429   -0.552467   -0.956038
      5          8           0       -0.926226   -1.697549    1.150785
      6          8           0        1.501286    1.223313   -0.320393
      7          8           0        1.741480   -1.299445   -0.356716
      8          8           0        2.959014   -0.065300    1.390999
      9          8           0        3.775366    0.284382   -1.065424
     10          6           0       -2.178668    0.769263    0.542348
     11          6           0       -0.894923    0.813473   -0.316570
     12          6           0       -2.782793   -0.605977    0.223131
     13          6           0       -1.536932   -1.408966   -0.083596
     14          6           0        0.322530    1.192408    0.507920
     15          1           0       -1.937665    0.828614    1.611716
     16          1           0       -1.016945    1.495504   -1.162993
     17          1           0       -3.341329   -1.022748    1.070689
     18          1           0       -1.707795   -2.294763   -0.702801
     19          1           0        0.441635    0.496869    1.343081
     20          1           0        0.197553    2.204465    0.909285
     21          1           0       -2.890994    2.604882    0.575583
     22          1           0       -4.042321    0.294067   -0.926090
     23          1           0       -0.041921   -2.073993    0.973034
     24          1           0        0.907295   -1.081768   -0.853167
     25          1           0        3.847051    0.306985    1.544993
 ---------------------------------------------------------------------

 SCF Done:  E(RwB97XD) =  -1140.49005717     A.U. after   13 cycles

 The electronic state is 1-A.
 Alpha  occ. eigenvalues --  -77.38859 -19.30250 -19.30159 -19.30151 -19.29955
 Alpha  occ. eigenvalues --  -19.29030 -19.28891 -19.27122 -19.21644 -10.41347
 Alpha  occ. eigenvalues --  -10.37945 -10.37328 -10.37285 -10.36471  -6.79603
 Alpha  occ. eigenvalues --   -4.94566  -4.94507  -4.94196  -1.21792  -1.20431
 Alpha  occ. eigenvalues --   -1.17416  -1.15072  -1.13970  -1.13794  -1.13401
 Alpha  occ. eigenvalues --   -1.06636  -0.91178  -0.88425  -0.80643  -0.74025
 Alpha  occ. eigenvalues --   -0.72692  -0.71031  -0.67331  -0.66488  -0.64858
 Alpha  occ. eigenvalues --   -0.63180  -0.62075  -0.59481  -0.59005  -0.57610
 Alpha  occ. eigenvalues --   -0.55243  -0.54876  -0.54198  -0.52911  -0.50989
 Alpha  occ. eigenvalues --   -0.50773  -0.48719  -0.48503  -0.48056  -0.46741
 Alpha  occ. eigenvalues --   -0.45213  -0.44387  -0.43504  -0.43192  -0.41362
 Alpha  occ. eigenvalues --   -0.40500  -0.39463  -0.39000  -0.38490  -0.37438
 Alpha virt. eigenvalues --    0.01469   0.02936   0.03355   0.03623   0.04497
 Alpha virt. eigenvalues --    0.05145   0.05309   0.05706   0.06288   0.06816
 Alpha virt. eigenvalues --    0.07728   0.08236   0.09226   0.09430   0.09939

 Mulliken charges:
               1
     1  P    1.820040
     2  O   -0.679221
     3  O   -0.672520
     4  O   -0.770120
     5  O   -0.679163
     6  O   -0.750482
     7  O   -0.653546
     8  O   -0.430526
     9  O   -1.001839
    10  C    0.371122
    11  C    0.402595
    12  C    0.174461
    13  C    0.508829
    14  C   -0.273166
    15  H    0.323420
    16  H    0.246610
    17  H    0.304340
    18  H    0.372346
    19  H    0.392415
    20  H    0.225807
    21  H    0.105923
    22  H    0.187889
    23  H    0.173767
    24  H    0.187738
    25  H    0.113279
 Sum of Mulliken charges =  -0.00000

 Dipole moment (field-independent basis, Debye):
    X=             -3.5231    Y=              2.3072    Z=              4.0640  Tot=              5.8525
 Quadrupole moment (field-independent basis, Debye-Ang):
   XX=           -100.6459   YY=            -80.4682   ZZ=            -91.8579
   XY=             -5.5571   XZ=              7.7710   YZ=              5.0779

  Exact polarizability:     130.111      -1.039     104.838      -0.389       0.762      96.446
 Approx polarizability:     122.835      -0.734     117.285      -1.136      -0.419     115.773

 Normal termination of Gaussian 16 at Sat Mar 21 10:37:55 2020.
