 Gaussian 16, Revision C.01,
 Gaussian 16:  ES64L-G16RevC.01  3-Jul-2019

 -----------------------------------------------------
 #p wB97XD/aug-cc-pvtz MaxDisk=100GB IOP(5/13=1) Polar
 -----------------------------------------------------

 -----
 Polar
 -----
 Symbolic Z-matrix:
 Charge = -1 Multiplicity = 1

                         Standard orientation:
 ---------------------------------------------------------------------
 Center     Atomic      Atomic             Coordinates (Angstroms)
 Number     Number       Type             X           Y           Z
 ---------------------------------------------------------------------
      1          8           0       -1.741120   -0.640006   -0.122642
      2          8           0       -0.584780    1.326030    0.069815
      3          6           0        0.625981   -0.743375    0.164809
      4          6           0        1.880007    0.072905   -0.122224
      5          6           0       -0.702989    0.067168    0.010167
      6          1           0        0.658727   -1.128056    1.194773
      7          1           0        0.565710   -1.625777   -0.483872
      8          1           0        1.894741    0.397245   -1.167752
      9          1           0        1.865714    0.977113    0.488484
     10          1           0        2.804317   -0.488910    0.074469
 ---------------------------------------------------------------------

 SCF Done:  E(RwB97XD) =  -267.854154940     A.U. after   13 cycles

 The electronic state is 1-A.
 Alpha  occ. eigenvalues --  -18.99453 -18.99239 -10.17740 -10.12120 -10.11179
 Alpha  occ. eigenvalues --   -0.91936  -0.83455  -0.69602  -0.56081  -0.40497
 Alpha  occ. eigenvalues --   -0.37482  -0.34936  -0.31545  -0.29177  -0.28839
 Alpha  occ. eigenvalues --   -0.26615  -0.24308  -0.13584  -0.12334  -0.12019
 Alpha virt. eigenvalues --    0.12202   0.13879   0.14237   0.14994   0.16263
 Alpha virt. eigenvalues --    0.19839   0.20948   0.22312   0.22500   0.23304
 Alpha virt. eigenvalues --    0.24616   0.24894   0.25237   0.26635   0.27050

 Mulliken charges:
               1
     1  O   -0.797721
     2  O   -0.776239
     3  C   -0.299831
     4  C   -0.946203
     5  C    0.508317
     6  H    0.226727
     7  H    0.241557
     8  H    0.273917
     9  H    0.300076
    10  H    0.269400
 Sum of Mulliken charges =  -1.00000

 Dipole moment (field-independent basis, Debye):
    X=              5.1921    Y=             -1.6704    Z=              0.2240  Tot=              5.4588
 Quadrupole moment (field-independent basis, Debye-Ang):
   XX=            -47.0844   YY=            -41.6478   ZZ=            -32.4843
   XY=             -1.0203   XZ=             -0.5785   YZ=             -0.4500

  Exact polarizability:      65.535       0.959      60.558       1.010      -0.233      45.371
 Approx polarizability:      58.545       3.303      62.907       1.241       0.511      48.714

 Normal termination of Gaussian 16 at Sat Mar 21 05:42:07 2020.
