 Gaussian 16, Revision C.01,
 Gaussian 16:  ES64L-G16RevC.01  3-Jul-2019

 -----------------------------------------------------
 #p wB97XD/aug-cc-pvtz MaxDisk=100GB IOP(5/13=1) Polar
 -----------------------------------------------------

 -----
 Polar
 -----
 Symbolic Z-matrix:
 Charge =  1 Multiplicity = 1

                         Standard orientation:
 ---------------------------------------------------------------------
 Center     Atomic      Atomic             Coordinates (Angstroms)
 Number     Number       Type             X           Y           Z
 ---------------------------------------------------------------------
      1          7           0       -2.448622   -0.307081    0.000134
      2          6           0        0.046325   -0.322272   -0.000146
      3          6           0       -1.193656    0.551982   -0.000186
      4          6           0        1.318200    0.531596    0.000177
      5          6           0        2.577113   -0.331283   -0.000009
      6          1           0        0.045742   -0.971342   -0.885180
      7          1           0        0.045506   -0.971689    0.884637
      8          1           0       -1.256082    1.183145    0.888585
      9          1           0       -1.256253    1.182781   -0.889203
     10          1           0        1.315710    1.184043    0.880794
     11          1           0        1.315818    1.184607   -0.880027
     12          1           0       -2.476284   -0.916323    0.828282
     13          1           0       -2.475679   -0.917729   -0.827004
     14          1           0       -3.309399    0.256691   -0.000656
     15          1           0        2.616302   -0.970658   -0.886194
     16          1           0        2.616567   -0.970644    0.886169
     17          1           0        3.470522    0.296542   -0.000157
 ---------------------------------------------------------------------

 SCF Done:  E(RwB97XD) =  -214.186428352     A.U. after   11 cycles

 The electronic state is 1-A.
 Alpha  occ. eigenvalues --  -14.76223 -10.53197 -10.45852 -10.42574 -10.39215
 Alpha  occ. eigenvalues --   -1.30191  -1.07195  -0.98994  -0.91059  -0.87473
 Alpha  occ. eigenvalues --   -0.86603  -0.81967  -0.76554  -0.73260  -0.67206
 Alpha  occ. eigenvalues --   -0.66420  -0.62784  -0.60371  -0.57022  -0.55709
 Alpha  occ. eigenvalues --   -0.54963
 Alpha virt. eigenvalues --   -0.12830  -0.08463  -0.08406  -0.07498  -0.04873
 Alpha virt. eigenvalues --   -0.04509  -0.04484  -0.04002  -0.03886  -0.03393
 Alpha virt. eigenvalues --   -0.01930  -0.01469  -0.01041  -0.01025  -0.00592

 Mulliken charges:
               1
     1  N    0.233682
     2  C   -0.202613
     3  C   -0.129059
     4  C   -0.327162
     5  C   -0.924058
     6  H    0.238469
     7  H    0.238484
     8  H    0.238933
     9  H    0.238889
    10  H    0.244276
    11  H    0.244367
    12  H    0.071488
    13  H    0.071437
    14  H    0.014091
    15  H    0.260934
    16  H    0.260895
    17  H    0.226948
 Sum of Mulliken charges =   1.00000

 Dipole moment (field-independent basis, Debye):
    X=             -8.7314    Y=             -0.8449    Z=              0.0004  Tot=              8.7722
 Quadrupole moment (field-independent basis, Debye-Ang):
   XX=             -1.8222   YY=            -28.8137   ZZ=            -28.9651
   XY=              3.0784   XZ=             -0.0012   YZ=             -0.0005

  Exact polarizability:      67.869       0.093      52.757      -0.000       0.000      49.270
 Approx polarizability:      60.555       0.549      57.912      -0.000       0.000      56.878

 Normal termination of Gaussian 16 at Sat Mar 21 06:19:21 2020.
