 Gaussian 16, Revision C.01,
 Gaussian 16:  ES64L-G16RevC.01  3-Jul-2019

 -----------------------------------------------------
 #p wB97XD/aug-cc-pvtz MaxDisk=100GB IOP(5/13=1) Polar
 -----------------------------------------------------

 -----
 Polar
 -----
 Symbolic Z-matrix:
 Charge =  1 Multiplicity = 1

                         Standard orientation:
 ---------------------------------------------------------------------
 Center     Atomic      Atomic             Coordinates (Angstroms)
 Number     Number       Type             X           Y           Z
 ---------------------------------------------------------------------
      1          6           0        0.497136   -0.719311    0.000000
      2          6           0        2.016226   -0.732641    0.000000
      3          6           0        2.531795   -2.172323    0.000000
      4          7           0        0.000000    0.715173    0.000000
      5          1           0        0.393006    1.194412    0.823585
      6          1           0        0.393006    1.194412   -0.823585
      7          6           0       -1.498565    0.888427    0.000000
      8          7           0       -2.150792   -0.197122    0.000000
      9          7           0       -1.830204    2.204949    0.000000
     10          1           0        0.067041   -1.192069   -0.882801
     11          1           0        0.067041   -1.192069    0.882801
     12          1           0        2.397960   -0.206879   -0.883904
     13          1           0        2.397960   -0.206879    0.883904
     14          1           0        2.190618   -2.712438    0.886600
     15          1           0        2.190618   -2.712438   -0.886600
     16          1           0        3.623153   -2.179865    0.000000
     17          1           0       -3.164975   -0.064801    0.000000
     18          1           0       -1.160561    2.962566    0.000000
     19          1           0       -2.807447    2.470147    0.000000
 ---------------------------------------------------------------------

 SCF Done:  E(RwB97XD) =  -323.686012070     A.U. after   12 cycles

 The electronic state is 1-A'.
 Alpha  occ. eigenvalues --  -14.74684 -14.64655 -14.58940 -10.59697 -10.50488
 Alpha  occ. eigenvalues --  -10.44804 -10.40838  -1.31311  -1.21567  -1.15003
 Alpha  occ. eigenvalues --   -1.05136  -0.95256  -0.90982  -0.86690  -0.85992
 Alpha  occ. eigenvalues --   -0.82653  -0.80238  -0.73714  -0.72780  -0.71251
 Alpha  occ. eigenvalues --   -0.65484  -0.65403  -0.62946  -0.59713  -0.57844
 Alpha  occ. eigenvalues --   -0.56943  -0.54835  -0.51636
 Alpha virt. eigenvalues --   -0.11543  -0.09761  -0.07430  -0.06894  -0.06718
 Alpha virt. eigenvalues --   -0.05332  -0.04792  -0.03683  -0.03428  -0.02984
 Alpha virt. eigenvalues --   -0.02895  -0.01919  -0.01216  -0.00775  -0.00575

 Mulliken charges:
               1
     1  C   -0.050328
     2  C   -0.336194
     3  C   -0.900191
     4  N    0.455817
     5  H   -0.003012
     6  H   -0.003012
     7  C    0.506483
     8  N   -0.521861
     9  N   -0.311604
    10  H    0.332523
    11  H    0.332523
    12  H    0.248286
    13  H    0.248286
    14  H    0.261386
    15  H    0.261386
    16  H    0.234544
    17  H    0.099119
    18  H    0.078742
    19  H    0.067106
 Sum of Mulliken charges =   1.00000

 Dipole moment (field-independent basis, Debye):
    X=             -0.7383    Y=              5.1860    Z=              0.0000  Tot=              5.2383
 Quadrupole moment (field-independent basis, Debye-Ang):
   XX=            -23.8869   YY=            -25.4406   ZZ=            -41.2582
   XY=            -11.3066   XZ=             -0.0000   YZ=             -0.0000

  Exact polarizability:      79.502      -6.651      81.421      -0.000       0.000      54.910
 Approx polarizability:      76.935       3.420      87.241       0.000      -0.000      64.591

 Normal termination of Gaussian 16 at Sat Mar 21 05:56:33 2020.
