                               Psi4 1.4a2.dev224

  ==> Input File <==

--------------------------------------------------------------------------
#Generated by lconvert.py for sapt job

memory 20 GB

molecule  {
0 1
  O      -0.702200   -0.056060    0.009940
  H      -1.022190    0.846780   -0.011490
  H       0.257520    0.042120    0.005220
--
0 1
  O       2.872390    0.021600   -0.000900
  H       3.249010   -0.416780    0.765220
  H       3.244650   -0.454610   -0.746310
units angstrom
no_reorient
symmetry c1
}

set {
scf_type DF
basis aug-cc-pvdz
freeze_core True
guess SAD
}
energy('sapt2+')
--------------------------------------------------------------------------

  //              Dimer HF             //
    Molecular point group: c1
  Charge       = 0
  Multiplicity = 1
  Basis Set: AUG-CC-PVDZ
    Blend: AUG-CC-PVDZ
  Basis Set: (AUG-CC-PVDZ AUX)
    Blend: AUG-CC-PVDZ-JKFIT
  @DF-RHF Final Energy:  -152.08702067532101
    Total Energy =                       -152.0870206753210141
  //            Monomer A HF           //
    Molecular point group: c1
  Multiplicity = 1
  Basis Set: AUG-CC-PVDZ
    Blend: AUG-CC-PVDZ
  Basis Set: (AUG-CC-PVDZ AUX)
    Blend: AUG-CC-PVDZ-JKFIT
  @DF-RHF Final Energy:   -76.04109848724070
    Total Energy =                        -76.0410984872407028
  //            Monomer B HF           //
    Molecular point group: c1

    Geometry (in Angstrom), charge = 0, multiplicity = 1:

       Center              X                  Y                   Z               Mass
    ------------   -----------------  -----------------  -----------------  -----------------
      Gh(O)          -1.826146528049    -0.041248200625     0.005572204228    15.994914619570
      Gh(H)          -2.146136528049     0.861591799375    -0.015857795772     1.007825032230
      Gh(H)          -0.866426528049     0.056931799375     0.000852204228     1.007825032230
         O            1.748443471951     0.036411799375    -0.005267795772    15.994914619570
         H            2.125063471951    -0.401968200625     0.760852204228     1.007825032230
         H            2.120703471951    -0.439798200625    -0.750677795772     1.007825032230

  Charge       = 0
  Multiplicity = 1
  Basis Set: AUG-CC-PVDZ
    Blend: AUG-CC-PVDZ
  Basis Set: (AUG-CC-PVDZ AUX)
    Blend: AUG-CC-PVDZ-JKFIT

    Orbital Energies [Eh]
    ---------------------

    Doubly Occupied:

       1A    -20.577939     2A     -1.355768     3A     -0.716812
       4A     -0.586242     5A     -0.509364

  @DF-RHF Final Energy:   -76.04134142384815

   => Energetics <=

    Nuclear Repulsion Energy =              9.1725972898298203
    One-Electron Energy =                -122.9356273222787763
    Two-Electron Energy =                  37.7216886086007932
    Total Energy =                        -76.0413414238481664

  Dipole Moment: [D]
     X:     1.2698      Y:    -1.5531      Z:     0.0352     Total:     2.0064

    SAPT Results
  --------------------------------------------------------------------------------------------------------
    Electrostatics                 -4.70178105 [mEh]      -2.95041216 [kcal/mol]     -12.34452446 [kJ/mol]
      Elst10,r                     -5.00619083 [mEh]      -3.14143217 [kcal/mol]     -13.14375221 [kJ/mol]
      Elst12,r                      0.30440977 [mEh]       0.19102002 [kcal/mol]       0.79922775 [kJ/mol]

    Exchange                        1.23625205 [mEh]       0.77575987 [kcal/mol]       3.24577931 [kJ/mol]
      Exch10                        0.95204712 [mEh]       0.59741859 [kcal/mol]       2.49959938 [kJ/mol]
      Exch10(S^2)                   0.95127722 [mEh]       0.59693547 [kcal/mol]       2.49757800 [kJ/mol]
      Exch11(S^2)                   0.00356997 [mEh]       0.00224019 [kcal/mol]       0.00937297 [kJ/mol]
      Exch12(S^2)                   0.28063495 [mEh]       0.17610109 [kcal/mol]       0.73680696 [kJ/mol]

    Induction                      -0.58205870 [mEh]      -0.36524735 [kcal/mol]      -1.52819492 [kJ/mol]
      Ind20,r                      -0.55780528 [mEh]      -0.35002810 [kcal/mol]      -1.46451756 [kJ/mol]
      Ind22                        -0.07619342 [mEh]      -0.04781209 [kcal/mol]      -0.20004580 [kJ/mol]
      Exch-Ind20,r                  0.15194731 [mEh]       0.09534838 [kcal/mol]       0.39893761 [kJ/mol]
      Exch-Ind22                    0.02075525 [mEh]       0.01302411 [kcal/mol]       0.05449289 [kJ/mol]
      delta HF,r (2)               -0.12076256 [mEh]      -0.07577965 [kcal/mol]      -0.31706205 [kJ/mol]

    Dispersion                     -0.93746503 [mEh]      -0.58826819 [kcal/mol]      -2.46131411 [kJ/mol]
      Disp20                       -0.82904493 [mEh]      -0.52023355 [kcal/mol]      -2.17665716 [kJ/mol]
      Disp21                        0.01197751 [mEh]       0.00751600 [kcal/mol]       0.03144696 [kJ/mol]
      Disp22 (SDQ)                 -0.04697608 [mEh]      -0.02947793 [kcal/mol]      -0.12333568 [kJ/mol]
      Disp22 (T)                   -0.12555976 [mEh]      -0.07878994 [kcal/mol]      -0.32965710 [kJ/mol]
      Est. Disp22 (T)              -0.13959312 [mEh]      -0.08759601 [kcal/mol]      -0.36650170 [kJ/mol]
      Exch-Disp20                   0.06617158 [mEh]       0.04152329 [kcal/mol]       0.17373346 [kJ/mol]

  Total HF                         -4.58076423 [mEh]      -2.87447295 [kcal/mol]     -12.02679483 [kJ/mol]
  Total SAPT0                      -5.34363758 [mEh]      -3.35318320 [kcal/mol]     -14.02971853 [kJ/mol]
  Total SAPT2                      -4.81046105 [mEh]      -3.01860988 [kcal/mol]     -12.62986376 [kJ/mol]
  Total SAPT2+                     -4.98505274 [mEh]      -3.12816782 [kcal/mol]     -13.08825417 [kJ/mol]

  Special recipe for scaled SAPT0 (see Manual):
    Electrostatics sSAPT0          -5.00619083 [mEh]      -3.14143217 [kcal/mol]     -13.14375221 [kJ/mol]
    Exchange sSAPT0                 0.95204712 [mEh]       0.59741859 [kcal/mol]       2.49959938 [kJ/mol]
    Induction sSAPT0               -0.52625130 [mEh]      -0.33022768 [kcal/mol]      -1.38167260 [kJ/mol]
    Dispersion sSAPT0              -0.76271255 [mEh]      -0.47860935 [kcal/mol]      -2.00250153 [kJ/mol]
  Total sSAPT0                     -5.34310755 [mEh]      -3.35285061 [kcal/mol]     -14.02832695 [kJ/mol]
  --------------------------------------------------------------------------------------------------------

*** Psi4 exiting successfully. Buy a developer a beer!
