                               Psi4 1.4a2.dev224

  ==> Input File <==

--------------------------------------------------------------------------
#Generated by lconvert.py for sapt job

memory 20 GB

molecule  {
0 1
  O      -0.702200   -0.056060    0.009940
  H      -1.022190    0.846780   -0.011490
  H       0.257520    0.042120    0.005220
--
0 1
  O       3.475800    0.016870   -0.002320
  H       3.852420   -0.421510    0.763810
  H       3.848060   -0.459350   -0.747720
units angstrom
no_reorient
symmetry c1
}

set {
scf_type DF
basis aug-cc-pvdz
freeze_core True
guess SAD
}
energy('sapt2+')
--------------------------------------------------------------------------

  //              Dimer HF             //
    Molecular point group: c1
  Charge       = 0
  Multiplicity = 1
  Basis Set: AUG-CC-PVDZ
    Blend: AUG-CC-PVDZ
  Basis Set: (AUG-CC-PVDZ AUX)
    Blend: AUG-CC-PVDZ-JKFIT
  @DF-RHF Final Energy:  -152.08509037353770
    Total Energy =                       -152.0850903735376960
  //            Monomer A HF           //
    Molecular point group: c1
  Multiplicity = 1
  Basis Set: AUG-CC-PVDZ
    Blend: AUG-CC-PVDZ
  Basis Set: (AUG-CC-PVDZ AUX)
    Blend: AUG-CC-PVDZ-JKFIT
  @DF-RHF Final Energy:   -76.04108402848244
    Total Energy =                        -76.0410840284824445
  //            Monomer B HF           //
    Molecular point group: c1

    Geometry (in Angstrom), charge = 0, multiplicity = 1:

       Center              X                  Y                   Z               Mass
    ------------   -----------------  -----------------  -----------------  -----------------
      Gh(O)          -2.127851528049    -0.038882920837     0.006281644653    15.994914619570
      Gh(H)          -2.447841528049     0.863957079163    -0.015148355347     1.007825032230
      Gh(H)          -1.168131528049     0.059297079163     0.001561644653     1.007825032230
         O            2.050148471951     0.034047079163    -0.005978355347    15.994914619570
         H            2.426768471951    -0.404332920837     0.760151644653     1.007825032230
         H            2.422408471951    -0.442172920837    -0.751378355347     1.007825032230

  Charge       = 0
  Multiplicity = 1
  Basis Set: AUG-CC-PVDZ
    Blend: AUG-CC-PVDZ
  Basis Set: (AUG-CC-PVDZ AUX)
    Blend: AUG-CC-PVDZ-JKFIT

    Orbital Energies [Eh]
    ---------------------

    Doubly Occupied:

       1A    -20.577946     2A     -1.355800     3A     -0.716871
       4A     -0.586290     5A     -0.509382

  @DF-RHF Final Energy:   -76.04127787793135

   => Energetics <=

    Nuclear Repulsion Energy =              9.1725734288913223
    One-Electron Energy =                -122.9351220211177917
    Two-Electron Energy =                  37.7212707142951160
    Total Energy =                        -76.0412778779313498

  Dipole Moment: [D]
     X:     1.2732      Y:    -1.5555      Z:     0.0353     Total:     2.0104

    SAPT Results
  --------------------------------------------------------------------------------------------------------
    Electrostatics                 -2.46550067 [mEh]      -1.54712503 [kcal/mol]      -6.47317112 [kJ/mol]
      Elst10,r                     -2.69634963 [mEh]      -1.69198493 [kcal/mol]      -7.07926497 [kJ/mol]
      Elst12,r                      0.23084895 [mEh]       0.14485991 [kcal/mol]       0.60609385 [kJ/mol]

    Exchange                        0.14104772 [mEh]       0.08850878 [kcal/mol]       0.37032074 [kJ/mol]
      Exch10                        0.10116415 [mEh]       0.06348146 [kcal/mol]       0.26560643 [kJ/mol]
      Exch10(S^2)                   0.10115334 [mEh]       0.06347468 [kcal/mol]       0.26557807 [kJ/mol]
      Exch11(S^2)                   0.00006180 [mEh]       0.00003878 [kcal/mol]       0.00016225 [kJ/mol]
      Exch12(S^2)                   0.03982178 [mEh]       0.02498854 [kcal/mol]       0.10455206 [kJ/mol]

    Induction                      -0.14220262 [mEh]      -0.08923349 [kcal/mol]      -0.37335292 [kJ/mol]
      Ind20,r                      -0.13268990 [mEh]      -0.08326417 [kcal/mol]      -0.34837728 [kJ/mol]
      Ind22                        -0.00993637 [mEh]      -0.00623517 [kcal/mol]      -0.02608793 [kJ/mol]
      Exch-Ind20,r                  0.01355958 [mEh]       0.00850877 [kcal/mol]       0.03560068 [kJ/mol]
      Exch-Ind22                    0.00101540 [mEh]       0.00063717 [kcal/mol]       0.00266593 [kJ/mol]
      delta HF,r (2)               -0.01415133 [mEh]      -0.00888009 [kcal/mol]      -0.03715431 [kJ/mol]

    Dispersion                     -0.31684361 [mEh]      -0.19882237 [kcal/mol]      -0.83187278 [kJ/mol]
      Disp20                       -0.26996961 [mEh]      -0.16940849 [kcal/mol]      -0.70880512 [kJ/mol]
      Disp21                        0.00581550 [mEh]       0.00364928 [kcal/mol]       0.01526860 [kJ/mol]
      Disp22 (SDQ)                 -0.01498290 [mEh]      -0.00940191 [kcal/mol]      -0.03933759 [kJ/mol]
      Disp22 (T)                   -0.04259108 [mEh]      -0.02672631 [kcal/mol]      -0.11182287 [kJ/mol]
      Est. Disp22 (T)              -0.04602775 [mEh]      -0.02888285 [kcal/mol]      -0.12084583 [kJ/mol]
      Exch-Disp20                   0.00832115 [mEh]       0.00522160 [kcal/mol]       0.02184717 [kJ/mol]

  Total HF                         -2.72846712 [mEh]      -1.71213897 [kcal/mol]      -7.16358945 [kJ/mol]
  Total SAPT0                      -2.99011559 [mEh]      -1.87632586 [kcal/mol]      -7.85054741 [kJ/mol]
  Total SAPT2                      -2.72830403 [mEh]      -1.71203663 [kcal/mol]      -7.16316125 [kJ/mol]
  Total SAPT2+                     -2.78349917 [mEh]      -1.74667210 [kcal/mol]      -7.30807607 [kJ/mol]

  Special recipe for scaled SAPT0 (see Manual):
    Electrostatics sSAPT0          -2.69634963 [mEh]      -1.69198493 [kcal/mol]      -7.07926497 [kJ/mol]
    Exchange sSAPT0                 0.10116415 [mEh]       0.06348146 [kcal/mol]       0.26560643 [kJ/mol]
    Induction sSAPT0               -0.13327730 [mEh]      -0.08363277 [kcal/mol]      -0.34991950 [kJ/mol]
    Dispersion sSAPT0              -0.26164580 [mEh]      -0.16418522 [kcal/mol]      -0.68695096 [kJ/mol]
  Total sSAPT0                     -2.99010858 [mEh]      -1.87632146 [kcal/mol]      -7.85052900 [kJ/mol]
  --------------------------------------------------------------------------------------------------------

*** Psi4 exiting successfully. Buy a developer a beer!
