                               Psi4 1.4a2.dev224

  ==> Input File <==

--------------------------------------------------------------------------
#Generated by lconvert.py for sapt job

memory 20 GB

molecule  {
0 1
  O      -0.702200   -0.056060    0.009940
  H      -1.022190    0.846780   -0.011490
  H       0.257520    0.042120    0.005220
--
0 1
  O       4.079200    0.012130   -0.003730
  H       4.455830   -0.426250    0.762390
  H       4.451470   -0.464080   -0.749130
units angstrom
no_reorient
symmetry c1
}

set {
scf_type DF
basis aug-cc-pvdz
freeze_core True
guess SAD
}
energy('sapt2+')
--------------------------------------------------------------------------

  //              Dimer HF             //
    Molecular point group: c1
  Charge       = 0
  Multiplicity = 1
  Basis Set: AUG-CC-PVDZ
    Blend: AUG-CC-PVDZ
  Basis Set: (AUG-CC-PVDZ AUX)
    Blend: AUG-CC-PVDZ-JKFIT
  @DF-RHF Final Energy:  -152.08400649118889
    Total Energy =                       -152.0840064911888874
  //            Monomer A HF           //
    Molecular point group: c1
  Multiplicity = 1
  Basis Set: AUG-CC-PVDZ
    Blend: AUG-CC-PVDZ
  Basis Set: (AUG-CC-PVDZ AUX)
    Blend: AUG-CC-PVDZ-JKFIT
  @DF-RHF Final Energy:   -76.04107696775013
    Total Energy =                        -76.0410769677501435
  //            Monomer B HF           //
    Molecular point group: c1

    Geometry (in Angstrom), charge = 0, multiplicity = 1:

       Center              X                  Y                   Z               Mass
    ------------   -----------------  -----------------  -----------------  -----------------
      Gh(O)          -2.429552087624    -0.036513200625     0.006986924440    15.994914619570
      Gh(H)          -2.749542087624     0.866326799375    -0.014443075560     1.007825032230
      Gh(H)          -1.469832087624     0.061666799375     0.002266924440     1.007825032230
         O            2.351847912376     0.031676799375    -0.006683075560    15.994914619570
         H            2.728477912376    -0.406703200625     0.759436924440     1.007825032230
         H            2.724117912376    -0.444533200625    -0.752083075560     1.007825032230

  Charge       = 0
  Multiplicity = 1
  Basis Set: AUG-CC-PVDZ
    Blend: AUG-CC-PVDZ
  Basis Set: (AUG-CC-PVDZ AUX)
    Blend: AUG-CC-PVDZ-JKFIT

    Orbital Energies [Eh]
    ---------------------

    Doubly Occupied:

       1A    -20.577939     2A     -1.355797     3A     -0.716872
       4A     -0.586285     5A     -0.509395

  @DF-RHF Final Energy:   -76.04125110443840

   => Energetics <=

    Nuclear Repulsion Energy =              9.1725994362120282
    One-Electron Energy =                -122.9351252517988513
    Two-Electron Energy =                  37.7212747111484319
    Total Energy =                        -76.0412511044384019

  Dipole Moment: [D]
     X:     1.2720      Y:    -1.5567      Z:     0.0353     Total:     2.0106

    SAPT Results
  --------------------------------------------------------------------------------------------------------
    Electrostatics                 -1.48368917 [mEh]      -0.93102901 [kcal/mol]      -3.89542538 [kJ/mol]
      Elst10,r                     -1.64355325 [mEh]      -1.03134523 [kcal/mol]      -4.31514846 [kJ/mol]
      Elst12,r                      0.15986408 [mEh]       0.10031622 [kcal/mol]       0.41972308 [kJ/mol]

    Exchange                        0.01568785 [mEh]       0.00984428 [kcal/mol]       0.04118845 [kJ/mol]
      Exch10                        0.01044922 [mEh]       0.00655698 [kcal/mol]       0.02743442 [kJ/mol]
      Exch10(S^2)                   0.01044908 [mEh]       0.00655689 [kcal/mol]       0.02743404 [kJ/mol]
      Exch11(S^2)                  -0.00003610 [mEh]      -0.00002266 [kcal/mol]      -0.00009479 [kJ/mol]
      Exch12(S^2)                   0.00527474 [mEh]       0.00330995 [kcal/mol]       0.01384882 [kJ/mol]

    Induction                      -0.04654921 [mEh]      -0.02921007 [kcal/mol]      -0.12221494 [kJ/mol]
      Ind20,r                      -0.04424155 [mEh]      -0.02776199 [kcal/mol]      -0.11615617 [kJ/mol]
      Ind22                        -0.00127050 [mEh]      -0.00079725 [kcal/mol]      -0.00333569 [kJ/mol]
      Exch-Ind20,r                  0.00126246 [mEh]       0.00079221 [kcal/mol]       0.00331459 [kJ/mol]
      Exch-Ind22                    0.00003625 [mEh]       0.00002275 [kcal/mol]       0.00009519 [kJ/mol]
      delta HF,r (2)               -0.00233588 [mEh]      -0.00146579 [kcal/mol]      -0.00613286 [kJ/mol]

    Dispersion                     -0.12159854 [mEh]      -0.07630424 [kcal/mol]      -0.31925693 [kJ/mol]
      Disp20                       -0.10376947 [mEh]      -0.06511632 [kcal/mol]      -0.27244670 [kJ/mol]
      Disp21                        0.00378990 [mEh]       0.00237820 [kcal/mol]       0.00995038 [kJ/mol]
      Disp22 (SDQ)                 -0.00513205 [mEh]      -0.00322041 [kcal/mol]      -0.01347419 [kJ/mol]
      Disp22 (T)                   -0.01642100 [mEh]      -0.01030434 [kcal/mol]      -0.04311334 [kJ/mol]
      Est. Disp22 (T)              -0.01757135 [mEh]      -0.01102619 [kcal/mol]      -0.04613357 [kJ/mol]
      Exch-Disp20                   0.00108442 [mEh]       0.00068049 [kcal/mol]       0.00284715 [kJ/mol]

  Total HF                         -1.67841900 [mEh]      -1.05322382 [kcal/mol]      -4.40668848 [kJ/mol]
  Total SAPT0                      -1.78110405 [mEh]      -1.11765966 [kcal/mol]      -4.67628803 [kJ/mol]
  Total SAPT2                      -1.61723558 [mEh]      -1.01483065 [kcal/mol]      -4.24605142 [kJ/mol]
  Total SAPT2+                     -1.63614907 [mEh]      -1.02669904 [kcal/mol]      -4.29570880 [kJ/mol]

  Special recipe for scaled SAPT0 (see Manual):
    Electrostatics sSAPT0          -1.64355325 [mEh]      -1.03134523 [kcal/mol]      -4.31514846 [kJ/mol]
    Exchange sSAPT0                 0.01044922 [mEh]       0.00655698 [kcal/mol]       0.02743442 [kJ/mol]
    Induction sSAPT0               -0.04531492 [mEh]      -0.02843554 [kcal/mol]      -0.11897430 [kJ/mol]
    Dispersion sSAPT0              -0.10268500 [mEh]      -0.06443581 [kcal/mol]      -0.26959943 [kJ/mol]
  Total sSAPT0                     -1.78110395 [mEh]      -1.11765960 [kcal/mol]      -4.67628777 [kJ/mol]
  --------------------------------------------------------------------------------------------------------

*** Psi4 exiting successfully. Buy a developer a beer!
