                               Psi4 1.4a2.dev224

  ==> Input File <==

--------------------------------------------------------------------------
#Generated by lconvert.py for sapt job

memory 20 GB

molecule  {
0 1
  O      -0.525330   -0.050970   -0.314520
  H      -0.942010    0.747900    0.011250
  H       0.403700    0.059790   -0.073570
--
0 1
  O       3.534430    0.036410    0.164440
  H       3.902410   -0.535670    0.841970
  C       3.999440   -0.435220   -1.097720
  H       3.568620    0.215870   -1.850830
  H       5.085400   -0.384430   -1.172030
  H       3.671100   -1.455090   -1.296800
units angstrom
no_reorient
symmetry c1
}

set {
scf_type DF
basis aug-cc-pvdz
freeze_core True
guess SAD
}
energy('sapt2+')
--------------------------------------------------------------------------

  //              Dimer HF             //
    Molecular point group: c1
  Charge       = 0
  Multiplicity = 1
  Basis Set: AUG-CC-PVDZ
    Blend: AUG-CC-PVDZ
  Basis Set: (AUG-CC-PVDZ AUX)
    Blend: AUG-CC-PVDZ-JKFIT
  @DF-RHF Final Energy:  -191.10535685243889
    Total Energy =                       -191.1053568524388879
  //            Monomer A HF           //
    Molecular point group: c1
  Multiplicity = 1
  Basis Set: AUG-CC-PVDZ
    Blend: AUG-CC-PVDZ
  Basis Set: (AUG-CC-PVDZ AUX)
    Blend: AUG-CC-PVDZ-JKFIT
  @DF-RHF Final Energy:   -76.04105102439291
    Total Energy =                        -76.0410510243929139
  //            Monomer B HF           //
    Molecular point group: c1

    Geometry (in Angstrom), charge = 0, multiplicity = 1:

       Center              X                  Y                   Z               Mass
    ------------   -----------------  -----------------  -----------------  -----------------
      Gh(O)          -2.762395764492     0.085284422896     0.068015960458    15.994914619570
      Gh(H)          -3.179075764492     0.884154422896     0.393785960458     1.007825032230
      Gh(H)          -1.833365764492     0.196044422896     0.308965960458     1.007825032230
         O            1.297364235508     0.172664422896     0.546975960458    15.994914619570
         H            1.665344235508    -0.399415577104     1.224505960458     1.007825032230
         C            1.762374235508    -0.298965577104    -0.715184039542    12.000000000000
         H            1.331554235508     0.352124422896    -1.468294039542     1.007825032230
         H            2.848334235508    -0.248175577104    -0.789494039542     1.007825032230
         H            1.434034235508    -1.318835577104    -0.914264039542     1.007825032230

  Charge       = 0
  Multiplicity = 1
  Basis Set: AUG-CC-PVDZ
    Blend: AUG-CC-PVDZ
  Basis Set: (AUG-CC-PVDZ AUX)
    Blend: AUG-CC-PVDZ-JKFIT

    Orbital Energies [Eh]
    ---------------------

    Doubly Occupied:

       1A    -20.568426     2A    -11.278549     3A     -1.359715
       4A     -0.928283     5A     -0.691059     6A     -0.620494
       7A     -0.592501     8A     -0.505254     9A     -0.451405

  @DF-RHF Final Energy:  -115.06143888718361

   => Energetics <=

    Nuclear Repulsion Energy =             40.2946173213696142
    One-Electron Energy =                -236.7207417122743607
    Two-Electron Energy =                  81.3646855037211481
    Total Energy =                       -115.0614388871836127

  Dipole Moment: [D]
     X:     1.0959      Y:    -1.4284      Z:    -0.3275     Total:     1.8299

    SAPT Results
  --------------------------------------------------------------------------------------------------------
    Electrostatics                 -2.63304619 [mEh]      -1.65226143 [kcal/mol]      -6.91306182 [kJ/mol]
      Elst10,r                     -2.83256329 [mEh]      -1.77746030 [kcal/mol]      -7.43689389 [kJ/mol]
      Elst12,r                      0.19951710 [mEh]       0.12519887 [kcal/mol]       0.52383207 [kJ/mol]

    Exchange                        0.20012304 [mEh]       0.12557911 [kcal/mol]       0.52542298 [kJ/mol]
      Exch10                        0.14039243 [mEh]       0.08809758 [kcal/mol]       0.36860028 [kJ/mol]
      Exch10(S^2)                   0.14037299 [mEh]       0.08808538 [kcal/mol]       0.36854924 [kJ/mol]
      Exch11(S^2)                  -0.00066376 [mEh]      -0.00041651 [kcal/mol]      -0.00174269 [kJ/mol]
      Exch12(S^2)                   0.06039437 [mEh]       0.03789804 [kcal/mol]       0.15856539 [kJ/mol]

    Induction                      -0.18861357 [mEh]      -0.11835680 [kcal/mol]      -0.49520486 [kJ/mol]
      Ind20,r                      -0.17559162 [mEh]      -0.11018540 [kcal/mol]      -0.46101573 [kJ/mol]
      Ind22                        -0.01581316 [mEh]      -0.00992291 [kcal/mol]      -0.04151745 [kJ/mol]
      Exch-Ind20,r                  0.02187069 [mEh]       0.01372406 [kcal/mol]       0.05742148 [kJ/mol]
      Exch-Ind22                    0.00196960 [mEh]       0.00123594 [kcal/mol]       0.00517118 [kJ/mol]
      delta HF,r (2)               -0.02104907 [mEh]      -0.01320849 [kcal/mol]      -0.05526433 [kJ/mol]

    Dispersion                     -0.50580692 [mEh]      -0.31739863 [kcal/mol]      -1.32799589 [kJ/mol]
      Disp20                       -0.44527036 [mEh]      -0.27941137 [kcal/mol]      -1.16905716 [kJ/mol]
      Disp21                        0.02157384 [mEh]       0.01353779 [kcal/mol]       0.05664211 [kJ/mol]
      Disp22 (SDQ)                 -0.02013282 [mEh]      -0.01263354 [kcal/mol]      -0.05285872 [kJ/mol]
      Disp22 (T)                   -0.06943939 [mEh]      -0.04357388 [kcal/mol]      -0.18231310 [kJ/mol]
      Est. Disp22 (T)              -0.07445475 [mEh]      -0.04672106 [kcal/mol]      -0.19548093 [kJ/mol]
      Exch-Disp20                   0.01247717 [mEh]       0.00782954 [kcal/mol]       0.03275881 [kJ/mol]

  Total HF                         -2.86694086 [mEh]      -1.79903255 [kcal/mol]      -7.52715220 [kJ/mol]
  Total SAPT0                      -3.29973405 [mEh]      -2.07061438 [kcal/mol]      -8.66345055 [kJ/mol]
  Total SAPT2                      -3.05432990 [mEh]      -1.91662095 [kcal/mol]      -8.01914206 [kJ/mol]
  Total SAPT2+                     -3.12734364 [mEh]      -1.96243776 [kcal/mol]      -8.21083959 [kJ/mol]

  Special recipe for scaled SAPT0 (see Manual):
    Electrostatics sSAPT0          -2.83256329 [mEh]      -1.77746030 [kcal/mol]      -7.43689389 [kJ/mol]
    Exchange sSAPT0                 0.14039243 [mEh]       0.08809758 [kcal/mol]       0.36860028 [kJ/mol]
    Induction sSAPT0               -0.17476092 [mEh]      -0.10966413 [kcal/mol]      -0.45883473 [kJ/mol]
    Dispersion sSAPT0              -0.43278800 [mEh]      -0.27157857 [kcal/mol]      -1.13628474 [kJ/mol]
  Total sSAPT0                     -3.29971978 [mEh]      -2.07060542 [kcal/mol]      -8.66341308 [kJ/mol]
  --------------------------------------------------------------------------------------------------------

*** Psi4 exiting successfully. Buy a developer a beer!
