                               Psi4 1.4a2.dev224

  ==> Input File <==

--------------------------------------------------------------------------
#Generated by lconvert.py for sapt job

memory 20 GB

molecule  {
0 1
  O      -0.525330   -0.050970   -0.314520
  H      -0.942010    0.747900    0.011250
  H       0.403700    0.059790   -0.073570
--
0 1
  O       2.947440    0.040790    0.119810
  H       3.315420   -0.531290    0.797340
  C       3.412440   -0.430840   -1.142340
  H       2.981630    0.220250   -1.895460
  H       4.498410   -0.380050   -1.216660
  H       3.084100   -1.450710   -1.341430
units angstrom
no_reorient
symmetry c1
}

set {
scf_type DF
basis aug-cc-pvdz
freeze_core True
guess SAD
}
energy('sapt2+')
--------------------------------------------------------------------------

  //              Dimer HF             //
    Molecular point group: c1
  Charge       = 0
  Multiplicity = 1
  Basis Set: AUG-CC-PVDZ
    Blend: AUG-CC-PVDZ
  Basis Set: (AUG-CC-PVDZ AUX)
    Blend: AUG-CC-PVDZ-JKFIT
  @DF-RHF Final Energy:  -191.10745169985012
    Total Energy =                       -191.1074516998501167
  //            Monomer A HF           //
    Molecular point group: c1
  Multiplicity = 1
  Basis Set: AUG-CC-PVDZ
    Blend: AUG-CC-PVDZ
  Basis Set: (AUG-CC-PVDZ AUX)
    Blend: AUG-CC-PVDZ-JKFIT
  @DF-RHF Final Energy:   -76.04108826669710
    Total Energy =                        -76.0410882666971020
  //            Monomer B HF           //
    Molecular point group: c1

    Geometry (in Angstrom), charge = 0, multiplicity = 1:

       Center              X                  Y                   Z               Mass
    ------------   -----------------  -----------------  -----------------  -----------------
      Gh(O)          -2.386688173262     0.082480988659     0.096579148985    15.994914619570
      Gh(H)          -2.803368173262     0.881350988659     0.422349148985     1.007825032230
      Gh(H)          -1.457658173262     0.193240988659     0.337529148985     1.007825032230
         O            1.086081826738     0.174240988659     0.530909148985    15.994914619570
         H            1.454061826738    -0.397839011341     1.208439148985     1.007825032230
         C            1.551081826738    -0.297389011341    -0.731240851015    12.000000000000
         H            1.120271826738     0.353700988659    -1.484360851015     1.007825032230
         H            2.637051826738    -0.246599011341    -0.805560851015     1.007825032230
         H            1.222741826738    -1.317259011341    -0.930330851015     1.007825032230

  Charge       = 0
  Multiplicity = 1
  Basis Set: AUG-CC-PVDZ
    Blend: AUG-CC-PVDZ
  Basis Set: (AUG-CC-PVDZ AUX)
    Blend: AUG-CC-PVDZ-JKFIT

    Orbital Energies [Eh]
    ---------------------

    Doubly Occupied:

       1A    -20.568419     2A    -11.278475     3A     -1.359694
       4A     -0.928264     5A     -0.691036     6A     -0.620494
       7A     -0.592488     8A     -0.505234     9A     -0.451392

  @DF-RHF Final Energy:  -115.06150897858487

   => Energetics <=

    Nuclear Repulsion Energy =             40.2947355358239321
    One-Electron Energy =                -236.7214961100856954
    Two-Electron Energy =                  81.3652515956769093
    Total Energy =                       -115.0615089785848681

  Dipole Moment: [D]
     X:     1.0947      Y:    -1.4276      Z:    -0.3267     Total:     1.8284

    SAPT Results
  --------------------------------------------------------------------------------------------------------
    Electrostatics                 -5.18877764 [mEh]      -3.25600712 [kcal/mol]     -13.62313381 [kJ/mol]
      Elst10,r                     -5.41763059 [mEh]      -3.39961452 [kcal/mol]     -14.22398715 [kJ/mol]
      Elst12,r                      0.22885295 [mEh]       0.14360740 [kcal/mol]       0.60085334 [kJ/mol]

    Exchange                        1.64063212 [mEh]       1.02951220 [kcal/mol]       4.30747905 [kJ/mol]
      Exch10                        1.24526787 [mEh]       0.78141739 [kcal/mol]       3.26945035 [kJ/mol]
      Exch10(S^2)                   1.24402591 [mEh]       0.78063804 [kcal/mol]       3.26618956 [kJ/mol]
      Exch11(S^2)                   0.00040378 [mEh]       0.00025338 [kcal/mol]       0.00106012 [kJ/mol]
      Exch12(S^2)                   0.39496047 [mEh]       0.24784144 [kcal/mol]       1.03696857 [kJ/mol]

    Induction                      -0.76359747 [mEh]      -0.47916465 [kcal/mol]      -2.00482488 [kJ/mol]
      Ind20,r                      -0.73963347 [mEh]      -0.46412701 [kcal/mol]      -1.94190740 [kJ/mol]
      Ind22                        -0.11670669 [mEh]      -0.07323455 [kcal/mol]      -0.30641336 [kJ/mol]
      Exch-Ind20,r                  0.22308826 [mEh]       0.13998999 [kcal/mol]       0.58571814 [kJ/mol]
      Exch-Ind22                    0.03520107 [mEh]       0.02208901 [kcal/mol]       0.09242040 [kJ/mol]
      delta HF,r (2)               -0.16554664 [mEh]      -0.10388209 [kcal/mol]      -0.43464265 [kJ/mol]

    Dispersion                     -1.38119122 [mEh]      -0.86671058 [kcal/mol]      -3.62631705 [kJ/mol]
      Disp20                       -1.25399165 [mEh]      -0.78689164 [kcal/mol]      -3.29235463 [kJ/mol]
      Disp21                        0.04968808 [mEh]       0.03117974 [kcal/mol]       0.13045603 [kJ/mol]
      Disp22 (SDQ)                 -0.06254152 [mEh]      -0.03924539 [kcal/mol]      -0.16420273 [kJ/mol]
      Disp22 (T)                   -0.18909639 [mEh]      -0.11865978 [kcal/mol]      -0.49647251 [kJ/mol]
      Est. Disp22 (T)              -0.20846279 [mEh]      -0.13081238 [kcal/mol]      -0.54731898 [kJ/mol]
      Exch-Disp20                   0.09411666 [mEh]       0.05905910 [kcal/mol]       0.24710326 [kJ/mol]

  Total HF                         -4.85445457 [mEh]      -3.04621623 [kcal/mol]     -12.74536871 [kJ/mol]
  Total SAPT0                      -6.01432956 [mEh]      -3.77404878 [kcal/mol]     -15.79062009 [kJ/mol]
  Total SAPT2                      -5.47161797 [mEh]      -3.43349211 [kcal/mol]     -14.36573101 [kJ/mol]
  Total SAPT2+                     -5.69293420 [mEh]      -3.57237014 [kcal/mol]     -14.94679668 [kJ/mol]

  Special recipe for scaled SAPT0 (see Manual):
    Electrostatics sSAPT0          -5.41763059 [mEh]      -3.39961452 [kcal/mol]     -14.22398715 [kJ/mol]
    Exchange sSAPT0                 1.24526787 [mEh]       0.78141739 [kcal/mol]       3.26945035 [kJ/mol]
    Induction sSAPT0               -0.68142303 [mEh]      -0.42759941 [kcal/mol]      -1.78907592 [kJ/mol]
    Dispersion sSAPT0              -1.15959283 [mEh]      -0.72765549 [kcal/mol]      -3.04451055 [kJ/mol]
  Total sSAPT0                     -6.01337857 [mEh]      -3.77345202 [kcal/mol]     -15.78812327 [kJ/mol]
  --------------------------------------------------------------------------------------------------------

*** Psi4 exiting successfully. Buy a developer a beer!
