                               Psi4 1.4a2.dev224

  ==> Input File <==

--------------------------------------------------------------------------
#Generated by lconvert.py for sapt job

memory 20 GB

molecule  {
0 1
  O      -0.525330   -0.050970   -0.314520
  H      -0.942010    0.747900    0.011250
  H       0.403700    0.059790   -0.073570
--
0 1
  O       4.121430    0.032020    0.209060
  H       4.489410   -0.540050    0.886590
  C       4.586430   -0.439610   -1.053090
  H       4.155620    0.211490   -1.806210
  H       5.672400   -0.388810   -1.127410
  H       4.258090   -1.459480   -1.252180
units angstrom
no_reorient
symmetry c1
}

set {
scf_type DF
basis aug-cc-pvdz
freeze_core True
guess SAD
}
energy('sapt2+')
--------------------------------------------------------------------------

  //              Dimer HF             //
    Molecular point group: c1
  Charge       = 0
  Multiplicity = 1
  Basis Set: AUG-CC-PVDZ
    Blend: AUG-CC-PVDZ
  Basis Set: (AUG-CC-PVDZ AUX)
    Blend: AUG-CC-PVDZ-JKFIT
  @DF-RHF Final Energy:  -191.10418414872990
    Total Energy =                       -191.1041841487298996
  //            Monomer A HF           //
    Molecular point group: c1
  Multiplicity = 1
  Basis Set: AUG-CC-PVDZ
    Blend: AUG-CC-PVDZ
  Basis Set: (AUG-CC-PVDZ AUX)
    Blend: AUG-CC-PVDZ-JKFIT
  @DF-RHF Final Energy:   -76.04103302050491
    Total Energy =                        -76.0410330205049121
  //            Monomer B HF           //
    Molecular point group: c1

    Geometry (in Angstrom), charge = 0, multiplicity = 1:

       Center              X                  Y                   Z               Mass
    ------------   -----------------  -----------------  -----------------  -----------------
      Gh(O)          -3.138104556950     0.088093653418     0.039454375994    15.994914619570
      Gh(H)          -3.554784556950     0.886963653418     0.365224375994     1.007825032230
      Gh(H)          -2.209074556950     0.198853653418     0.280404375994     1.007825032230
         O            1.508655443050     0.171083653418     0.563034375994    15.994914619570
         H            1.876635443050    -0.400986346582     1.240564375994     1.007825032230
         C            1.973655443050    -0.300546346582    -0.699115624006    12.000000000000
         H            1.542845443050     0.350553653418    -1.452235624006     1.007825032230
         H            3.059625443050    -0.249746346582    -0.773435624006     1.007825032230
         H            1.645315443050    -1.320416346582    -0.898205624006     1.007825032230

  Charge       = 0
  Multiplicity = 1
  Basis Set: AUG-CC-PVDZ
    Blend: AUG-CC-PVDZ
  Basis Set: (AUG-CC-PVDZ AUX)
    Blend: AUG-CC-PVDZ-JKFIT

    Orbital Energies [Eh]
    ---------------------

    Doubly Occupied:

       1A    -20.568405     2A    -11.278573     3A     -1.359727
       4A     -0.928286     5A     -0.691066     6A     -0.620503
       7A     -0.592509     8A     -0.505254     9A     -0.451409

  @DF-RHF Final Energy:  -115.06141114488621

   => Energetics <=

    Nuclear Repulsion Energy =             40.2947439295269518
    One-Electron Energy =                -236.7208431704243594
    Two-Electron Energy =                  81.3646880960111929
    Total Energy =                       -115.0614111448862076

  Dipole Moment: [D]
     X:     1.0950      Y:    -1.4288      Z:    -0.3284     Total:     1.8298

    SAPT Results
  --------------------------------------------------------------------------------------------------------
    Electrostatics                 -1.55285880 [mEh]      -0.97443361 [kcal/mol]      -4.07703023 [kJ/mol]
      Elst10,r                     -1.69544718 [mEh]      -1.06390917 [kcal/mol]      -4.45139596 [kJ/mol]
      Elst12,r                      0.14258838 [mEh]       0.08947556 [kcal/mol]       0.37436573 [kJ/mol]

    Exchange                        0.02377440 [mEh]       0.01491866 [kcal/mol]       0.06241968 [kJ/mol]
      Exch10                        0.01539047 [mEh]       0.00965767 [kcal/mol]       0.04040767 [kJ/mol]
      Exch10(S^2)                   0.01539019 [mEh]       0.00965749 [kcal/mol]       0.04040693 [kJ/mol]
      Exch11(S^2)                  -0.00017052 [mEh]      -0.00010700 [kcal/mol]      -0.00044769 [kJ/mol]
      Exch12(S^2)                   0.00855445 [mEh]       0.00536800 [kcal/mol]       0.02245970 [kJ/mol]

    Induction                      -0.06173326 [mEh]      -0.03873820 [kcal/mol]      -0.16208064 [kJ/mol]
      Ind20,r                      -0.05845677 [mEh]      -0.03668218 [kcal/mol]      -0.15347824 [kJ/mol]
      Ind22                        -0.00187835 [mEh]      -0.00117868 [kcal/mol]      -0.00493162 [kJ/mol]
      Exch-Ind20,r                  0.00223219 [mEh]       0.00140072 [kcal/mol]       0.00586062 [kJ/mol]
      Exch-Ind22                    0.00007173 [mEh]       0.00004501 [kcal/mol]       0.00018832 [kJ/mol]
      delta HF,r (2)               -0.00370204 [mEh]      -0.00232307 [kcal/mol]      -0.00971972 [kJ/mol]

    Dispersion                     -0.21007063 [mEh]      -0.13182131 [kcal/mol]      -0.55154037 [kJ/mol]
      Disp20                       -0.18517604 [mEh]      -0.11619972 [kcal/mol]      -0.48617964 [kJ/mol]
      Disp21                        0.01149424 [mEh]       0.00721274 [kcal/mol]       0.03017812 [kJ/mol]
      Disp22 (SDQ)                 -0.00692775 [mEh]      -0.00434723 [kcal/mol]      -0.01818882 [kJ/mol]
      Disp22 (T)                   -0.03005101 [mEh]      -0.01885729 [kcal/mol]      -0.07889891 [kJ/mol]
      Est. Disp22 (T)              -0.03114786 [mEh]      -0.01954558 [kcal/mol]      -0.08177871 [kJ/mol]
      Exch-Disp20                   0.00168679 [mEh]       0.00105848 [kcal/mol]       0.00442867 [kJ/mol]

  Total HF                         -1.73998334 [mEh]      -1.09185603 [kcal/mol]      -4.56832563 [kJ/mol]
  Total SAPT0                      -1.92347259 [mEh]      -1.20699727 [kcal/mol]      -5.05007659 [kJ/mol]
  Total SAPT2                      -1.77430691 [mEh]      -1.11339440 [kcal/mol]      -4.65844216 [kJ/mol]
  Total SAPT2+                     -1.80088829 [mEh]      -1.13007446 [kcal/mol]      -4.72823155 [kJ/mol]

  Special recipe for scaled SAPT0 (see Manual):
    Electrostatics sSAPT0          -1.69544718 [mEh]      -1.06390917 [kcal/mol]      -4.45139596 [kJ/mol]
    Exchange sSAPT0                 0.01539047 [mEh]       0.00965767 [kcal/mol]       0.04040767 [kJ/mol]
    Induction sSAPT0               -0.05992650 [mEh]      -0.03760445 [kcal/mol]      -0.15733701 [kJ/mol]
    Dispersion sSAPT0              -0.18348916 [mEh]      -0.11514119 [kcal/mol]      -0.48175072 [kJ/mol]
  Total sSAPT0                     -1.92347237 [mEh]      -1.20699714 [kcal/mol]      -5.05007602 [kJ/mol]
  --------------------------------------------------------------------------------------------------------

*** Psi4 exiting successfully. Buy a developer a beer!
