                               Psi4 1.4a2.dev224

  ==> Input File <==

--------------------------------------------------------------------------
#Generated by lconvert.py for sapt job

memory 20 GB

molecule  {
0 1
  O      -0.687460   -0.111740   -0.019630
  H      -1.046120    0.775940    0.012710
  H       0.274040    0.025850   -0.003500
--
0 1
  N       2.887630    0.128970    0.008970
  H       3.183000   -0.423670   -0.785820
  H       3.197710   -0.381750    0.825830
  C       3.546970    1.437340   -0.031270
  H       3.236430    2.019060    0.833250
  H       4.638280    1.398040   -0.040220
  H       3.220260    1.973250   -0.919090
units angstrom
no_reorient
symmetry c1
}

set {
scf_type DF
basis aug-cc-pvdz
freeze_core True
guess SAD
}
energy('sapt2+')
--------------------------------------------------------------------------

  //              Dimer HF             //
    Molecular point group: c1
  Charge       = 0
  Multiplicity = 1
  Basis Set: AUG-CC-PVDZ
    Blend: AUG-CC-PVDZ
  Basis Set: (AUG-CC-PVDZ AUX)
    Blend: AUG-CC-PVDZ-JKFIT
  @DF-RHF Final Energy:  -171.27768839443436
    Total Energy =                       -171.2776883944343638
  //            Monomer A HF           //
    Molecular point group: c1
  Multiplicity = 1
  Basis Set: AUG-CC-PVDZ
    Blend: AUG-CC-PVDZ
  Basis Set: (AUG-CC-PVDZ AUX)
    Blend: AUG-CC-PVDZ-JKFIT
  @DF-RHF Final Energy:   -76.04083754402170
    Total Energy =                        -76.0408375440216986
  //            Monomer B HF           //
    Molecular point group: c1

    Geometry (in Angstrom), charge = 0, multiplicity = 1:

       Center              X                  Y                   Z               Mass
    ------------   -----------------  -----------------  -----------------  -----------------
      Gh(O)          -2.498525714131    -0.574418433818    -0.006561340350    15.994914619570
      Gh(H)          -2.857185714131     0.313261566182     0.025778659650     1.007825032230
      Gh(H)          -1.537025714131    -0.436828433818     0.009568659650     1.007825032230
         N            1.076564285869    -0.333708433818     0.022038659650    14.003074004430
         H            1.371934285869    -0.886348433818    -0.772751340350     1.007825032230
         H            1.386644285869    -0.844428433818     0.838898659650     1.007825032230
         C            1.735904285869     0.974661566182    -0.018201340350    12.000000000000
         H            1.425364285869     1.556381566182     0.846318659650     1.007825032230
         H            2.827214285869     0.935361566182    -0.027151340350     1.007825032230
         H            1.409194285869     1.510571566182    -0.906021340350     1.007825032230

  Charge       = 0
  Multiplicity = 1
  Basis Set: AUG-CC-PVDZ
    Blend: AUG-CC-PVDZ
  Basis Set: (AUG-CC-PVDZ AUX)
    Blend: AUG-CC-PVDZ-JKFIT

    Orbital Energies [Eh]
    ---------------------

    Doubly Occupied:

       1A    -15.548576     2A    -11.247612     3A     -1.172337
       4A     -0.897642     5A     -0.661535     6A     -0.603802
       7A     -0.555317     8A     -0.516836     9A     -0.392435

  @DF-RHF Final Energy:   -95.23085418671064

   => Energetics <=

    Nuclear Repulsion Energy =             42.0625942659169709
    One-Electron Energy =                -211.3947132647367937
    Two-Electron Energy =                  74.1012648121091786
    Total Energy =                        -95.2308541867106442

  Dipole Moment: [D]
     X:     1.4359      Y:    -0.2056      Z:    -0.0079     Total:     1.4506

    SAPT Results
  --------------------------------------------------------------------------------------------------------
    Electrostatics                 -7.03153531 [mEh]      -4.41235502 [kcal/mol]     -18.46129341 [kJ/mol]
      Elst10,r                     -7.07030251 [mEh]      -4.43668180 [kcal/mol]     -18.56307667 [kJ/mol]
      Elst12,r                      0.03876720 [mEh]       0.02432678 [kcal/mol]       0.10178326 [kJ/mol]

    Exchange                        2.75959817 [mEh]       1.73167400 [kcal/mol]       7.24532401 [kJ/mol]
      Exch10                        2.22870359 [mEh]       1.39853262 [kcal/mol]       5.85146046 [kJ/mol]
      Exch10(S^2)                   2.22431200 [mEh]       1.39577685 [kcal/mol]       5.83993034 [kJ/mol]
      Exch11(S^2)                   0.02968055 [mEh]       0.01862483 [kcal/mol]       0.07792627 [kJ/mol]
      Exch12(S^2)                   0.50121404 [mEh]       0.31451656 [kcal/mol]       1.31593727 [kJ/mol]

    Induction                      -1.27561212 [mEh]      -0.80045869 [kcal/mol]      -3.34911915 [kJ/mol]
      Ind20,r                      -1.40729655 [mEh]      -0.88309192 [kcal/mol]      -3.69485658 [kJ/mol]
      Ind22                        -0.20634517 [mEh]      -0.12948355 [kcal/mol]      -0.54175916 [kJ/mol]
      Exch-Ind20,r                  0.58515058 [mEh]       0.36718753 [kcal/mol]       1.53631263 [kJ/mol]
      Exch-Ind22                    0.08579783 [mEh]       0.05383895 [kcal/mol]       0.22526218 [kJ/mol]
      delta HF,r (2)               -0.33291881 [mEh]      -0.20890971 [kcal/mol]      -0.87407822 [kJ/mol]

    Dispersion                     -1.63031042 [mEh]      -1.02303523 [kcal/mol]      -4.28037941 [kJ/mol]
      Disp20                       -1.50908598 [mEh]      -0.94696575 [kcal/mol]      -3.96210469 [kJ/mol]
      Disp21                        0.02167320 [mEh]       0.01360014 [kcal/mol]       0.05690299 [kJ/mol]
      Disp22 (SDQ)                 -0.06261177 [mEh]      -0.03928948 [kcal/mol]      -0.16438719 [kJ/mol]
      Disp22 (T)                   -0.22834427 [mEh]      -0.14328819 [kcal/mol]      -0.59951779 [kJ/mol]
      Est. Disp22 (T)              -0.25569930 [mEh]      -0.16045373 [kcal/mol]      -0.67133842 [kJ/mol]
      Exch-Disp20                   0.17541343 [mEh]       0.11007359 [kcal/mol]       0.46054790 [kJ/mol]

  Total HF                         -5.99666370 [mEh]      -3.76296328 [kcal/mol]     -15.74423838 [kJ/mol]
  Total SAPT0                      -7.33033625 [mEh]      -4.59985544 [kcal/mol]     -19.24579517 [kJ/mol]
  Total SAPT2                      -6.88122180 [mEh]      -4.31803187 [kcal/mol]     -18.06664535 [kJ/mol]
  Total SAPT2+                     -7.17785967 [mEh]      -4.50417495 [kcal/mol]     -18.84546797 [kJ/mol]

  Special recipe for scaled SAPT0 (see Manual):
    Electrostatics sSAPT0          -7.07030251 [mEh]      -4.43668180 [kcal/mol]     -18.56307667 [kJ/mol]
    Exchange sSAPT0                 2.22870359 [mEh]       1.39853262 [kcal/mol]       5.85146046 [kJ/mol]
    Induction sSAPT0               -1.15159204 [mEh]      -0.72263492 [kcal/mol]      -3.02350450 [kJ/mol]
    Dispersion sSAPT0              -1.33263151 [mEh]      -0.83623890 [kcal/mol]      -3.49882354 [kJ/mol]
  Total sSAPT0                     -7.32582247 [mEh]      -4.59702300 [kcal/mol]     -19.23394424 [kJ/mol]
  --------------------------------------------------------------------------------------------------------

*** Psi4 exiting successfully. Buy a developer a beer!
