                               Psi4 1.4a2.dev224

  ==> Input File <==

--------------------------------------------------------------------------
#Generated by lconvert.py for sapt job

memory 20 GB

molecule  {
0 1
  O      -0.687460   -0.111740   -0.019630
  H      -1.046120    0.775940    0.012710
  H       0.274040    0.025850   -0.003500
--
0 1
  N       3.490750    0.152770    0.011850
  H       3.786110   -0.399870   -0.782940
  H       3.800830   -0.357950    0.828710
  C       4.150080    1.461130   -0.028390
  H       3.839540    2.042860    0.836120
  H       5.241390    1.421840   -0.037350
  H       3.823370    1.997050   -0.916220
units angstrom
no_reorient
symmetry c1
}

set {
scf_type DF
basis aug-cc-pvdz
freeze_core True
guess SAD
}
energy('sapt2+')
--------------------------------------------------------------------------

  //              Dimer HF             //
    Molecular point group: c1
  Charge       = 0
  Multiplicity = 1
  Basis Set: AUG-CC-PVDZ
    Blend: AUG-CC-PVDZ
  Basis Set: (AUG-CC-PVDZ AUX)
    Blend: AUG-CC-PVDZ-JKFIT
  @DF-RHF Final Energy:  -171.27503016072649
    Total Energy =                       -171.2750301607264873
  //            Monomer A HF           //
    Molecular point group: c1
  Multiplicity = 1
  Basis Set: AUG-CC-PVDZ
    Blend: AUG-CC-PVDZ
  Basis Set: (AUG-CC-PVDZ AUX)
    Blend: AUG-CC-PVDZ-JKFIT
  @DF-RHF Final Energy:   -76.04080201540836
    Total Energy =                        -76.0408020154083601
  //            Monomer B HF           //
    Molecular point group: c1

    Geometry (in Angstrom), charge = 0, multiplicity = 1:

       Center              X                  Y                   Z               Mass
    ------------   -----------------  -----------------  -----------------  -----------------
      Gh(O)          -2.880196579918    -0.589477408729    -0.008383282517    15.994914619570
      Gh(H)          -3.238856579918     0.298202591271     0.023956717483     1.007825032230
      Gh(H)          -1.918696579918    -0.451887408729     0.007746717483     1.007825032230
         N            1.298013420082    -0.324967408729     0.023096717483    14.003074004430
         H            1.593373420082    -0.877607408729    -0.771693282517     1.007825032230
         H            1.608093420082    -0.835687408729     0.839956717483     1.007825032230
         C            1.957343420082     0.983392591271    -0.017143282517    12.000000000000
         H            1.646803420082     1.565122591271     0.847366717483     1.007825032230
         H            3.048653420082     0.944102591271    -0.026103282517     1.007825032230
         H            1.630633420082     1.519312591271    -0.904973282517     1.007825032230

  Charge       = 0
  Multiplicity = 1
  Basis Set: AUG-CC-PVDZ
    Blend: AUG-CC-PVDZ
  Basis Set: (AUG-CC-PVDZ AUX)
    Blend: AUG-CC-PVDZ-JKFIT

    Orbital Energies [Eh]
    ---------------------

    Doubly Occupied:

       1A    -15.548609     2A    -11.247628     3A     -1.172348
       4A     -0.897639     5A     -0.661574     6A     -0.603812
       7A     -0.555335     8A     -0.516854     9A     -0.392463

  @DF-RHF Final Energy:   -95.23072895062599

   => Energetics <=

    Nuclear Repulsion Energy =             42.0627402973113504
    One-Electron Energy =                -211.3944126999701325
    Two-Electron Energy =                  74.1009434520328085
    Total Energy =                        -95.2307289506259877

  Dipole Moment: [D]
     X:     1.4382      Y:    -0.2048      Z:    -0.0079     Total:     1.4527

    SAPT Results
  --------------------------------------------------------------------------------------------------------
    Electrostatics                 -3.41289920 [mEh]      -2.14162658 [kcal/mol]      -8.96056561 [kJ/mol]
      Elst10,r                     -3.50598803 [mEh]      -2.20004070 [kcal/mol]      -9.20497031 [kJ/mol]
      Elst12,r                      0.09308883 [mEh]       0.05841413 [kcal/mol]       0.24440470 [kJ/mol]

    Exchange                        0.40681916 [mEh]       0.25528288 [kcal/mol]       1.06810355 [kJ/mol]
      Exch10                        0.30760457 [mEh]       0.19302478 [kcal/mol]       0.80761568 [kJ/mol]
      Exch10(S^2)                   0.30750263 [mEh]       0.19296081 [kcal/mol]       0.80734804 [kJ/mol]
      Exch11(S^2)                   0.00375225 [mEh]       0.00235457 [kcal/mol]       0.00985152 [kJ/mol]
      Exch12(S^2)                   0.09546234 [mEh]       0.05990352 [kcal/mol]       0.25063635 [kJ/mol]

    Induction                      -0.33111613 [mEh]      -0.20777851 [kcal/mol]      -0.86934528 [kJ/mol]
      Ind20,r                      -0.32767596 [mEh]      -0.20561977 [kcal/mol]      -0.86031313 [kJ/mol]
      Ind22                        -0.03967432 [mEh]      -0.02489601 [kcal/mol]      -0.10416490 [kJ/mol]
      Exch-Ind20,r                  0.07738337 [mEh]       0.04855880 [kcal/mol]       0.20317001 [kJ/mol]
      Exch-Ind22                    0.00936942 [mEh]       0.00587940 [kcal/mol]       0.02459940 [kJ/mol]
      delta HF,r (2)               -0.05051864 [mEh]      -0.03170092 [kcal/mol]      -0.13263666 [kJ/mol]

    Dispersion                     -0.59428314 [mEh]      -0.37291830 [kcal/mol]      -1.56029017 [kJ/mol]
      Disp20                       -0.51817927 [mEh]      -0.32516240 [kcal/mol]      -1.36047948 [kJ/mol]
      Disp21                        0.00883094 [mEh]       0.00554150 [kcal/mol]       0.02318563 [kJ/mol]
      Disp22 (SDQ)                 -0.02301221 [mEh]      -0.01444038 [kcal/mol]      -0.06041856 [kJ/mol]
      Disp22 (T)                   -0.08026572 [mEh]      -0.05036750 [kcal/mol]      -0.21073761 [kJ/mol]
      Est. Disp22 (T)              -0.08963757 [mEh]      -0.05624843 [kcal/mol]      -0.23534342 [kJ/mol]
      Exch-Disp20                   0.02771497 [mEh]       0.01739141 [kcal/mol]       0.07276565 [kJ/mol]

  Total HF                         -3.49919469 [mEh]      -2.19577782 [kcal/mol]      -9.18713440 [kJ/mol]
  Total SAPT0                      -3.98965899 [mEh]      -2.50354881 [kcal/mol]     -10.47484823 [kJ/mol]
  Total SAPT2                      -3.82766046 [mEh]      -2.40189320 [kcal/mol]     -10.04952116 [kJ/mol]
  Total SAPT2+                     -3.93147931 [mEh]      -2.46704051 [kcal/mol]     -10.32209751 [kJ/mol]

  Special recipe for scaled SAPT0 (see Manual):
    Electrostatics sSAPT0          -3.50598803 [mEh]      -2.20004070 [kcal/mol]      -9.20497031 [kJ/mol]
    Exchange sSAPT0                 0.30760457 [mEh]       0.19302478 [kcal/mol]       0.80761568 [kJ/mol]
    Induction sSAPT0               -0.30073424 [mEh]      -0.18871359 [kcal/mol]      -0.78957764 [kJ/mol]
    Dispersion sSAPT0              -0.49043672 [mEh]      -0.30775369 [kcal/mol]      -1.28764144 [kJ/mol]
  Total sSAPT0                     -3.98955443 [mEh]      -2.50348320 [kcal/mol]     -10.47457371 [kJ/mol]
  --------------------------------------------------------------------------------------------------------

*** Psi4 exiting successfully. Buy a developer a beer!
