                               Psi4 1.4a2.dev224

  ==> Input File <==

--------------------------------------------------------------------------
#Generated by lconvert.py for sapt job

memory 20 GB

molecule  {
0 1
  O      -0.687460   -0.111740   -0.019630
  H      -1.046120    0.775940    0.012710
  H       0.274040    0.025850   -0.003500
--
0 1
  N       4.093860    0.176560    0.014730
  H       4.389220   -0.376070   -0.780070
  H       4.403940   -0.334160    0.831590
  C       4.753200    1.484930   -0.025520
  H       4.442650    2.066650    0.839000
  H       5.844500    1.445630   -0.034470
  H       4.426480    2.020850   -0.913340
units angstrom
no_reorient
symmetry c1
}

set {
scf_type DF
basis aug-cc-pvdz
freeze_core True
guess SAD
}
energy('sapt2+')
--------------------------------------------------------------------------

  //              Dimer HF             //
    Molecular point group: c1
  Charge       = 0
  Multiplicity = 1
  Basis Set: AUG-CC-PVDZ
    Blend: AUG-CC-PVDZ
  Basis Set: (AUG-CC-PVDZ AUX)
    Blend: AUG-CC-PVDZ-JKFIT
  @DF-RHF Final Energy:  -171.27352483922886
    Total Energy =                       -171.2735248392288554
  //            Monomer A HF           //
    Molecular point group: c1
  Multiplicity = 1
  Basis Set: AUG-CC-PVDZ
    Blend: AUG-CC-PVDZ
  Basis Set: (AUG-CC-PVDZ AUX)
    Blend: AUG-CC-PVDZ-JKFIT
  @DF-RHF Final Energy:   -76.04078631379276
    Total Energy =                        -76.0407863137927649
  //            Monomer B HF           //
    Molecular point group: c1

    Geometry (in Angstrom), charge = 0, multiplicity = 1:

       Center              X                  Y                   Z               Mass
    ------------   -----------------  -----------------  -----------------  -----------------
      Gh(O)          -3.261866831898    -0.604535358918    -0.010203189253    15.994914619570
      Gh(H)          -3.620526831898     0.283144641082     0.022136810747     1.007825032230
      Gh(H)          -2.300366831898    -0.466945358918     0.005926810747     1.007825032230
         N            1.519453168102    -0.316235358918     0.024156810747    14.003074004430
         H            1.814813168102    -0.868865358918    -0.770643189253     1.007825032230
         H            1.829533168102    -0.826955358918     0.841016810747     1.007825032230
         C            2.178793168102     0.992134641082    -0.016093189253    12.000000000000
         H            1.868243168102     1.573854641082     0.848426810747     1.007825032230
         H            3.270093168102     0.952834641082    -0.025043189253     1.007825032230
         H            1.852073168102     1.528054641082    -0.903913189253     1.007825032230

  Charge       = 0
  Multiplicity = 1
  Basis Set: AUG-CC-PVDZ
    Blend: AUG-CC-PVDZ
  Basis Set: (AUG-CC-PVDZ AUX)
    Blend: AUG-CC-PVDZ-JKFIT

    Orbital Energies [Eh]
    ---------------------

    Doubly Occupied:

       1A    -15.548618     2A    -11.247644     3A     -1.172344
       4A     -0.897637     5A     -0.661581     6A     -0.603804
       7A     -0.555336     8A     -0.516861     9A     -0.392476

  @DF-RHF Final Energy:   -95.23067777330147

   => Energetics <=

    Nuclear Repulsion Energy =             42.0625924713318895
    One-Electron Energy =                -211.3939376601097138
    Two-Electron Energy =                  74.1006674154763516
    Total Energy =                        -95.2306777733014655

  Dipole Moment: [D]
     X:     1.4383      Y:    -0.2048      Z:    -0.0080     Total:     1.4528

    SAPT Results
  --------------------------------------------------------------------------------------------------------
    Electrostatics                 -1.92678703 [mEh]      -1.20907711 [kcal/mol]      -5.05877865 [kJ/mol]
      Elst10,r                     -2.00448271 [mEh]      -1.25783189 [kcal/mol]      -5.26276862 [kJ/mol]
      Elst12,r                      0.07769568 [mEh]       0.04875477 [kcal/mol]       0.20398997 [kJ/mol]

    Exchange                        0.05914680 [mEh]       0.03711518 [kcal/mol]       0.15528991 [kJ/mol]
      Exch10                        0.04191755 [mEh]       0.02630366 [kcal/mol]       0.11005451 [kJ/mol]
      Exch10(S^2)                   0.04191528 [mEh]       0.02630224 [kcal/mol]       0.11004856 [kJ/mol]
      Exch11(S^2)                   0.00042769 [mEh]       0.00026838 [kcal/mol]       0.00112290 [kJ/mol]
      Exch12(S^2)                   0.01680156 [mEh]       0.01054314 [kcal/mol]       0.04411250 [kJ/mol]

    Induction                      -0.10538960 [mEh]      -0.06613297 [kcal/mol]      -0.27670036 [kJ/mol]
      Ind20,r                      -0.09920594 [mEh]      -0.06225266 [kcal/mol]      -0.26046515 [kJ/mol]
      Ind22                        -0.00802780 [mEh]      -0.00503752 [kcal/mol]      -0.02107698 [kJ/mol]
      Exch-Ind20,r                  0.01019732 [mEh]       0.00639891 [kcal/mol]       0.02677306 [kJ/mol]
      Exch-Ind22                    0.00082517 [mEh]       0.00051780 [kcal/mol]       0.00216649 [kJ/mol]
      delta HF,r (2)               -0.00917836 [mEh]      -0.00575951 [kcal/mol]      -0.02409779 [kJ/mol]

    Dispersion                     -0.23821540 [mEh]      -0.14948242 [kcal/mol]      -0.62543445 [kJ/mol]
      Disp20                       -0.20537158 [mEh]      -0.12887261 [kcal/mol]      -0.53920300 [kJ/mol]
      Disp21                        0.00669614 [mEh]       0.00420189 [kcal/mol]       0.01758071 [kJ/mol]
      Disp22 (SDQ)                 -0.00834709 [mEh]      -0.00523788 [kcal/mol]      -0.02191529 [kJ/mol]
      Disp22 (T)                   -0.03254562 [mEh]      -0.02042269 [kcal/mol]      -0.08544852 [kJ/mol]
      Est. Disp22 (T)              -0.03560332 [mEh]      -0.02234142 [kcal/mol]      -0.09347650 [kJ/mol]
      Exch-Disp20                   0.00441045 [mEh]       0.00276760 [kcal/mol]       0.01157963 [kJ/mol]

  Total HF                         -2.06075213 [mEh]      -1.29314149 [kcal/mol]      -5.41050398 [kJ/mol]
  Total SAPT0                      -2.26171326 [mEh]      -1.41924650 [kcal/mol]      -5.93812736 [kJ/mol]
  Total SAPT2                      -2.17399096 [mEh]      -1.36419992 [kcal/mol]      -5.70781247 [kJ/mol]
  Total SAPT2+                     -2.21124523 [mEh]      -1.38757733 [kcal/mol]      -5.80562355 [kJ/mol]

  Special recipe for scaled SAPT0 (see Manual):
    Electrostatics sSAPT0          -2.00448271 [mEh]      -1.25783189 [kcal/mol]      -5.26276862 [kJ/mol]
    Exchange sSAPT0                 0.04191755 [mEh]       0.02630366 [kcal/mol]       0.11005451 [kJ/mol]
    Induction sSAPT0               -0.09818532 [mEh]      -0.06161222 [kcal/mol]      -0.25778553 [kJ/mol]
    Dispersion sSAPT0              -0.20096041 [mEh]      -0.12610456 [kcal/mol]      -0.52762149 [kJ/mol]
  Total sSAPT0                     -2.26171089 [mEh]      -1.41924501 [kcal/mol]      -5.93812113 [kJ/mol]
  --------------------------------------------------------------------------------------------------------

*** Psi4 exiting successfully. Buy a developer a beer!
