                               Psi4 1.4a2.dev224

  ==> Input File <==

--------------------------------------------------------------------------
#Generated by lconvert.py for sapt job

memory 20 GB

molecule  {
0 1
  O      -0.392020   -0.384720    0.076070
  H      -0.911460    0.413810    0.177650
  H       0.524900   -0.068490    0.090510
--
0 1
  C       3.945350   -2.059960   -0.260190
  H       4.595310   -2.921070   -0.393110
  H       3.264370   -1.982490   -1.104060
  H       3.332330   -2.198760    0.626820
  C       4.700080   -0.761950   -0.127600
  O       4.123370    0.313340    0.028990
  N       6.050720   -0.859450   -0.192220
  H       6.451670   -1.769990   -0.321730
  C       6.918960    0.292520   -0.082770
  H       6.282460    1.160820    0.052010
  H       7.584550    0.201060    0.773320
  H       7.513420    0.421940   -0.985030
units angstrom
no_reorient
symmetry c1
}

set {
scf_type DF
basis aug-cc-pvdz
freeze_core True
guess SAD
}
energy('sapt2+')
--------------------------------------------------------------------------

  //              Dimer HF             //
    Molecular point group: c1
  Charge       = 0
  Multiplicity = 1
  Basis Set: AUG-CC-PVDZ
    Blend: AUG-CC-PVDZ
  Basis Set: (AUG-CC-PVDZ AUX)
    Blend: AUG-CC-PVDZ-JKFIT
  @DF-RHF Final Energy:  -323.08529033120692
    Total Energy =                       -323.0852903312069202
  //            Monomer A HF           //
    Molecular point group: c1
  Multiplicity = 1
  Basis Set: AUG-CC-PVDZ
    Blend: AUG-CC-PVDZ
  Basis Set: (AUG-CC-PVDZ AUX)
    Blend: AUG-CC-PVDZ-JKFIT
  @DF-RHF Final Energy:   -76.04089627063294
    Total Energy =                        -76.0408962706329419
  //            Monomer B HF           //
    Molecular point group: c1

    Geometry (in Angstrom), charge = 0, multiplicity = 1:

       Center              X                  Y                   Z               Mass
    ------------   -----------------  -----------------  -----------------  -----------------
      Gh(O)          -4.456486790747     0.167920401923     0.161176317125    15.994914619570
      Gh(H)          -4.975926790747     0.966450401923     0.262756317125     1.007825032230
      Gh(H)          -3.539566790747     0.484150401923     0.175616317125     1.007825032230
         C           -0.119116790747    -1.507319598077    -0.175083682875    12.000000000000
         H            0.530843209253    -2.368429598077    -0.308003682875     1.007825032230
         H           -0.800096790747    -1.429849598077    -1.018953682875     1.007825032230
         H           -0.732136790747    -1.646119598077     0.711926317125     1.007825032230
         C            0.635613209253    -0.209309598077    -0.042493682875    12.000000000000
         O            0.058903209253     0.865980401923     0.114096317125    15.994914619570
         N            1.986253209253    -0.306809598077    -0.107113682875    14.003074004430
         H            2.387203209253    -1.217349598077    -0.236623682875     1.007825032230
         C            2.854493209253     0.845160401923     0.002336317125    12.000000000000
         H            2.217993209253     1.713460401923     0.137116317125     1.007825032230
         H            3.520083209253     0.753700401923     0.858426317125     1.007825032230
         H            3.448953209253     0.974580401923    -0.899923682875     1.007825032230

  Charge       = 0
  Multiplicity = 1
  Basis Set: AUG-CC-PVDZ
    Blend: AUG-CC-PVDZ
  Basis Set: (AUG-CC-PVDZ AUX)
    Blend: AUG-CC-PVDZ-JKFIT

    Orbital Energies [Eh]
    ---------------------

    Doubly Occupied:

       1A    -20.518792     2A    -15.594419     3A    -11.355251
       4A    -11.263317     5A    -11.242508     6A     -1.374555
       7A     -1.233511     8A     -1.021490     9A     -0.935092
      10A     -0.791497    11A     -0.691498    12A     -0.653001
      13A     -0.632946    14A     -0.586375    15A     -0.578766
      16A     -0.556645    17A     -0.544276    18A     -0.502198
      19A     -0.418631    20A     -0.389609

  @DF-RHF Final Energy:  -247.04141149994652

   => Energetics <=

    Nuclear Repulsion Energy =            180.5608974000033982
    One-Electron Energy =                -693.4358594294782279
    Two-Electron Energy =                 265.8335505295282246
    Total Energy =                       -247.0414114999465482

  Dipole Moment: [D]
     X:     2.6415      Y:    -3.2185      Z:    -0.5050     Total:     4.1942

    SAPT Results
  --------------------------------------------------------------------------------------------------------
    Electrostatics                 -2.49430351 [mEh]      -1.56519908 [kcal/mol]      -6.54879296 [kJ/mol]
      Elst10,r                     -2.89603597 [mEh]      -1.81729001 [kcal/mol]      -7.60354139 [kJ/mol]
      Elst12,r                      0.40173246 [mEh]       0.25209093 [kcal/mol]       1.05474843 [kJ/mol]

    Exchange                        0.06987343 [mEh]       0.04384624 [kcal/mol]       0.18345266 [kJ/mol]
      Exch10                        0.04697533 [mEh]       0.02947747 [kcal/mol]       0.12333372 [kJ/mol]
      Exch10(S^2)                   0.04697328 [mEh]       0.02947618 [kcal/mol]       0.12332833 [kJ/mol]
      Exch11(S^2)                  -0.00021832 [mEh]      -0.00013700 [kcal/mol]      -0.00057319 [kJ/mol]
      Exch12(S^2)                   0.02311641 [mEh]       0.01450577 [kcal/mol]       0.06069212 [kJ/mol]

    Induction                      -0.13838127 [mEh]      -0.08683556 [kcal/mol]      -0.36331998 [kJ/mol]
      Ind20,r                      -0.13331372 [mEh]      -0.08365562 [kcal/mol]      -0.35001512 [kJ/mol]
      Ind22                        -0.00519743 [mEh]      -0.00326144 [kcal/mol]      -0.01364586 [kJ/mol]
      Exch-Ind20,r                  0.00810933 [mEh]       0.00508868 [kcal/mol]       0.02129105 [kJ/mol]
      Exch-Ind22                    0.00031615 [mEh]       0.00019839 [kcal/mol]       0.00083006 [kJ/mol]
      delta HF,r (2)               -0.00829560 [mEh]      -0.00520557 [kcal/mol]      -0.02178011 [kJ/mol]

    Dispersion                     -0.44119236 [mEh]      -0.27685239 [kcal/mol]      -1.15835038 [kJ/mol]
      Disp20                       -0.39096992 [mEh]      -0.24533733 [kcal/mol]      -1.02649137 [kJ/mol]
      Disp21                        0.02952781 [mEh]       0.01852898 [kcal/mol]       0.07752524 [kJ/mol]
      Disp22 (SDQ)                 -0.01393482 [mEh]      -0.00874423 [kcal/mol]      -0.03658587 [kJ/mol]
      Disp22 (T)                   -0.06770647 [mEh]      -0.04248645 [kcal/mol]      -0.17776331 [kJ/mol]
      Est. Disp22 (T)              -0.07099416 [mEh]      -0.04454951 [kcal/mol]      -0.18639515 [kJ/mol]
      Exch-Disp20                   0.00517873 [mEh]       0.00324971 [kcal/mol]       0.01359677 [kJ/mol]

  Total HF                         -2.98256063 [mEh]      -1.87158505 [kcal/mol]      -7.83071185 [kJ/mol]
  Total SAPT0                      -3.36835181 [mEh]      -2.11367267 [kcal/mol]      -8.84360645 [kJ/mol]
  Total SAPT2                      -2.94860253 [mEh]      -1.85027602 [kcal/mol]      -7.74155488 [kJ/mol]
  Total SAPT2+                     -3.00400371 [mEh]      -1.88504079 [kcal/mol]      -7.88701066 [kJ/mol]

  Special recipe for scaled SAPT0 (see Manual):
    Electrostatics sSAPT0          -2.89603597 [mEh]      -1.81729001 [kcal/mol]      -7.60354139 [kJ/mol]
    Exchange sSAPT0                 0.04697533 [mEh]       0.02947747 [kcal/mol]       0.12333372 [kJ/mol]
    Induction sSAPT0               -0.13349893 [mEh]      -0.08377184 [kcal/mol]      -0.35050139 [kJ/mol]
    Dispersion sSAPT0              -0.38579050 [mEh]      -0.24208719 [kcal/mol]      -1.01289282 [kJ/mol]
  Total sSAPT0                     -3.36835006 [mEh]      -2.11367158 [kcal/mol]      -8.84360188 [kJ/mol]
  --------------------------------------------------------------------------------------------------------

*** Psi4 exiting successfully. Buy a developer a beer!
