                               Psi4 1.4a2.dev224

  ==> Input File <==

--------------------------------------------------------------------------
#Generated by lconvert.py for sapt job

memory 20 GB

molecule  {
0 1
  O      -0.392020   -0.384720    0.076070
  H      -0.911460    0.413810    0.177650
  H       0.524900   -0.068490    0.090510
--
0 1
  C       3.377180   -2.120250   -0.250480
  H       4.027140   -2.981360   -0.383390
  H       2.696200   -2.042780   -1.094340
  H       2.764160   -2.259050    0.636530
  C       4.131910   -0.822240   -0.117890
  O       3.555200    0.253060    0.038700
  N       5.482550   -0.919740   -0.182500
  H       5.883500   -1.830270   -0.312020
  C       6.350790    0.232230   -0.073060
  H       5.714290    1.100530    0.061730
  H       7.016380    0.140780    0.783030
  H       6.945250    0.361650   -0.975320
units angstrom
no_reorient
symmetry c1
}

set {
scf_type DF
basis aug-cc-pvdz
freeze_core True
guess SAD
}
energy('sapt2+')
--------------------------------------------------------------------------

  //              Dimer HF             //
    Molecular point group: c1
  Charge       = 0
  Multiplicity = 1
  Basis Set: AUG-CC-PVDZ
    Blend: AUG-CC-PVDZ
  Basis Set: (AUG-CC-PVDZ AUX)
    Blend: AUG-CC-PVDZ-JKFIT
  @DF-RHF Final Energy:  -323.08711291939835
    Total Energy =                       -323.0871129193983506
  //            Monomer A HF           //
    Molecular point group: c1
  Multiplicity = 1
  Basis Set: AUG-CC-PVDZ
    Blend: AUG-CC-PVDZ
  Basis Set: (AUG-CC-PVDZ AUX)
    Blend: AUG-CC-PVDZ-JKFIT
  @DF-RHF Final Energy:   -76.04094713372942
    Total Energy =                        -76.0409471337294036
  //            Monomer B HF           //
    Molecular point group: c1

    Geometry (in Angstrom), charge = 0, multiplicity = 1:

       Center              X                  Y                   Z               Mass
    ------------   -----------------  -----------------  -----------------  -----------------
      Gh(O)          -4.000689825000     0.216284228479     0.153384897528    15.994914619570
      Gh(H)          -4.520129825000     1.014814228479     0.254964897528     1.007825032230
      Gh(H)          -3.083769825000     0.532514228479     0.167824897528     1.007825032230
         C           -0.231489825000    -1.519245771521    -0.173165102472    12.000000000000
         H            0.418470175000    -2.380355771521    -0.306075102472     1.007825032230
         H           -0.912469825000    -1.441775771521    -1.017025102472     1.007825032230
         H           -0.844509825000    -1.658045771521     0.713844897528     1.007825032230
         C            0.523240175000    -0.221235771521    -0.040575102472    12.000000000000
         O           -0.053469825000     0.854064228479     0.116014897528    15.994914619570
         N            1.873880175000    -0.318735771521    -0.105185102472    14.003074004430
         H            2.274830175000    -1.229265771521    -0.234705102472     1.007825032230
         C            2.742120175000     0.833234228479     0.004254897528    12.000000000000
         H            2.105620175000     1.701534228479     0.139044897528     1.007825032230
         H            3.407710175000     0.741784228479     0.860344897528     1.007825032230
         H            3.336580175000     0.962654228479    -0.898005102472     1.007825032230

  Charge       = 0
  Multiplicity = 1
  Basis Set: AUG-CC-PVDZ
    Blend: AUG-CC-PVDZ
  Basis Set: (AUG-CC-PVDZ AUX)
    Blend: AUG-CC-PVDZ-JKFIT

    Orbital Energies [Eh]
    ---------------------

    Doubly Occupied:

       1A    -20.518807     2A    -15.594416     3A    -11.355259
       4A    -11.263306     5A    -11.242472     6A     -1.374549
       7A     -1.233513     8A     -1.021491     9A     -0.935092
      10A     -0.791501    11A     -0.691498    12A     -0.653003
      13A     -0.632947    14A     -0.586375    15A     -0.578765
      16A     -0.556651    17A     -0.544276    18A     -0.502196
      19A     -0.418628    20A     -0.389609

  @DF-RHF Final Energy:  -247.04145342612779

   => Energetics <=

    Nuclear Repulsion Energy =            180.5607523402516392
    One-Electron Energy =                -693.4357094161832720
    Two-Electron Energy =                 265.8335036498039017
    Total Energy =                       -247.0414534261277595

  Dipole Moment: [D]
     X:     2.6417      Y:    -3.2183      Z:    -0.5050     Total:     4.1942

    SAPT Results
  --------------------------------------------------------------------------------------------------------
    Electrostatics                 -4.08732024 [mEh]      -2.56483217 [kcal/mol]     -10.73125780 [kJ/mol]
      Elst10,r                     -4.66828040 [mEh]      -2.92939017 [kcal/mol]     -12.25656849 [kJ/mol]
      Elst12,r                      0.58096016 [mEh]       0.36455800 [kcal/mol]       1.52531069 [kJ/mol]

    Exchange                        0.45009280 [mEh]       0.28243750 [kcal/mol]       1.18171849 [kJ/mol]
      Exch10                        0.32150087 [mEh]       0.20174484 [kcal/mol]       0.84410041 [kJ/mol]
      Exch10(S^2)                   0.32142376 [mEh]       0.20169645 [kcal/mol]       0.84389796 [kJ/mol]
      Exch11(S^2)                  -0.00090764 [mEh]      -0.00056955 [kcal/mol]      -0.00238301 [kJ/mol]
      Exch12(S^2)                   0.12949958 [mEh]       0.08126221 [kcal/mol]       0.34000109 [kJ/mol]

    Induction                      -0.39568248 [mEh]      -0.24829451 [kcal/mol]      -1.03886421 [kJ/mol]
      Ind20,r                      -0.37768471 [mEh]      -0.23700074 [kcal/mol]      -0.99161108 [kJ/mol]
      Ind22                        -0.03565570 [mEh]      -0.02237429 [kcal/mol]      -0.09361404 [kJ/mol]
      Exch-Ind20,r                  0.05882290 [mEh]       0.03691193 [kcal/mol]       0.15443951 [kJ/mol]
      Exch-Ind22                    0.00555324 [mEh]       0.00348471 [kcal/mol]       0.01458002 [kJ/mol]
      delta HF,r (2)               -0.04671820 [mEh]      -0.02931612 [kcal/mol]      -0.12265863 [kJ/mol]

    Dispersion                     -0.98211959 [mEh]      -0.61628935 [kcal/mol]      -2.57855462 [kJ/mol]
      Disp20                       -0.87496309 [mEh]      -0.54904763 [kcal/mol]      -2.29721527 [kJ/mol]
      Disp21                        0.05792119 [mEh]       0.03634609 [kcal/mol]       0.15207205 [kJ/mol]
      Disp22 (SDQ)                 -0.03738169 [mEh]      -0.02345737 [kcal/mol]      -0.09814562 [kJ/mol]
      Disp22 (T)                   -0.14896983 [mEh]      -0.09347998 [kcal/mol]      -0.39112023 [kJ/mol]
      Est. Disp22 (T)              -0.15846475 [mEh]      -0.09943813 [kcal/mol]      -0.41604914 [kJ/mol]
      Exch-Disp20                   0.03076876 [mEh]       0.01930769 [kcal/mol]       0.08078336 [kJ/mol]

  Total HF                         -4.71235954 [mEh]      -2.95705026 [kcal/mol]     -12.37229827 [kJ/mol]
  Total SAPT0                      -5.55655387 [mEh]      -3.48679020 [kcal/mol]     -14.58873018 [kJ/mol]
  Total SAPT2                      -4.87710425 [mEh]      -3.06042912 [kcal/mol]     -12.80483544 [kJ/mol]
  Total SAPT2+                     -5.01502950 [mEh]      -3.14697853 [kcal/mol]     -13.16695815 [kJ/mol]

  Special recipe for scaled SAPT0 (see Manual):
    Electrostatics sSAPT0          -4.66828040 [mEh]      -2.92939017 [kcal/mol]     -12.25656849 [kJ/mol]
    Exchange sSAPT0                 0.32150087 [mEh]       0.20174484 [kcal/mol]       0.84410041 [kJ/mol]
    Induction sSAPT0               -0.36553767 [mEh]      -0.22937835 [kcal/mol]      -0.95971901 [kJ/mol]
    Dispersion sSAPT0              -0.84417218 [mEh]      -0.52972604 [kcal/mol]      -2.21637376 [kJ/mol]
  Total sSAPT0                     -5.55648938 [mEh]      -3.48674972 [kcal/mol]     -14.58856085 [kJ/mol]
  --------------------------------------------------------------------------------------------------------

*** Psi4 exiting successfully. Buy a developer a beer!
