                               Psi4 1.4a2.dev224

  ==> Input File <==

--------------------------------------------------------------------------
#Generated by lconvert.py for sapt job

memory 20 GB

molecule  {
0 1
  O      -0.392020   -0.384720    0.076070
  H      -0.911460    0.413810    0.177650
  H       0.524900   -0.068490    0.090510
--
0 1
  C       2.809010   -2.180540   -0.240770
  H       3.458970   -3.041650   -0.373680
  H       2.128030   -2.103070   -1.084630
  H       2.195990   -2.319330    0.646240
  C       3.563740   -0.882530   -0.108170
  O       2.987030    0.192770    0.048420
  N       4.914370   -0.980030   -0.172790
  H       5.315330   -1.890560   -0.302300
  C       5.782620    0.171940   -0.063350
  H       5.146120    1.040240    0.071440
  H       6.448210    0.080490    0.792750
  H       6.377080    0.301360   -0.965610
units angstrom
no_reorient
symmetry c1
}

set {
scf_type DF
basis aug-cc-pvdz
freeze_core True
guess SAD
}
energy('sapt2+')
--------------------------------------------------------------------------

  //              Dimer HF             //
    Molecular point group: c1
  Charge       = 0
  Multiplicity = 1
  Basis Set: AUG-CC-PVDZ
    Blend: AUG-CC-PVDZ
  Basis Set: (AUG-CC-PVDZ AUX)
    Blend: AUG-CC-PVDZ-JKFIT
  @DF-RHF Final Energy:  -323.09011883849666
    Total Energy =                       -323.0901188384966645
  //            Monomer A HF           //
    Molecular point group: c1
  Multiplicity = 1
  Basis Set: AUG-CC-PVDZ
    Blend: AUG-CC-PVDZ
  Basis Set: (AUG-CC-PVDZ AUX)
    Blend: AUG-CC-PVDZ-JKFIT
  @DF-RHF Final Energy:   -76.04104922132454
    Total Energy =                        -76.0410492213245419
  //            Monomer B HF           //
    Molecular point group: c1

    Geometry (in Angstrom), charge = 0, multiplicity = 1:

       Center              X                  Y                   Z               Mass
    ------------   -----------------  -----------------  -----------------  -----------------
      Gh(O)          -3.544891321524     0.264649922169     0.145592052109    15.994914619570
      Gh(H)          -4.064331321524     1.063179922169     0.247172052109     1.007825032230
      Gh(H)          -2.627971321524     0.580879922169     0.160032052109     1.007825032230
         C           -0.343861321524    -1.531170077831    -0.171247947891    12.000000000000
         H            0.306098678476    -2.392280077831    -0.304157947891     1.007825032230
         H           -1.024841321524    -1.453700077831    -1.015107947891     1.007825032230
         H           -0.956881321524    -1.669960077831     0.715762052109     1.007825032230
         C            0.410868678476    -0.233160077831    -0.038647947891    12.000000000000
         O           -0.165841321524     0.842139922169     0.117942052109    15.994914619570
         N            1.761498678476    -0.330660077831    -0.103267947891    14.003074004430
         H            2.162458678476    -1.241190077831    -0.232777947891     1.007825032230
         C            2.629748678476     0.821309922169     0.006172052109    12.000000000000
         H            1.993248678476     1.689609922169     0.140962052109     1.007825032230
         H            3.295338678476     0.729859922169     0.862272052109     1.007825032230
         H            3.224208678476     0.950729922169    -0.896087947891     1.007825032230

  Charge       = 0
  Multiplicity = 1
  Basis Set: AUG-CC-PVDZ
    Blend: AUG-CC-PVDZ
  Basis Set: (AUG-CC-PVDZ AUX)
    Blend: AUG-CC-PVDZ-JKFIT

    Orbital Energies [Eh]
    ---------------------

    Doubly Occupied:

       1A    -20.518826     2A    -15.594416     3A    -11.355233
       4A    -11.263290     5A    -11.242430     6A     -1.374531
       7A     -1.233513     8A     -1.021487     9A     -0.935090
      10A     -0.791496    11A     -0.691494    12A     -0.652993
      13A     -0.632941    14A     -0.586370    15A     -0.578760
      16A     -0.556651    17A     -0.544280    18A     -0.502182
      19A     -0.418631    20A     -0.389596

  @DF-RHF Final Energy:  -247.04152739373063

   => Energetics <=

    Nuclear Repulsion Energy =            180.5608375487525734
    One-Electron Energy =                -693.4363109306168553
    Two-Electron Energy =                 265.8339459881336211
    Total Energy =                       -247.0415273937306324

  Dipole Moment: [D]
     X:     2.6402      Y:    -3.2186      Z:    -0.5050     Total:     4.1934

    SAPT Results
  --------------------------------------------------------------------------------------------------------
    Electrostatics                 -7.69175375 [mEh]      -4.82664835 [kcal/mol]     -20.19469669 [kJ/mol]
      Elst10,r                     -8.49012681 [mEh]      -5.32763501 [kcal/mol]     -22.29082488 [kJ/mol]
      Elst12,r                      0.79837306 [mEh]       0.50098666 [kcal/mol]       2.09612819 [kJ/mol]

    Exchange                        2.88911146 [mEh]       1.81294481 [kcal/mol]       7.58536108 [kJ/mol]
      Exch10                        2.20508182 [mEh]       1.38370973 [kcal/mol]       5.78944151 [kJ/mol]
      Exch10(S^2)                   2.20212105 [mEh]       1.38185182 [kcal/mol]       5.78166802 [kJ/mol]
      Exch11(S^2)                  -0.00030506 [mEh]      -0.00019143 [kcal/mol]      -0.00080093 [kJ/mol]
      Exch12(S^2)                   0.68433470 [mEh]       0.42942651 [kcal/mol]       1.79672050 [kJ/mol]

    Induction                      -1.40380330 [mEh]      -0.88089987 [kcal/mol]      -3.68568505 [kJ/mol]
      Ind20,r                      -1.40214129 [mEh]      -0.87985694 [kcal/mol]      -3.68132146 [kJ/mol]
      Ind22                        -0.21474043 [mEh]      -0.13475165 [kcal/mol]      -0.56380091 [kJ/mol]
      Exch-Ind20,r                  0.44475863 [mEh]       0.27909026 [kcal/mol]       1.16771363 [kJ/mol]
      Exch-Ind22                    0.06811557 [mEh]       0.04274317 [kcal/mol]       0.17883741 [kJ/mol]
      delta HF,r (2)               -0.29979578 [mEh]      -0.18812470 [kcal/mol]      -0.78711372 [kJ/mol]

    Dispersion                     -2.39006400 [mEh]      -1.49978780 [kcal/mol]      -6.27511216 [kJ/mol]
      Disp20                       -2.20726458 [mEh]      -1.38507944 [kcal/mol]      -5.79517237 [kJ/mol]
      Disp21                        0.13616752 [mEh]       0.08544641 [kcal/mol]       0.35750777 [kJ/mol]
      Disp22 (SDQ)                 -0.10689082 [mEh]      -0.06707500 [kcal/mol]      -0.28064181 [kJ/mol]
      Disp22 (T)                   -0.36103505 [mEh]      -0.22655291 [kcal/mol]      -0.94789739 [kJ/mol]
      Est. Disp22 (T)              -0.39506781 [mEh]      -0.24790879 [kcal/mol]      -1.03725039 [kJ/mol]
      Exch-Disp20                   0.18299170 [mEh]       0.11482903 [kcal/mol]       0.48044464 [kJ/mol]

  Total HF                         -7.54222344 [mEh]      -4.73281666 [kcal/mol]     -19.80210492 [kJ/mol]
  Total SAPT0                      -9.56649633 [mEh]      -6.00306708 [kcal/mol]     -25.11683264 [kJ/mol]
  Total SAPT2                      -8.23071847 [mEh]      -5.16485382 [kcal/mol]     -21.60974838 [kJ/mol]
  Total SAPT2+                     -8.59650959 [mEh]      -5.39439121 [kcal/mol]     -22.57013281 [kJ/mol]

  Special recipe for scaled SAPT0 (see Manual):
    Electrostatics sSAPT0          -8.49012681 [mEh]      -5.32763501 [kcal/mol]     -22.29082488 [kJ/mol]
    Exchange sSAPT0                 2.20508182 [mEh]       1.38370973 [kcal/mol]       5.78944151 [kJ/mol]
    Induction sSAPT0               -1.25538209 [mEh]      -0.78776415 [kcal/mol]      -3.29600522 [kJ/mol]
    Dispersion sSAPT0              -2.02353379 [mEh]      -1.26978662 [kcal/mol]      -5.31278723 [kJ/mol]
  Total sSAPT0                     -9.56396087 [mEh]      -6.00147606 [kcal/mol]     -25.11017582 [kJ/mol]
  --------------------------------------------------------------------------------------------------------

*** Psi4 exiting successfully. Buy a developer a beer!
