                               Psi4 1.4a2.dev224

  ==> Input File <==

--------------------------------------------------------------------------
#Generated by lconvert.py for sapt job

memory 20 GB

molecule  {
0 1
  O      -0.636140   -0.023280    0.280600
  H       0.308100   -0.047080    0.076460
  C      -1.152060   -1.311290    0.015260
  H      -2.209940   -1.296270    0.263960
  H      -1.056610   -1.592670   -1.036190
  H      -0.674840   -2.086270    0.620510
--
0 1
  O       2.821290   -0.146220   -0.040540
  H       3.290080    0.468160   -0.610210
  C       3.330120    0.010800    1.281170
  H       2.776550   -0.677400    1.911300
  H       4.389120   -0.239640    1.337900
  H       3.177680    1.021490    1.659070
units angstrom
no_reorient
symmetry c1
}

set {
scf_type DF
basis aug-cc-pvdz
freeze_core True
guess SAD
}
energy('sapt2+')
--------------------------------------------------------------------------

  //              Dimer HF             //
    Molecular point group: c1
  Charge       = 0
  Multiplicity = 1
  Basis Set: AUG-CC-PVDZ
    Blend: AUG-CC-PVDZ
  Basis Set: (AUG-CC-PVDZ AUX)
    Blend: AUG-CC-PVDZ-JKFIT
  @DF-RHF Final Energy:  -230.12763719023798
    Total Energy =                       -230.1276371902379765
  //            Monomer A HF           //
    Molecular point group: c1
  Multiplicity = 1
  Basis Set: AUG-CC-PVDZ
    Blend: AUG-CC-PVDZ
  Basis Set: (AUG-CC-PVDZ AUX)
    Blend: AUG-CC-PVDZ-JKFIT
  @DF-RHF Final Energy:  -115.06124812326024
    Total Energy =                       -115.0612481232602420
  //            Monomer B HF           //
    Molecular point group: c1

    Geometry (in Angstrom), charge = 0, multiplicity = 1:

       Center              X                  Y                   Z               Mass
    ------------   -----------------  -----------------  -----------------  -----------------
      Gh(O)          -1.747204789543     0.332702077440    -0.088671594152    15.994914619570
      Gh(H)          -0.802964789543     0.308902077440    -0.292811594152     1.007825032230
      Gh(C)          -2.263124789543    -0.955307922560    -0.354011594152    12.000000000000
      Gh(H)          -3.321004789543    -0.940287922560    -0.105311594152     1.007825032230
      Gh(H)          -2.167674789543    -1.236687922560    -1.405461594152     1.007825032230
      Gh(H)          -1.785904789543    -1.730287922560     0.251238405848     1.007825032230
         O            1.710225210457     0.209762077440    -0.409811594152    15.994914619570
         H            2.179015210457     0.824142077440    -0.979481594152     1.007825032230
         C            2.219055210457     0.366782077440     0.911898405848    12.000000000000
         H            1.665485210457    -0.321417922560     1.542028405848     1.007825032230
         H            3.278055210457     0.116342077440     0.968628405848     1.007825032230
         H            2.066615210457     1.377472077440     1.289798405848     1.007825032230

  Charge       = 0
  Multiplicity = 1
  Basis Set: AUG-CC-PVDZ
    Blend: AUG-CC-PVDZ
  Basis Set: (AUG-CC-PVDZ AUX)
    Blend: AUG-CC-PVDZ-JKFIT

    Orbital Energies [Eh]
    ---------------------

    Doubly Occupied:

       1A    -20.568362     2A    -11.278476     3A     -1.359728
       4A     -0.928308     5A     -0.691123     6A     -0.620480
       7A     -0.592628     8A     -0.505014     9A     -0.451325

  @DF-RHF Final Energy:  -115.06154407989743

   => Energetics <=

    Nuclear Repulsion Energy =             40.2981640121350040
    One-Electron Energy =                -236.7285302101023490
    Two-Electron Energy =                  81.3688221180699145
    Total Energy =                       -115.0615440798974305

  Dipole Moment: [D]
     X:     1.3024      Y:     1.1486      Z:     0.5628     Total:     1.8255

    SAPT Results
  --------------------------------------------------------------------------------------------------------
    Electrostatics                 -5.29303084 [mEh]      -3.32142700 [kcal/mol]     -13.89685055 [kJ/mol]
      Elst10,r                     -5.50172528 [mEh]      -3.45238474 [kcal/mol]     -14.44477774 [kJ/mol]
      Elst12,r                      0.20869445 [mEh]       0.13095774 [kcal/mol]       0.54792719 [kJ/mol]

    Exchange                        1.88200803 [mEh]       1.18097787 [kcal/mol]       4.94121140 [kJ/mol]
      Exch10                        1.42436556 [mEh]       0.89380288 [kcal/mol]       3.73967126 [kJ/mol]
      Exch10(S^2)                   1.42274853 [mEh]       0.89278818 [kcal/mol]       3.73542575 [kJ/mol]
      Exch11(S^2)                  -0.00719157 [mEh]      -0.00451278 [kcal/mol]      -0.01888146 [kJ/mol]
      Exch12(S^2)                   0.46483404 [mEh]       0.29168776 [kcal/mol]       1.22042160 [kJ/mol]

    Induction                      -0.86197898 [mEh]      -0.54089998 [kcal/mol]      -2.26312550 [kJ/mol]
      Ind20,r                      -0.83947643 [mEh]      -0.52677941 [kcal/mol]      -2.20404505 [kJ/mol]
      Ind22                        -0.13886939 [mEh]      -0.08714186 [kcal/mol]      -0.36460153 [kJ/mol]
      Exch-Ind20,r                  0.26911340 [mEh]       0.16887121 [kcal/mol]       0.70655714 [kJ/mol]
      Exch-Ind22                    0.04451776 [mEh]       0.02793532 [kcal/mol]       0.11688137 [kJ/mol]
      delta HF,r (2)               -0.19726433 [mEh]      -0.12378524 [kcal/mol]      -0.51791743 [kJ/mol]

    Dispersion                     -1.73606056 [mEh]      -1.08939445 [kcal/mol]      -4.55802638 [kJ/mol]
      Disp20                       -1.58904956 [mEh]      -0.99714365 [kcal/mol]      -4.17204904 [kJ/mol]
      Disp21                        0.07568348 [mEh]       0.04749210 [kcal/mol]       0.19870696 [kJ/mol]
      Disp22 (SDQ)                 -0.07299889 [mEh]      -0.04580749 [kcal/mol]      -0.19165855 [kJ/mol]
      Disp22 (T)                   -0.24502953 [mEh]      -0.15375835 [kcal/mol]      -0.64332495 [kJ/mol]
      Est. Disp22 (T)              -0.26714924 [mEh]      -0.16763868 [kcal/mol]      -0.70140023 [kJ/mol]
      Exch-Disp20                   0.11745363 [mEh]       0.07370327 [kcal/mol]       0.30837448 [kJ/mol]

  Total HF                         -4.84498708 [mEh]      -3.04027529 [kcal/mol]     -12.72051183 [kJ/mol]
  Total SAPT0                      -6.31658300 [mEh]      -3.96371568 [kcal/mol]     -16.58418639 [kJ/mol]
  Total SAPT2                      -5.74459771 [mEh]      -3.60478949 [kcal/mol]     -15.08243921 [kJ/mol]
  Total SAPT2+                     -6.00906235 [mEh]      -3.77074356 [kcal/mol]     -15.77679104 [kJ/mol]

  Special recipe for scaled SAPT0 (see Manual):
    Electrostatics sSAPT0          -5.50172528 [mEh]      -3.45238474 [kcal/mol]     -14.44477774 [kJ/mol]
    Exchange sSAPT0                 1.42436556 [mEh]       0.89380288 [kcal/mol]       3.73967126 [kJ/mol]
    Induction sSAPT0               -0.76670873 [mEh]      -0.48111699 [kcal/mol]      -2.01299349 [kJ/mol]
    Dispersion sSAPT0              -1.47119499 [mEh]      -0.92318879 [kcal/mol]      -3.86262192 [kJ/mol]
  Total sSAPT0                     -6.31526344 [mEh]      -3.96288764 [kcal/mol]     -16.58072189 [kJ/mol]
  --------------------------------------------------------------------------------------------------------

*** Psi4 exiting successfully. Buy a developer a beer!
