                               Psi4 1.4a2.dev224

  ==> Input File <==

--------------------------------------------------------------------------
#Generated by lconvert.py for sapt job

memory 20 GB

molecule  {
0 1
  O      -0.636140   -0.023280    0.280600
  H       0.308100   -0.047080    0.076460
  C      -1.152060   -1.311290    0.015260
  H      -2.209940   -1.296270    0.263960
  H      -1.056610   -1.592670   -1.036190
  H      -0.674840   -2.086270    0.620510
--
0 1
  O       3.401230   -0.169100   -0.067550
  H       3.870020    0.445290   -0.637210
  C       3.910070   -0.012080    1.254170
  H       3.356500   -0.700270    1.884300
  H       4.969060   -0.262520    1.310890
  H       3.757630    0.998620    1.632060
units angstrom
no_reorient
symmetry c1
}

set {
scf_type DF
basis aug-cc-pvdz
freeze_core True
guess SAD
}
energy('sapt2+')
--------------------------------------------------------------------------

  //              Dimer HF             //
    Molecular point group: c1
  Charge       = 0
  Multiplicity = 1
  Basis Set: AUG-CC-PVDZ
    Blend: AUG-CC-PVDZ
  Basis Set: (AUG-CC-PVDZ AUX)
    Blend: AUG-CC-PVDZ-JKFIT
  @DF-RHF Final Energy:  -230.12558111976392
    Total Energy =                       -230.1255811197639218
  //            Monomer A HF           //
    Molecular point group: c1
  Multiplicity = 1
  Basis Set: AUG-CC-PVDZ
    Blend: AUG-CC-PVDZ
  Basis Set: (AUG-CC-PVDZ AUX)
    Blend: AUG-CC-PVDZ-JKFIT
  @DF-RHF Final Energy:  -115.06120819286586
    Total Energy =                       -115.0612081928658625
  //            Monomer B HF           //
    Molecular point group: c1

    Geometry (in Angstrom), charge = 0, multiplicity = 1:

       Center              X                  Y                   Z               Mass
    ------------   -----------------  -----------------  -----------------  -----------------
      Gh(O)          -2.037176977695     0.344141605409    -0.075168782305    15.994914619570
      Gh(H)          -1.092936977695     0.320341605409    -0.279308782305     1.007825032230
      Gh(C)          -2.553096977695    -0.943868394591    -0.340508782305    12.000000000000
      Gh(H)          -3.610976977695    -0.928848394591    -0.091808782305     1.007825032230
      Gh(H)          -2.457646977695    -1.225248394591    -1.391958782305     1.007825032230
      Gh(H)          -2.075876977695    -1.718848394591     0.264741217695     1.007825032230
         O            2.000193022305     0.198321605409    -0.423318782305    15.994914619570
         H            2.468983022305     0.812711605409    -0.992978782305     1.007825032230
         C            2.509033022305     0.355341605409     0.898401217695    12.000000000000
         H            1.955463022305    -0.332848394591     1.528531217695     1.007825032230
         H            3.568023022305     0.104901605409     0.955121217695     1.007825032230
         H            2.356593022305     1.366041605409     1.276291217695     1.007825032230

  Charge       = 0
  Multiplicity = 1
  Basis Set: AUG-CC-PVDZ
    Blend: AUG-CC-PVDZ
  Basis Set: (AUG-CC-PVDZ AUX)
    Blend: AUG-CC-PVDZ-JKFIT

    Orbital Energies [Eh]
    ---------------------

    Doubly Occupied:

       1A    -20.568366     2A    -11.278538     3A     -1.359750
       4A     -0.928324     5A     -0.691147     6A     -0.620486
       7A     -0.592642     8A     -0.505036     9A     -0.451338

  @DF-RHF Final Energy:  -115.06147287299189

   => Energetics <=

    Nuclear Repulsion Energy =             40.2980166619066296
    One-Electron Energy =                -236.7277238734373270
    Two-Electron Energy =                  81.3682343385387981
    Total Energy =                       -115.0614728729918852

  Dipole Moment: [D]
     X:     1.3040      Y:     1.1489      Z:     0.5639     Total:     1.8271

    SAPT Results
  --------------------------------------------------------------------------------------------------------
    Electrostatics                 -2.66848834 [mEh]      -1.67450171 [kcal/mol]      -7.00611517 [kJ/mol]
      Elst10,r                     -2.86396482 [mEh]      -1.79716506 [kcal/mol]      -7.51933860 [kJ/mol]
      Elst12,r                      0.19547648 [mEh]       0.12266334 [kcal/mol]       0.51322343 [kJ/mol]

    Exchange                        0.23808171 [mEh]       0.14939853 [kcal/mol]       0.62508345 [kJ/mol]
      Exch10                        0.16673322 [mEh]       0.10462668 [kcal/mol]       0.43775801 [kJ/mol]
      Exch10(S^2)                   0.16670589 [mEh]       0.10460952 [kcal/mol]       0.43768625 [kJ/mol]
      Exch11(S^2)                  -0.00216472 [mEh]      -0.00135838 [kcal/mol]      -0.00568347 [kJ/mol]
      Exch12(S^2)                   0.07351321 [mEh]       0.04613024 [kcal/mol]       0.19300891 [kJ/mol]

    Induction                      -0.21835936 [mEh]      -0.13702256 [kcal/mol]      -0.57330241 [kJ/mol]
      Ind20,r                      -0.20376568 [mEh]      -0.12786490 [kcal/mol]      -0.53498672 [kJ/mol]
      Ind22                        -0.01790405 [mEh]      -0.01123496 [kcal/mol]      -0.04700708 [kJ/mol]
      Exch-Ind20,r                  0.02693878 [mEh]       0.01690434 [kcal/mol]       0.07072776 [kJ/mol]
      Exch-Ind22                    0.00236700 [mEh]       0.00148531 [kcal/mol]       0.00621456 [kJ/mol]
      delta HF,r (2)               -0.02599541 [mEh]      -0.01631236 [kcal/mol]      -0.06825093 [kJ/mol]

    Dispersion                     -0.67310064 [mEh]      -0.42237703 [kcal/mol]      -1.76722548 [kJ/mol]
      Disp20                       -0.60049240 [mEh]      -0.37681467 [kcal/mol]      -1.57659258 [kJ/mol]
      Disp21                        0.03481858 [mEh]       0.02184899 [kcal/mol]       0.09141617 [kJ/mol]
      Disp22 (SDQ)                 -0.02307090 [mEh]      -0.01447721 [kcal/mol]      -0.06057265 [kJ/mol]
      Disp22 (T)                   -0.09542125 [mEh]      -0.05987774 [kcal/mol]      -0.25052846 [kJ/mol]
      Est. Disp22 (T)              -0.10079979 [mEh]      -0.06325282 [kcal/mol]      -0.26464981 [kJ/mol]
      Exch-Disp20                   0.01644388 [mEh]       0.01031869 [kcal/mol]       0.04317339 [kJ/mol]

  Total HF                         -2.90005391 [mEh]      -1.81981130 [kcal/mol]      -7.61409048 [kJ/mol]
  Total SAPT0                      -3.48410243 [mEh]      -2.18630728 [kcal/mol]      -9.14750967 [kJ/mol]
  Total SAPT2                      -3.23281451 [mEh]      -2.02862173 [kcal/mol]      -8.48775332 [kJ/mol]
  Total SAPT2+                     -3.32186662 [mEh]      -2.08450277 [kcal/mol]      -8.72155961 [kJ/mol]

  Special recipe for scaled SAPT0 (see Manual):
    Electrostatics sSAPT0          -2.86396482 [mEh]      -1.79716506 [kcal/mol]      -7.51933860 [kJ/mol]
    Exchange sSAPT0                 0.16673322 [mEh]       0.10462668 [kcal/mol]       0.43775801 [kJ/mol]
    Induction sSAPT0               -0.20280905 [mEh]      -0.12726460 [kcal/mol]      -0.53247510 [kJ/mol]
    Dispersion sSAPT0              -0.58404043 [mEh]      -0.36649091 [kcal/mol]      -1.53339795 [kJ/mol]
  Total sSAPT0                     -3.48408109 [mEh]      -2.18629389 [kcal/mol]      -9.14745363 [kJ/mol]
  --------------------------------------------------------------------------------------------------------

*** Psi4 exiting successfully. Buy a developer a beer!
