                               Psi4 1.4a2.dev224

  ==> Input File <==

--------------------------------------------------------------------------
#Generated by lconvert.py for sapt job

memory 20 GB

molecule  {
0 1
  O      -0.636140   -0.023280    0.280600
  H       0.308100   -0.047080    0.076460
  C      -1.152060   -1.311290    0.015260
  H      -2.209940   -1.296270    0.263960
  H      -1.056610   -1.592670   -1.036190
  H      -0.674840   -2.086270    0.620510
--
0 1
  O       3.981180   -0.191980   -0.094550
  H       4.449970    0.422410   -0.664220
  C       4.490010   -0.034960    1.227170
  H       3.936440   -0.723150    1.857300
  H       5.549010   -0.285400    1.283890
  H       4.337570    0.975740    1.605060
units angstrom
no_reorient
symmetry c1
}

set {
scf_type DF
basis aug-cc-pvdz
freeze_core True
guess SAD
}
energy('sapt2+')
--------------------------------------------------------------------------

  //              Dimer HF             //
    Molecular point group: c1
  Charge       = 0
  Multiplicity = 1
  Basis Set: AUG-CC-PVDZ
    Blend: AUG-CC-PVDZ
  Basis Set: (AUG-CC-PVDZ AUX)
    Blend: AUG-CC-PVDZ-JKFIT
  @DF-RHF Final Energy:  -230.12440602193811
    Total Energy =                       -230.1244060219381140
  //            Monomer A HF           //
    Molecular point group: c1
  Multiplicity = 1
  Basis Set: AUG-CC-PVDZ
    Blend: AUG-CC-PVDZ
  Basis Set: (AUG-CC-PVDZ AUX)
    Blend: AUG-CC-PVDZ-JKFIT
  @DF-RHF Final Energy:  -115.06119154753266
    Total Energy =                       -115.0611915475326583
  //            Monomer B HF           //
    Molecular point group: c1

    Geometry (in Angstrom), charge = 0, multiplicity = 1:

       Center              X                  Y                   Z               Mass
    ------------   -----------------  -----------------  -----------------  -----------------
      Gh(O)          -2.327149789543     0.355581605409    -0.061668624961    15.994914619570
      Gh(H)          -1.382909789543     0.331781605409    -0.265808624961     1.007825032230
      Gh(C)          -2.843069789543    -0.932428394591    -0.327008624961    12.000000000000
      Gh(H)          -3.900949789543    -0.917408394591    -0.078308624961     1.007825032230
      Gh(H)          -2.747619789543    -1.213808394591    -1.378458624961     1.007825032230
      Gh(H)          -2.365849789543    -1.707408394591     0.278241375039     1.007825032230
         O            2.290170210457     0.186881605409    -0.436818624961    15.994914619570
         H            2.758960210457     0.801271605409    -1.006488624961     1.007825032230
         C            2.799000210457     0.343901605409     0.884901375039    12.000000000000
         H            2.245430210457    -0.344288394591     1.515031375039     1.007825032230
         H            3.858000210457     0.093461605409     0.941621375039     1.007825032230
         H            2.646560210457     1.354601605409     1.262791375039     1.007825032230

  Charge       = 0
  Multiplicity = 1
  Basis Set: AUG-CC-PVDZ
    Blend: AUG-CC-PVDZ
  Basis Set: (AUG-CC-PVDZ AUX)
    Blend: AUG-CC-PVDZ-JKFIT

    Orbital Energies [Eh]
    ---------------------

    Doubly Occupied:

       1A    -20.568349     2A    -11.278554     3A     -1.359752
       4A     -0.928324     5A     -0.691148     6A     -0.620490
       7A     -0.592647     8A     -0.505037     9A     -0.451339

  @DF-RHF Final Energy:  -115.06144615835095

   => Energetics <=

    Nuclear Repulsion Energy =             40.2979963478624796
    One-Electron Energy =                -236.7276065986661706
    Two-Electron Energy =                  81.3681640924527585
    Total Energy =                       -115.0614461583509467

  Dipole Moment: [D]
     X:     1.3031      Y:     1.1487      Z:     0.5646     Total:     1.8266

    SAPT Results
  --------------------------------------------------------------------------------------------------------
    Electrostatics                 -1.57642491 [mEh]      -0.98922156 [kcal/mol]      -4.13890303 [kJ/mol]
      Elst10,r                     -1.71595198 [mEh]      -1.07677612 [kcal/mol]      -4.50523130 [kJ/mol]
      Elst12,r                      0.13952707 [mEh]       0.08755456 [kcal/mol]       0.36632828 [kJ/mol]

    Exchange                        0.02935371 [mEh]       0.01841973 [kcal/mol]       0.07706815 [kJ/mol]
      Exch10                        0.01900559 [mEh]       0.01192619 [kcal/mol]       0.04989917 [kJ/mol]
      Exch10(S^2)                   0.01900516 [mEh]       0.01192592 [kcal/mol]       0.04989803 [kJ/mol]
      Exch11(S^2)                  -0.00043348 [mEh]      -0.00027202 [kcal/mol]      -0.00113811 [kJ/mol]
      Exch12(S^2)                   0.01078160 [mEh]       0.00676556 [kcal/mol]       0.02830709 [kJ/mol]

    Induction                      -0.07290444 [mEh]      -0.04574823 [kcal/mol]      -0.19141058 [kJ/mol]
      Ind20,r                      -0.06973942 [mEh]      -0.04376215 [kcal/mol]      -0.18310083 [kJ/mol]
      Ind22                        -0.00159778 [mEh]      -0.00100262 [kcal/mol]      -0.00419498 [kJ/mol]
      Exch-Ind20,r                  0.00275013 [mEh]       0.00172573 [kcal/mol]       0.00722045 [kJ/mol]
      Exch-Ind22                    0.00006301 [mEh]       0.00003954 [kcal/mol]       0.00016543 [kJ/mol]
      delta HF,r (2)               -0.00438037 [mEh]      -0.00274872 [kcal/mol]      -0.01150065 [kJ/mol]

    Dispersion                     -0.29379312 [mEh]      -0.18435796 [kcal/mol]      -0.77135372 [kJ/mol]
      Disp20                       -0.26386529 [mEh]      -0.16557797 [kcal/mol]      -0.69277823 [kJ/mol]
      Disp21                        0.01920776 [mEh]       0.01205305 [kcal/mol]       0.05042996 [kJ/mol]
      Disp22 (SDQ)                 -0.00754698 [mEh]      -0.00473580 [kcal/mol]      -0.01981460 [kJ/mol]
      Disp22 (T)                   -0.04252404 [mEh]      -0.02668424 [kcal/mol]      -0.11164685 [kJ/mol]
      Est. Disp22 (T)              -0.04390714 [mEh]      -0.02755215 [kcal/mol]      -0.11527818 [kJ/mol]
      Exch-Disp20                   0.00231854 [mEh]       0.00145491 [kcal/mol]       0.00608733 [kJ/mol]

  Total HF                         -1.76831605 [mEh]      -1.10963508 [kcal/mol]      -4.64271316 [kJ/mol]
  Total SAPT0                      -2.02986281 [mEh]      -1.27375814 [kcal/mol]      -5.32940406 [kJ/mol]
  Total SAPT2                      -1.88152239 [mEh]      -1.18067313 [kcal/mol]      -4.93993636 [kJ/mol]
  Total SAPT2+                     -1.91376876 [mEh]      -1.20090803 [kcal/mol]      -5.02459918 [kJ/mol]

  Special recipe for scaled SAPT0 (see Manual):
    Electrostatics sSAPT0          -1.71595198 [mEh]      -1.07677612 [kcal/mol]      -4.50523130 [kJ/mol]
    Exchange sSAPT0                 0.01900559 [mEh]       0.01192619 [kcal/mol]       0.04989917 [kJ/mol]
    Induction sSAPT0               -0.07136948 [mEh]      -0.04478502 [kcal/mol]      -0.18738054 [kJ/mol]
    Dispersion sSAPT0              -0.26154659 [mEh]      -0.16412296 [kcal/mol]      -0.68669048 [kJ/mol]
  Total sSAPT0                     -2.02986246 [mEh]      -1.27375792 [kcal/mol]      -5.32940315 [kJ/mol]
  --------------------------------------------------------------------------------------------------------

*** Psi4 exiting successfully. Buy a developer a beer!
