                               Psi4 1.4a2.dev224

  ==> Input File <==

--------------------------------------------------------------------------
#Generated by lconvert.py for sapt job

memory 20 GB

molecule  {
0 1
  O      -0.706920    0.045830    0.006390
  H       0.265620    0.071710    0.001340
  C      -1.076670   -1.313920    0.001610
  H      -2.162920   -1.363200    0.005870
  H      -0.723410   -1.844650   -0.887740
  H      -0.716080   -1.852820    0.883080
--
0 1
  N       4.001670   -0.136990   -0.007690
  H       4.372290    0.370780    0.785440
  H       4.372420    0.327340   -0.826950
  C       4.479430   -1.523030    0.029770
  H       4.087540   -2.057050   -0.832420
  H       5.566140   -1.629760    0.032810
  H       4.087300   -2.009760    0.919410
units angstrom
no_reorient
symmetry c1
}

set {
scf_type DF
basis aug-cc-pvdz
freeze_core True
guess SAD
}
energy('sapt2+')
--------------------------------------------------------------------------

  //              Dimer HF             //
    Molecular point group: c1
  Charge       = 0
  Multiplicity = 1
  Basis Set: AUG-CC-PVDZ
    Blend: AUG-CC-PVDZ
  Basis Set: (AUG-CC-PVDZ AUX)
    Blend: AUG-CC-PVDZ-JKFIT
  @DF-RHF Final Energy:  -210.29360568593941
    Total Energy =                       -210.2936056859394114
  //            Monomer A HF           //
    Molecular point group: c1
  Multiplicity = 1
  Basis Set: AUG-CC-PVDZ
    Blend: AUG-CC-PVDZ
  Basis Set: (AUG-CC-PVDZ AUX)
    Blend: AUG-CC-PVDZ-JKFIT
  @DF-RHF Final Energy:  -115.06075375363977
    Total Energy =                       -115.0607537536397729
  //            Monomer B HF           //
    Molecular point group: c1

    Geometry (in Angstrom), charge = 0, multiplicity = 1:

       Center              X                  Y                   Z               Mass
    ------------   -----------------  -----------------  -----------------  -----------------
      Gh(O)          -2.369565536179     0.764005599559    -0.000785643287    15.994914619570
      Gh(H)          -1.397025536179     0.789885599559    -0.005835643287     1.007825032230
      Gh(C)          -2.739315536179    -0.595744400441    -0.005565643287    12.000000000000
      Gh(H)          -3.825565536179    -0.645024400441    -0.001305643287     1.007825032230
      Gh(H)          -2.386055536179    -1.126474400441    -0.894915643287     1.007825032230
      Gh(H)          -2.378725536179    -1.134644400441     0.875904356713     1.007825032230
         N            2.339024463821     0.581185599559    -0.014865643287    14.003074004430
         H            2.709644463821     1.088955599559     0.778264356713     1.007825032230
         H            2.709774463821     1.045515599559    -0.834125643287     1.007825032230
         C            2.816784463821    -0.804854400441     0.022594356713    12.000000000000
         H            2.424894463821    -1.338874400441    -0.839595643287     1.007825032230
         H            3.903494463821    -0.911584400441     0.025634356713     1.007825032230
         H            2.424654463821    -1.291584400441     0.912234356713     1.007825032230

  Charge       = 0
  Multiplicity = 1
  Basis Set: AUG-CC-PVDZ
    Blend: AUG-CC-PVDZ
  Basis Set: (AUG-CC-PVDZ AUX)
    Blend: AUG-CC-PVDZ-JKFIT

    Orbital Energies [Eh]
    ---------------------

    Doubly Occupied:

       1A    -15.548579     2A    -11.247686     3A     -1.172035
       4A     -0.897653     5A     -0.661524     6A     -0.603636
       7A     -0.555300     8A     -0.516921     9A     -0.392432

  @DF-RHF Final Energy:   -95.23068866211007

   => Energetics <=

    Nuclear Repulsion Energy =             42.0519337683161112
    One-Electron Energy =                -211.3737118984454355
    Two-Electron Energy =                  74.0910894680192627
    Total Energy =                        -95.2306886621100688

  Dipole Moment: [D]
     X:     1.4513      Y:     0.0078      Z:    -0.0000     Total:     1.4513

    SAPT Results
  --------------------------------------------------------------------------------------------------------
    Electrostatics                 -2.01746638 [mEh]      -1.26597927 [kcal/mol]      -5.29685725 [kJ/mol]
      Elst10,r                     -2.09237638 [mEh]      -1.31298600 [kcal/mol]      -5.49353343 [kJ/mol]
      Elst12,r                      0.07491000 [mEh]       0.04700674 [kcal/mol]       0.19667618 [kJ/mol]

    Exchange                        0.07849965 [mEh]       0.04925927 [kcal/mol]       0.20610079 [kJ/mol]
      Exch10                        0.05549045 [mEh]       0.03482079 [kcal/mol]       0.14569017 [kJ/mol]
      Exch10(S^2)                   0.05548649 [mEh]       0.03481830 [kcal/mol]       0.14567975 [kJ/mol]
      Exch11(S^2)                   0.00004530 [mEh]       0.00002842 [kcal/mol]       0.00011893 [kJ/mol]
      Exch12(S^2)                   0.02296389 [mEh]       0.01441006 [kcal/mol]       0.06029170 [kJ/mol]

    Induction                      -0.13624246 [mEh]      -0.08549343 [kcal/mol]      -0.35770453 [kJ/mol]
      Ind20,r                      -0.12825138 [mEh]      -0.08047896 [kcal/mol]      -0.33672396 [kJ/mol]
      Ind22                        -0.01107946 [mEh]      -0.00695247 [kcal/mol]      -0.02908913 [kJ/mol]
      Exch-Ind20,r                  0.01413690 [mEh]       0.00887104 [kcal/mol]       0.03711641 [kJ/mol]
      Exch-Ind22                    0.00122127 [mEh]       0.00076636 [kcal/mol]       0.00320644 [kJ/mol]
      delta HF,r (2)               -0.01226977 [mEh]      -0.00769940 [kcal/mol]      -0.03221429 [kJ/mol]

    Dispersion                     -0.40162507 [mEh]      -0.25202353 [kcal/mol]      -1.05446646 [kJ/mol]
      Disp20                       -0.36018611 [mEh]      -0.22602020 [kcal/mol]      -0.94566851 [kJ/mol]
      Disp21                        0.02022180 [mEh]       0.01268937 [kcal/mol]       0.05309232 [kJ/mol]
      Disp22 (SDQ)                 -0.00870809 [mEh]      -0.00546441 [kcal/mol]      -0.02286308 [kJ/mol]
      Disp22 (T)                   -0.05659172 [mEh]      -0.03551184 [kcal/mol]      -0.14858153 [kJ/mol]
      Est. Disp22 (T)              -0.05964903 [mEh]      -0.03743033 [kcal/mol]      -0.15660851 [kJ/mol]
      Exch-Disp20                   0.00669637 [mEh]       0.00420204 [kcal/mol]       0.01758132 [kJ/mol]

  Total HF                         -2.16327019 [mEh]      -1.35747254 [kcal/mol]      -5.67966510 [kJ/mol]
  Total SAPT0                      -2.51675993 [mEh]      -1.57929070 [kcal/mol]      -6.60775229 [kJ/mol]
  Total SAPT2                      -2.42869894 [mEh]      -1.52403159 [kcal/mol]      -6.37654818 [kJ/mol]
  Total SAPT2+                     -2.47683426 [mEh]      -1.55423696 [kcal/mol]      -6.50292745 [kJ/mol]

  Special recipe for scaled SAPT0 (see Manual):
    Electrostatics sSAPT0          -2.09237638 [mEh]      -1.31298600 [kcal/mol]      -5.49353343 [kJ/mol]
    Exchange sSAPT0                 0.05549045 [mEh]       0.03482079 [kcal/mol]       0.14569017 [kJ/mol]
    Induction sSAPT0               -0.12638123 [mEh]      -0.07930542 [kcal/mol]      -0.33181387 [kJ/mol]
    Dispersion sSAPT0              -0.35348831 [mEh]      -0.22181726 [kcal/mol]      -0.92808342 [kJ/mol]
  Total sSAPT0                     -2.51675546 [mEh]      -1.57928790 [kcal/mol]      -6.60774056 [kJ/mol]
  --------------------------------------------------------------------------------------------------------

*** Psi4 exiting successfully. Buy a developer a beer!
