                               Psi4 1.4a2.dev224

  ==> Input File <==

--------------------------------------------------------------------------
#Generated by lconvert.py for sapt job

memory 20 GB

molecule  {
0 1
  O      -0.706920    0.045830    0.006390
  H       0.265620    0.071710    0.001340
  C      -1.076670   -1.313920    0.001610
  H      -2.162920   -1.363200    0.005870
  H      -0.723410   -1.844650   -0.887740
  H      -0.716080   -1.852820    0.883080
--
0 1
  N       2.821900   -0.071090   -0.004840
  H       3.192520    0.436690    0.788290
  H       3.192640    0.393250   -0.824100
  C       3.299650   -1.457120    0.032620
  H       2.907770   -1.991150   -0.829570
  H       4.386360   -1.563860    0.035660
  H       2.907530   -1.943850    0.922260
units angstrom
no_reorient
symmetry c1
}

set {
scf_type DF
basis aug-cc-pvdz
freeze_core True
guess SAD
}
energy('sapt2+')
--------------------------------------------------------------------------

  //              Dimer HF             //
    Molecular point group: c1
  Charge       = 0
  Multiplicity = 1
  Basis Set: AUG-CC-PVDZ
    Blend: AUG-CC-PVDZ
  Basis Set: (AUG-CC-PVDZ AUX)
    Blend: AUG-CC-PVDZ-JKFIT
  @DF-RHF Final Energy:  -210.29786221996545
    Total Energy =                       -210.2978622199654524
  //            Monomer A HF           //
    Molecular point group: c1
  Multiplicity = 1
  Basis Set: AUG-CC-PVDZ
    Blend: AUG-CC-PVDZ
  Basis Set: (AUG-CC-PVDZ AUX)
    Blend: AUG-CC-PVDZ-JKFIT
  @DF-RHF Final Energy:  -115.06083752835514
    Total Energy =                       -115.0608375283551368
  //            Monomer B HF           //
    Molecular point group: c1

    Geometry (in Angstrom), charge = 0, multiplicity = 1:

       Center              X                  Y                   Z               Mass
    ------------   -----------------  -----------------  -----------------  -----------------
      Gh(O)          -1.788881907192     0.731567314960    -0.002188409936    15.994914619570
      Gh(H)          -0.816341907192     0.757447314960    -0.007238409936     1.007825032230
      Gh(C)          -2.158631907192    -0.628182685040    -0.006968409936    12.000000000000
      Gh(H)          -3.244881907192    -0.677462685040    -0.002708409936     1.007825032230
      Gh(H)          -1.805371907192    -1.158912685040    -0.896318409936     1.007825032230
      Gh(H)          -1.798041907192    -1.167082685040     0.874501590064     1.007825032230
         N            1.739938092808     0.614647314960    -0.013418409936    14.003074004430
         H            2.110558092808     1.122427314960     0.779711590064     1.007825032230
         H            2.110678092808     1.078987314960    -0.832678409936     1.007825032230
         C            2.217688092808    -0.771382685040     0.024041590064    12.000000000000
         H            1.825808092808    -1.305412685040    -0.838148409936     1.007825032230
         H            3.304398092808    -0.878122685040     0.027081590064     1.007825032230
         H            1.825568092808    -1.258112685040     0.913681590064     1.007825032230

  Charge       = 0
  Multiplicity = 1
  Basis Set: AUG-CC-PVDZ
    Blend: AUG-CC-PVDZ
  Basis Set: (AUG-CC-PVDZ AUX)
    Blend: AUG-CC-PVDZ-JKFIT

    Orbital Energies [Eh]
    ---------------------

    Doubly Occupied:

       1A    -15.548551     2A    -11.247609     3A     -1.172028
       4A     -0.897652     5A     -0.661478     6A     -0.603624
       7A     -0.555280     8A     -0.516892     9A     -0.392387

  @DF-RHF Final Energy:   -95.23089387123649

   => Energetics <=

    Nuclear Repulsion Energy =             42.0520618056260460
    One-Electron Energy =                -211.3749090233989989
    Two-Electron Energy =                  74.0919533465364708
    Total Energy =                        -95.2308938712364892

  Dipole Moment: [D]
     X:     1.4478      Y:     0.0093      Z:    -0.0001     Total:     1.4478

    SAPT Results
  --------------------------------------------------------------------------------------------------------
    Electrostatics                 -7.48764484 [mEh]      -4.69856807 [kcal/mol]     -19.65880882 [kJ/mol]
      Elst10,r                     -7.47873403 [mEh]      -4.69297646 [kcal/mol]     -19.63541349 [kJ/mol]
      Elst12,r                     -0.00891081 [mEh]      -0.00559162 [kcal/mol]      -0.02339533 [kJ/mol]

    Exchange                        3.41666403 [mEh]       2.14398905 [kcal/mol]       8.97045016 [kJ/mol]
      Exch10                        2.75190954 [mEh]       1.72684931 [kcal/mol]       7.22513750 [kJ/mol]
      Exch10(S^2)                   2.74545443 [mEh]       1.72279866 [kcal/mol]       7.20818961 [kJ/mol]
      Exch11(S^2)                   0.02293808 [mEh]       0.01439386 [kcal/mol]       0.06022393 [kJ/mol]
      Exch12(S^2)                   0.64181640 [mEh]       0.40274587 [kcal/mol]       1.68508874 [kJ/mol]

    Induction                      -1.55821874 [mEh]      -0.97779702 [kcal/mol]      -4.09110274 [kJ/mol]
      Ind20,r                      -1.72830090 [mEh]      -1.08452519 [kcal/mol]      -4.53765338 [kJ/mol]
      Ind22                        -0.27122906 [mEh]      -0.17019880 [kcal/mol]      -0.71211180 [kJ/mol]
      Exch-Ind20,r                  0.74557617 [mEh]       0.46785611 [kcal/mol]       1.95750996 [kJ/mol]
      Exch-Ind22                    0.11700620 [mEh]       0.07342250 [kcal/mol]       0.30719974 [kJ/mol]
      delta HF,r (2)               -0.42127116 [mEh]      -0.26435164 [kcal/mol]      -1.10604727 [kJ/mol]

    Dispersion                     -2.41467554 [mEh]      -1.51523178 [kcal/mol]      -6.33972976 [kJ/mol]
      Disp20                       -2.28269390 [mEh]      -1.43241205 [kcal/mol]      -5.99321201 [kJ/mol]
      Disp21                        0.07583716 [mEh]       0.04758854 [kcal/mol]       0.19911045 [kJ/mol]
      Disp22 (SDQ)                 -0.07282118 [mEh]      -0.04569598 [kcal/mol]      -0.19119199 [kJ/mol]
      Disp22 (T)                   -0.34141954 [mEh]      -0.21424400 [kcal/mol]      -0.89639689 [kJ/mol]
      Est. Disp22 (T)              -0.37489668 [mEh]      -0.23525122 [kcal/mol]      -0.98429110 [kJ/mol]
      Exch-Disp20                   0.23989906 [mEh]       0.15053893 [kcal/mol]       0.62985489 [kJ/mol]

  Total HF                         -6.13082037 [mEh]      -3.84714787 [kcal/mol]     -16.09646667 [kJ/mol]
  Total SAPT0                      -8.17361522 [mEh]      -5.12902098 [kcal/mol]     -21.45982379 [kJ/mol]
  Total SAPT2                      -7.67199440 [mEh]      -4.81424917 [kcal/mol]     -20.14281852 [kJ/mol]
  Total SAPT2+                     -8.04387510 [mEh]      -5.04760783 [kcal/mol]     -21.11919116 [kJ/mol]

  Special recipe for scaled SAPT0 (see Manual):
    Electrostatics sSAPT0          -7.47873403 [mEh]      -4.69297646 [kcal/mol]     -19.63541349 [kJ/mol]
    Exchange sSAPT0                 2.75190954 [mEh]       1.72684931 [kcal/mol]       7.22513750 [kJ/mol]
    Induction sSAPT0               -1.39872451 [mEh]      -0.87771288 [kcal/mol]      -3.67235071 [kJ/mol]
    Dispersion sSAPT0              -2.04109871 [mEh]      -1.28080878 [kcal/mol]      -5.35890392 [kJ/mol]
  Total sSAPT0                     -8.16664771 [mEh]      -5.12464881 [kcal/mol]     -21.44153062 [kJ/mol]
  --------------------------------------------------------------------------------------------------------

*** Psi4 exiting successfully. Buy a developer a beer!
