                               Psi4 1.4a2.dev224

  ==> Input File <==

--------------------------------------------------------------------------
#Generated by lconvert.py for sapt job

memory 20 GB

molecule  {
0 1
  O      -0.706920    0.045830    0.006390
  H       0.265620    0.071710    0.001340
  C      -1.076670   -1.313920    0.001610
  H      -2.162920   -1.363200    0.005870
  H      -0.723410   -1.844650   -0.887740
  H      -0.716080   -1.852820    0.883080
--
0 1
  N       3.411790   -0.104040   -0.006260
  H       3.782410    0.403730    0.786870
  H       3.782530    0.360300   -0.825520
  C       3.889540   -1.490080    0.031200
  H       3.497650   -2.024100   -0.830990
  H       4.976250   -1.596810    0.034230
  H       3.497410   -1.976810    0.920830
units angstrom
no_reorient
symmetry c1
}

set {
scf_type DF
basis aug-cc-pvdz
freeze_core True
guess SAD
}
energy('sapt2+')
--------------------------------------------------------------------------

  //              Dimer HF             //
    Molecular point group: c1
  Charge       = 0
  Multiplicity = 1
  Basis Set: AUG-CC-PVDZ
    Blend: AUG-CC-PVDZ
  Basis Set: (AUG-CC-PVDZ AUX)
    Blend: AUG-CC-PVDZ-JKFIT
  @DF-RHF Final Energy:  -210.29517497377742
    Total Energy =                       -210.2951749737774207
  //            Monomer A HF           //
    Molecular point group: c1
  Multiplicity = 1
  Basis Set: AUG-CC-PVDZ
    Blend: AUG-CC-PVDZ
  Basis Set: (AUG-CC-PVDZ AUX)
    Blend: AUG-CC-PVDZ-JKFIT
  @DF-RHF Final Energy:  -115.06077915052560
    Total Energy =                       -115.0607791505256046
  //            Monomer B HF           //
    Molecular point group: c1

    Geometry (in Angstrom), charge = 0, multiplicity = 1:

       Center              X                  Y                   Z               Mass
    ------------   -----------------  -----------------  -----------------  -----------------
      Gh(O)          -2.079224751936     0.747787488507    -0.001489168008    15.994914619570
      Gh(H)          -1.106684751936     0.773667488507    -0.006539168008     1.007825032230
      Gh(C)          -2.448974751936    -0.611962511493    -0.006269168008    12.000000000000
      Gh(H)          -3.535224751936    -0.661242511493    -0.002009168008     1.007825032230
      Gh(H)          -2.095714751936    -1.142692511493    -0.895619168008     1.007825032230
      Gh(H)          -2.088384751936    -1.150862511493     0.875200831992     1.007825032230
         N            2.039485248064     0.597917488507    -0.014139168008    14.003074004430
         H            2.410105248064     1.105687488507     0.778990831992     1.007825032230
         H            2.410225248064     1.062257488507    -0.833399168008     1.007825032230
         C            2.517235248064    -0.788122511493     0.023320831992    12.000000000000
         H            2.125345248064    -1.322142511493    -0.838869168008     1.007825032230
         H            3.603945248064    -0.894852511493     0.026350831992     1.007825032230
         H            2.125105248064    -1.274852511493     0.912950831992     1.007825032230

  Charge       = 0
  Multiplicity = 1
  Basis Set: AUG-CC-PVDZ
    Blend: AUG-CC-PVDZ
  Basis Set: (AUG-CC-PVDZ AUX)
    Blend: AUG-CC-PVDZ-JKFIT

    Orbital Energies [Eh]
    ---------------------

    Doubly Occupied:

       1A    -15.548575     2A    -11.247667     3A     -1.172034
       4A     -0.897656     5A     -0.661516     6A     -0.603636
       7A     -0.555295     8A     -0.516916     9A     -0.392419

  @DF-RHF Final Energy:   -95.23074146129508

   => Energetics <=

    Nuclear Repulsion Energy =             42.0519911825732748
    One-Electron Energy =                -211.3740350809944175
    Two-Electron Energy =                  74.0913024371260747
    Total Energy =                        -95.2307414612950822

  Dipole Moment: [D]
     X:     1.4505      Y:     0.0082      Z:    -0.0000     Total:     1.4505

    SAPT Results
  --------------------------------------------------------------------------------------------------------
    Electrostatics                 -3.58751614 [mEh]      -2.25120036 [kcal/mol]      -9.41902233 [kJ/mol]
      Elst10,r                     -3.67146790 [mEh]      -2.30388089 [kcal/mol]      -9.63943765 [kJ/mol]
      Elst12,r                      0.08395177 [mEh]       0.05268053 [kcal/mol]       0.22041533 [kJ/mol]

    Exchange                        0.52149468 [mEh]       0.32724285 [kcal/mol]       1.36918410 [kJ/mol]
      Exch10                        0.39322817 [mEh]       0.24675440 [kcal/mol]       1.03242043 [kJ/mol]
      Exch10(S^2)                   0.39306476 [mEh]       0.24665186 [kcal/mol]       1.03199139 [kJ/mol]
      Exch11(S^2)                   0.00203474 [mEh]       0.00127682 [kcal/mol]       0.00534221 [kJ/mol]
      Exch12(S^2)                   0.12623177 [mEh]       0.07921163 [kcal/mol]       0.33142147 [kJ/mol]

    Induction                      -0.41625762 [mEh]      -0.26120560 [kcal/mol]      -1.09288424 [kJ/mol]
      Ind20,r                      -0.41387155 [mEh]      -0.25970832 [kcal/mol]      -1.08661961 [kJ/mol]
      Ind22                        -0.05341328 [mEh]      -0.03351734 [kcal/mol]      -0.14023656 [kJ/mol]
      Exch-Ind20,r                  0.10288339 [mEh]       0.06456030 [kcal/mol]       0.27012030 [kJ/mol]
      Exch-Ind22                    0.01327789 [mEh]       0.00833200 [kcal/mol]       0.03486109 [kJ/mol]
      delta HF,r (2)               -0.06513407 [mEh]      -0.04087224 [kcal/mol]      -0.17100947 [kJ/mol]

    Dispersion                     -0.94132413 [mEh]      -0.59068981 [kcal/mol]      -2.47144617 [kJ/mol]
      Disp20                       -0.84847928 [mEh]      -0.53242879 [kcal/mol]      -2.22768204 [kJ/mol]
      Disp21                        0.03348400 [mEh]       0.02101153 [kcal/mol]       0.08791224 [kJ/mol]
      Disp22 (SDQ)                 -0.02585486 [mEh]      -0.01622417 [kcal/mol]      -0.06788193 [kJ/mol]
      Disp22 (T)                   -0.12958303 [mEh]      -0.08131458 [kcal/mol]      -0.34022020 [kJ/mol]
      Est. Disp22 (T)              -0.14076274 [mEh]      -0.08832995 [kcal/mol]      -0.36957252 [kJ/mol]
      Exch-Disp20                   0.04028874 [mEh]       0.02528157 [kcal/mol]       0.10577808 [kJ/mol]

  Total HF                         -3.65436196 [mEh]      -2.29314675 [kcal/mol]      -9.59452600 [kJ/mol]
  Total SAPT0                      -4.46255249 [mEh]      -2.80029397 [kcal/mol]     -11.71642995 [kJ/mol]
  Total SAPT2                      -4.29046961 [mEh]      -2.69231033 [kcal/mol]     -11.26462642 [kJ/mol]
  Total SAPT2+                     -4.42360321 [mEh]      -2.77585292 [kcal/mol]     -11.61416863 [kJ/mol]

  Special recipe for scaled SAPT0 (see Manual):
    Electrostatics sSAPT0          -3.67146790 [mEh]      -2.30388089 [kcal/mol]      -9.63943765 [kJ/mol]
    Exchange sSAPT0                 0.39322817 [mEh]       0.24675440 [kcal/mol]       1.03242043 [kJ/mol]
    Induction sSAPT0               -0.37599386 [mEh]      -0.23593971 [kcal/mol]      -0.98717173 [kJ/mol]
    Dispersion sSAPT0              -0.80814027 [mEh]      -0.50711567 [kcal/mol]      -2.12177198 [kJ/mol]
  Total sSAPT0                     -4.46237385 [mEh]      -2.80018187 [kcal/mol]     -11.71596093 [kJ/mol]
  --------------------------------------------------------------------------------------------------------

*** Psi4 exiting successfully. Buy a developer a beer!
