                               Psi4 1.4a2.dev224

  ==> Input File <==

--------------------------------------------------------------------------
#Generated by lconvert.py for sapt job

memory 20 GB

molecule  {
0 1
  O      -0.208780   -0.216870   -1.032410
  H       0.711130   -0.386890   -0.773960
  C      -1.022170   -0.741170   -0.005450
  H      -2.057490   -0.538710   -0.268600
  H      -0.907740   -1.821830    0.108540
  H      -0.824630   -0.275490    0.964640
--
0 1
  C       3.598250    1.917370    0.993030
  H       4.104640    2.878820    0.958160
  H       3.187710    1.771230    1.990900
  H       2.768600    1.907860    0.291520
  C       4.513880    0.762430    0.677110
  O       4.089690   -0.357480    0.392030
  N       5.840020    1.024150    0.736310
  H       6.138030    1.934580    1.034000
  C       6.822420   -0.015960    0.513570
  H       6.465870   -0.666900   -0.278610
  H       7.762790    0.437570    0.215050
  H       6.981940   -0.620480    1.405640
units angstrom
no_reorient
symmetry c1
}

set {
scf_type DF
basis aug-cc-pvdz
freeze_core True
guess SAD
}
energy('sapt2+')
--------------------------------------------------------------------------

  //              Dimer HF             //
    Molecular point group: c1
  Charge       = 0
  Multiplicity = 1
  Basis Set: AUG-CC-PVDZ
    Blend: AUG-CC-PVDZ
  Basis Set: (AUG-CC-PVDZ AUX)
    Blend: AUG-CC-PVDZ-JKFIT
  @DF-RHF Final Energy:  -362.10548942849914
    Total Energy =                       -362.1054894284991406
  //            Monomer A HF           //
    Molecular point group: c1
  Multiplicity = 1
  Basis Set: AUG-CC-PVDZ
    Blend: AUG-CC-PVDZ
  Basis Set: (AUG-CC-PVDZ AUX)
    Blend: AUG-CC-PVDZ-JKFIT
  @DF-RHF Final Energy:  -115.06094219470873
    Total Energy =                       -115.0609421947087299
  //            Monomer B HF           //
    Molecular point group: c1

    Geometry (in Angstrom), charge = 0, multiplicity = 1:

       Center              X                  Y                   Z               Mass
    ------------   -----------------  -----------------  -----------------  -----------------
      Gh(O)          -3.495841893439    -0.529801465832    -1.335975666223    15.994914619570
      Gh(H)          -2.575931893439    -0.699821465832    -1.077525666223     1.007825032230
      Gh(C)          -4.309231893439    -1.054101465832    -0.309015666223    12.000000000000
      Gh(H)          -5.344551893439    -0.851641465832    -0.572165666223     1.007825032230
      Gh(H)          -4.194801893439    -2.134761465832    -0.195025666223     1.007825032230
      Gh(H)          -4.111691893439    -0.588421465832     0.661074333777     1.007825032230
         C            0.311188106561     1.604438534168     0.689464333777    12.000000000000
         H            0.817578106561     2.565888534168     0.654594333777     1.007825032230
         H           -0.099351893439     1.458298534168     1.687334333777     1.007825032230
         H           -0.518461893439     1.594928534168    -0.012045666223     1.007825032230
         C            1.226818106561     0.449498534168     0.373544333777    12.000000000000
         O            0.802628106561    -0.670411465832     0.088464333777    15.994914619570
         N            2.552958106561     0.711218534168     0.432744333777    14.003074004430
         H            2.850968106561     1.621648534168     0.730434333777     1.007825032230
         C            3.535358106561    -0.328891465832     0.210004333777    12.000000000000
         H            3.178808106561    -0.979831465832    -0.582175666223     1.007825032230
         H            4.475728106561     0.124638534168    -0.088515666223     1.007825032230
         H            3.694878106561    -0.933411465832     1.102074333777     1.007825032230

  Charge       = 0
  Multiplicity = 1
  Basis Set: AUG-CC-PVDZ
    Blend: AUG-CC-PVDZ
  Basis Set: (AUG-CC-PVDZ AUX)
    Blend: AUG-CC-PVDZ-JKFIT

    Orbital Energies [Eh]
    ---------------------

    Doubly Occupied:

       1A    -20.519698     2A    -15.593714     3A    -11.353672
       4A    -11.264785     5A    -11.242632     6A     -1.374730
       7A     -1.232870     8A     -1.021305     9A     -0.935084
      10A     -0.792090    11A     -0.690750    12A     -0.651941
      13A     -0.633892    14A     -0.585061    15A     -0.578250
      16A     -0.557428    17A     -0.547130    18A     -0.499414
      19A     -0.419099    20A     -0.390163

  @DF-RHF Final Energy:  -247.04182156060355

   => Energetics <=

    Nuclear Repulsion Energy =            180.7388417072802156
    One-Electron Energy =                -693.7939144690091098
    Two-Electron Energy =                 266.0132512011252857
    Total Energy =                       -247.0418215606035801

  Dipole Moment: [D]
     X:     2.2315      Y:     3.4555      Z:     1.0186     Total:     4.2376

    SAPT Results
  --------------------------------------------------------------------------------------------------------
    Electrostatics                 -2.33891642 [mEh]      -1.46769221 [kcal/mol]      -6.14082421 [kJ/mol]
      Elst10,r                     -2.62811534 [mEh]      -1.64916728 [kcal/mol]      -6.90011588 [kJ/mol]
      Elst12,r                      0.28919892 [mEh]       0.18147506 [kcal/mol]       0.75929167 [kJ/mol]

    Exchange                        0.09545736 [mEh]       0.05990040 [kcal/mol]       0.25062326 [kJ/mol]
      Exch10                        0.06345525 [mEh]       0.03981877 [kcal/mol]       0.16660172 [kJ/mol]
      Exch10(S^2)                   0.06345141 [mEh]       0.03981636 [kcal/mol]       0.16659165 [kJ/mol]
      Exch11(S^2)                  -0.00056975 [mEh]      -0.00035752 [kcal/mol]      -0.00149587 [kJ/mol]
      Exch12(S^2)                   0.03257186 [mEh]       0.02043915 [kcal/mol]       0.08551740 [kJ/mol]

    Induction                      -0.16426774 [mEh]      -0.10307956 [kcal/mol]      -0.43128489 [kJ/mol]
      Ind20,r                      -0.15801825 [mEh]      -0.09915795 [kcal/mol]      -0.41487687 [kJ/mol]
      Ind22                        -0.00348221 [mEh]      -0.00218512 [kcal/mol]      -0.00914255 [kJ/mol]
      Exch-Ind20,r                  0.01032661 [mEh]       0.00648005 [kcal/mol]       0.02711251 [kJ/mol]
      Exch-Ind22                    0.00022757 [mEh]       0.00014280 [kcal/mol]       0.00059747 [kJ/mol]
      delta HF,r (2)               -0.01332145 [mEh]      -0.00835933 [kcal/mol]      -0.03497546 [kJ/mol]

    Dispersion                     -0.62495764 [mEh]      -0.39216684 [kcal/mol]      -1.64082606 [kJ/mol]
      Disp20                       -0.55534807 [mEh]      -0.34848617 [kcal/mol]      -1.45806615 [kJ/mol]
      Disp21                        0.04204817 [mEh]       0.02638562 [kcal/mol]       0.11039745 [kJ/mol]
      Disp22 (SDQ)                 -0.01766939 [mEh]      -0.01108771 [kcal/mol]      -0.04639099 [kJ/mol]
      Disp22 (T)                   -0.09801630 [mEh]      -0.06150616 [kcal/mol]      -0.25734177 [kJ/mol]
      Est. Disp22 (T)              -0.10191468 [mEh]      -0.06395243 [kcal/mol]      -0.26757696 [kJ/mol]
      Exch-Disp20                   0.00792633 [mEh]       0.00497385 [kcal/mol]       0.02081059 [kJ/mol]

  Total HF                         -2.72567319 [mEh]      -1.71038575 [kcal/mol]      -7.15625397 [kJ/mol]
  Total SAPT0                      -3.27309492 [mEh]      -2.05389807 [kcal/mol]      -8.59350953 [kJ/mol]
  Total SAPT2                      -2.95514853 [mEh]      -1.85438370 [kcal/mol]      -7.75874140 [kJ/mol]
  Total SAPT2+                     -3.03268444 [mEh]      -1.90303822 [kcal/mol]      -7.96231190 [kJ/mol]

  Special recipe for scaled SAPT0 (see Manual):
    Electrostatics sSAPT0          -2.62811534 [mEh]      -1.64916728 [kcal/mol]      -6.90011588 [kJ/mol]
    Exchange sSAPT0                 0.06345525 [mEh]       0.03981877 [kcal/mol]       0.16660172 [kJ/mol]
    Induction sSAPT0               -0.16101122 [mEh]      -0.10103606 [kcal/mol]      -0.42273489 [kJ/mol]
    Dispersion sSAPT0              -0.54742029 [mEh]      -0.34351142 [kcal/mol]      -1.43725178 [kJ/mol]
  Total sSAPT0                     -3.27309161 [mEh]      -2.05389599 [kcal/mol]      -8.59350083 [kJ/mol]
  --------------------------------------------------------------------------------------------------------

*** Psi4 exiting successfully. Buy a developer a beer!
