                               Psi4 1.4a2.dev224

  ==> Input File <==

--------------------------------------------------------------------------
#Generated by lconvert.py for sapt job

memory 20 GB

molecule  {
0 1
  O      -0.208780   -0.216870   -1.032410
  H       0.711130   -0.386890   -0.773960
  C      -1.022170   -0.741170   -0.005450
  H      -2.057490   -0.538710   -0.268600
  H      -0.907740   -1.821830    0.108540
  H      -0.824630   -0.275490    0.964640
--
0 1
  C       3.064810    1.912730    0.808930
  H       3.571200    2.874170    0.774060
  H       2.654270    1.766590    1.806810
  H       2.235160    1.903210    0.107430
  C       3.980440    0.757790    0.493010
  O       3.556250   -0.362120    0.207930
  N       5.306580    1.019510    0.552210
  H       5.604590    1.929940    0.849900
  C       6.288980   -0.020600    0.329470
  H       5.932430   -0.671540   -0.462710
  H       7.229350    0.432920    0.030960
  H       6.448490   -0.625130    1.221550
units angstrom
no_reorient
symmetry c1
}

set {
scf_type DF
basis aug-cc-pvdz
freeze_core True
guess SAD
}
energy('sapt2+')
--------------------------------------------------------------------------

  //              Dimer HF             //
    Molecular point group: c1
  Charge       = 0
  Multiplicity = 1
  Basis Set: AUG-CC-PVDZ
    Blend: AUG-CC-PVDZ
  Basis Set: (AUG-CC-PVDZ AUX)
    Blend: AUG-CC-PVDZ-JKFIT
  @DF-RHF Final Energy:  -362.10727192221344
    Total Energy =                       -362.1072719222134424
  //            Monomer A HF           //
    Molecular point group: c1
  Multiplicity = 1
  Basis Set: AUG-CC-PVDZ
    Blend: AUG-CC-PVDZ
  Basis Set: (AUG-CC-PVDZ AUX)
    Blend: AUG-CC-PVDZ-JKFIT
  @DF-RHF Final Energy:  -115.06100651310639
    Total Energy =                       -115.0610065131063919
  //            Monomer B HF           //
    Molecular point group: c1

    Geometry (in Angstrom), charge = 0, multiplicity = 1:

       Center              X                  Y                   Z               Mass
    ------------   -----------------  -----------------  -----------------  -----------------
      Gh(O)          -3.124984877639    -0.526575272146    -1.207986474748    15.994914619570
      Gh(H)          -2.205074877639    -0.696595272146    -0.949536474748     1.007825032230
      Gh(C)          -3.938374877639    -1.050875272146    -0.181026474748    12.000000000000
      Gh(H)          -4.973694877639    -0.848415272146    -0.444176474748     1.007825032230
      Gh(H)          -3.823944877639    -2.131535272146    -0.067036474748     1.007825032230
      Gh(H)          -3.740834877639    -0.585195272146     0.789063525252     1.007825032230
         C            0.148605122361     1.603024727854     0.633353525252    12.000000000000
         H            0.654995122361     2.564464727854     0.598483525252     1.007825032230
         H           -0.261934877639     1.456884727854     1.631233525252     1.007825032230
         H           -0.681044877639     1.593504727854    -0.068146474748     1.007825032230
         C            1.064235122361     0.448084727854     0.317433525252    12.000000000000
         O            0.640045122361    -0.671825272146     0.032353525252    15.994914619570
         N            2.390375122361     0.709804727854     0.376633525252    14.003074004430
         H            2.688385122361     1.620234727854     0.674323525252     1.007825032230
         C            3.372775122361    -0.330305272146     0.153893525252    12.000000000000
         H            3.016225122361    -0.981245272146    -0.638286474748     1.007825032230
         H            4.313145122361     0.123214727854    -0.144616474748     1.007825032230
         H            3.532285122361    -0.934835272146     1.045973525252     1.007825032230

  Charge       = 0
  Multiplicity = 1
  Basis Set: AUG-CC-PVDZ
    Blend: AUG-CC-PVDZ
  Basis Set: (AUG-CC-PVDZ AUX)
    Blend: AUG-CC-PVDZ-JKFIT

    Orbital Energies [Eh]
    ---------------------

    Doubly Occupied:

       1A    -20.519718     2A    -15.593715     3A    -11.353678
       4A    -11.264777     5A    -11.242624     6A     -1.374732
       7A     -1.232867     8A     -1.021305     9A     -0.935082
      10A     -0.792088    11A     -0.690750    12A     -0.651940
      13A     -0.633891    14A     -0.585057    15A     -0.578250
      16A     -0.557429    17A     -0.547130    18A     -0.499412
      19A     -0.419099    20A     -0.390163

  @DF-RHF Final Energy:  -247.04185637411172

   => Energetics <=

    Nuclear Repulsion Energy =            180.7388614787392669
    One-Electron Energy =                -693.7940212967491789
    Two-Electron Energy =                 266.0133034438981667
    Total Energy =                       -247.0418563741117168

  Dipole Moment: [D]
     X:     2.2312      Y:     3.4551      Z:     1.0189     Total:     4.2373

    SAPT Results
  --------------------------------------------------------------------------------------------------------
    Electrostatics                 -3.97252487 [mEh]      -2.49279699 [kcal/mol]     -10.42986262 [kJ/mol]
      Elst10,r                     -4.39602247 [mEh]      -2.75854575 [kcal/mol]     -11.54175541 [kJ/mol]
      Elst12,r                      0.42349760 [mEh]       0.26574876 [kcal/mol]       1.11189279 [kJ/mol]

    Exchange                        0.58515565 [mEh]       0.36719071 [kcal/mol]       1.53632594 [kJ/mol]
      Exch10                        0.41375205 [mEh]       0.25963333 [kcal/mol]       1.08630586 [kJ/mol]
      Exch10(S^2)                   0.41362613 [mEh]       0.25955432 [kcal/mol]       1.08597525 [kJ/mol]
      Exch11(S^2)                  -0.00256671 [mEh]      -0.00161064 [kcal/mol]      -0.00673891 [kJ/mol]
      Exch12(S^2)                   0.17397031 [mEh]       0.10916802 [kcal/mol]       0.45675899 [kJ/mol]

    Induction                      -0.46005580 [mEh]      -0.28868937 [kcal/mol]      -1.20787634 [kJ/mol]
      Ind20,r                      -0.43867183 [mEh]      -0.27527073 [kcal/mol]      -1.15173273 [kJ/mol]
      Ind22                        -0.04006899 [mEh]      -0.02514367 [kcal/mol]      -0.10520111 [kJ/mol]
      Exch-Ind20,r                  0.07420234 [mEh]       0.04656267 [kcal/mol]       0.19481821 [kJ/mol]
      Exch-Ind22                    0.00677776 [mEh]       0.00425311 [kcal/mol]       0.01779501 [kJ/mol]
      delta HF,r (2)               -0.06229508 [mEh]      -0.03909075 [kcal/mol]      -0.16355571 [kJ/mol]

    Dispersion                     -1.33493885 [mEh]      -0.83768677 [kcal/mol]      -3.50488146 [kJ/mol]
      Disp20                       -1.18854531 [mEh]      -0.74582344 [kcal/mol]      -3.12052528 [kJ/mol]
      Disp21                        0.07673629 [mEh]       0.04815275 [kcal/mol]       0.20147110 [kJ/mol]
      Disp22 (SDQ)                 -0.04806292 [mEh]      -0.03015994 [kcal/mol]      -0.12618919 [kJ/mol]
      Disp22 (T)                   -0.20638392 [mEh]      -0.12950786 [kcal/mol]      -0.54186090 [kJ/mol]
      Est. Disp22 (T)              -0.21892439 [mEh]      -0.13737713 [kcal/mol]      -0.57478591 [kJ/mol]
      Exch-Disp20                   0.04385748 [mEh]       0.02752099 [kcal/mol]       0.11514781 [kJ/mol]

  Total HF                         -4.40903500 [mEh]      -2.76671123 [kcal/mol]     -11.57591979 [kJ/mol]
  Total SAPT0                      -5.55372282 [mEh]      -3.48501368 [kcal/mol]     -14.58129725 [kJ/mol]
  Total SAPT2                      -4.99211285 [mEh]      -3.13259811 [kcal/mol]     -13.10679049 [kJ/mol]
  Total SAPT2+                     -5.18236388 [mEh]      -3.25198243 [kcal/mol]     -13.60629448 [kJ/mol]

  Special recipe for scaled SAPT0 (see Manual):
    Electrostatics sSAPT0          -4.39602247 [mEh]      -2.75854575 [kcal/mol]     -11.54175541 [kJ/mol]
    Exchange sSAPT0                 0.41375205 [mEh]       0.25963333 [kcal/mol]       1.08630586 [kJ/mol]
    Induction sSAPT0               -0.42669679 [mEh]      -0.26775628 [kcal/mol]      -1.12029226 [kJ/mol]
    Dispersion sSAPT0              -1.14464776 [mEh]      -0.71827731 [kcal/mol]      -3.00527227 [kJ/mol]
  Total sSAPT0                     -5.55361496 [mEh]      -3.48494600 [kcal/mol]     -14.58101407 [kJ/mol]
  --------------------------------------------------------------------------------------------------------

*** Psi4 exiting successfully. Buy a developer a beer!
