                               Psi4 1.4a2.dev224

  ==> Input File <==

--------------------------------------------------------------------------
#Generated by lconvert.py for sapt job

memory 20 GB

molecule  {
0 1
  O      -0.208780   -0.216870   -1.032410
  H       0.711130   -0.386890   -0.773960
  C      -1.022170   -0.741170   -0.005450
  H      -2.057490   -0.538710   -0.268600
  H      -0.907740   -1.821830    0.108540
  H      -0.824630   -0.275490    0.964640
--
0 1
  C       2.531370    1.908080    0.624830
  H       3.037760    2.869530    0.589960
  H       2.120820    1.761950    1.622710
  H       1.701720    1.898570   -0.076670
  C       3.447000    0.753140    0.308920
  O       3.022800   -0.366770    0.023830
  N       4.773130    1.014870    0.368120
  H       5.071150    1.925290    0.665800
  C       5.755540   -0.025250    0.145370
  H       5.398980   -0.676180   -0.646800
  H       6.695910    0.428280   -0.153140
  H       5.915050   -0.629770    1.037450
units angstrom
no_reorient
symmetry c1
}

set {
scf_type DF
basis aug-cc-pvdz
freeze_core True
guess SAD
}
energy('sapt2+')
--------------------------------------------------------------------------

  //              Dimer HF             //
    Molecular point group: c1
  Charge       = 0
  Multiplicity = 1
  Basis Set: AUG-CC-PVDZ
    Blend: AUG-CC-PVDZ
  Basis Set: (AUG-CC-PVDZ AUX)
    Blend: AUG-CC-PVDZ-JKFIT
  @DF-RHF Final Energy:  -362.11018114133907
    Total Energy =                       -362.1101811413390692
  //            Monomer A HF           //
    Molecular point group: c1
  Multiplicity = 1
  Basis Set: AUG-CC-PVDZ
    Blend: AUG-CC-PVDZ
  Basis Set: (AUG-CC-PVDZ AUX)
    Blend: AUG-CC-PVDZ-JKFIT
  @DF-RHF Final Energy:  -115.06110547518425
    Total Energy =                       -115.0611054751842488
  //            Monomer B HF           //
    Molecular point group: c1

    Geometry (in Angstrom), charge = 0, multiplicity = 1:

       Center              X                  Y                   Z               Mass
    ------------   -----------------  -----------------  -----------------  -----------------
      Gh(O)          -2.754124911124    -0.523344418019    -1.079999470162    15.994914619570
      Gh(H)          -1.834214911124    -0.693364418019    -0.821549470162     1.007825032230
      Gh(C)          -3.567514911124    -1.047644418019    -0.053039470162    12.000000000000
      Gh(H)          -4.602834911124    -0.845184418019    -0.316189470162     1.007825032230
      Gh(H)          -3.453084911124    -2.128304418019     0.060950529838     1.007825032230
      Gh(H)          -3.369974911124    -0.581964418019     0.917050529838     1.007825032230
         C           -0.013974911124     1.601605581981     0.577240529838    12.000000000000
         H            0.492415088876     2.563055581981     0.542370529838     1.007825032230
         H           -0.424524911124     1.455475581981     1.575120529838     1.007825032230
         H           -0.843624911124     1.592095581981    -0.124259470162     1.007825032230
         C            0.901655088876     0.446665581981     0.261330529838    12.000000000000
         O            0.477455088876    -0.673244418019    -0.023759470162    15.994914619570
         N            2.227785088876     0.708395581981     0.320530529838    14.003074004430
         H            2.525805088876     1.618815581981     0.618210529838     1.007825032230
         C            3.210195088876    -0.331724418019     0.097780529838    12.000000000000
         H            2.853635088876    -0.982654418019    -0.694389470162     1.007825032230
         H            4.150565088876     0.121805581981    -0.200729470162     1.007825032230
         H            3.369705088876    -0.936244418019     0.989860529838     1.007825032230

  Charge       = 0
  Multiplicity = 1
  Basis Set: AUG-CC-PVDZ
    Blend: AUG-CC-PVDZ
  Basis Set: (AUG-CC-PVDZ AUX)
    Blend: AUG-CC-PVDZ-JKFIT

    Orbital Energies [Eh]
    ---------------------

    Doubly Occupied:

       1A    -20.519751     2A    -15.593723     3A    -11.353658
       4A    -11.264761     5A    -11.242587     6A     -1.374713
       7A     -1.232858     8A     -1.021296     9A     -0.935076
      10A     -0.792083    11A     -0.690740    12A     -0.651925
      13A     -0.633885    14A     -0.585051    15A     -0.578242
      16A     -0.557426    17A     -0.547127    18A     -0.499401
      19A     -0.419097    20A     -0.390152

  @DF-RHF Final Energy:  -247.04194701435733

   => Energetics <=

    Nuclear Repulsion Energy =            180.7387064981919309
    One-Electron Energy =                -693.7942046791974917
    Two-Electron Energy =                 266.0135511666481989
    Total Energy =                       -247.0419470143573335

  Dipole Moment: [D]
     X:     2.2295      Y:     3.4548      Z:     1.0179     Total:     4.2358

    SAPT Results
  --------------------------------------------------------------------------------------------------------
    Electrostatics                 -7.83376920 [mEh]      -4.91576439 [kcal/mol]     -20.56755821 [kJ/mol]
      Elst10,r                     -8.36946941 [mEh]      -5.25192135 [kcal/mol]     -21.97403891 [kJ/mol]
      Elst12,r                      0.53570021 [mEh]       0.33615696 [kcal/mol]       1.40648071 [kJ/mol]

    Exchange                        3.54213149 [mEh]       2.22272107 [kcal/mol]       9.29986495 [kJ/mol]
      Exch10                        2.67922928 [mEh]       1.68124175 [kcal/mol]       7.03431550 [kJ/mol]
      Exch10(S^2)                   2.67505220 [mEh]       1.67862060 [kcal/mol]       7.02334859 [kJ/mol]
      Exch11(S^2)                  -0.00799332 [mEh]      -0.00501588 [kcal/mol]      -0.02098646 [kJ/mol]
      Exch12(S^2)                   0.87089553 [mEh]       0.54649520 [kcal/mol]       2.28653591 [kJ/mol]

    Induction                      -1.61373679 [mEh]      -1.01263512 [kcal/mol]      -4.23686536 [kJ/mol]
      Ind20,r                      -1.61866832 [mEh]      -1.01572970 [kcal/mol]      -4.24981308 [kJ/mol]
      Ind22                        -0.26690678 [mEh]      -0.16748654 [kcal/mol]      -0.70076367 [kJ/mol]
      Exch-Ind20,r                  0.55540111 [mEh]       0.34851946 [kcal/mol]       1.45820542 [kJ/mol]
      Exch-Ind22                    0.09158166 [mEh]       0.05746836 [kcal/mol]       0.24044760 [kJ/mol]
      delta HF,r (2)               -0.37514446 [mEh]      -0.23540670 [kcal/mol]      -0.98494164 [kJ/mol]

    Dispersion                     -3.08882776 [mEh]      -1.93826868 [kcal/mol]      -8.10971617 [kJ/mol]
      Disp20                       -2.84570468 [mEh]      -1.78570664 [kcal/mol]      -7.47139660 [kJ/mol]
      Disp21                        0.17119664 [mEh]       0.10742751 [kcal/mol]       0.44947671 [kJ/mol]
      Disp22 (SDQ)                 -0.13507606 [mEh]      -0.08476151 [kcal/mol]      -0.35464216 [kJ/mol]
      Disp22 (T)                   -0.48068077 [mEh]      -0.30163174 [kcal/mol]      -1.26202718 [kJ/mol]
      Est. Disp22 (T)              -0.52113400 [mEh]      -0.32701652 [kcal/mol]      -1.36823712 [kJ/mol]
      Exch-Disp20                   0.24189034 [mEh]       0.15178848 [kcal/mol]       0.63508299 [kJ/mol]

  Total HF                         -7.12865180 [mEh]      -4.47329654 [kcal/mol]     -18.71627272 [kJ/mol]
  Total SAPT0                      -9.73246614 [mEh]      -6.10721470 [kcal/mol]     -25.55258632 [kJ/mol]
  Total SAPT2                      -8.50918884 [mEh]      -5.33959661 [kcal/mol]     -22.34087222 [kJ/mol]
  Total SAPT2+                     -8.99420227 [mEh]      -5.64394713 [kcal/mol]     -23.61427479 [kJ/mol]

  Special recipe for scaled SAPT0 (see Manual):
    Electrostatics sSAPT0          -8.36946941 [mEh]      -5.25192135 [kcal/mol]     -21.97403891 [kJ/mol]
    Exchange sSAPT0                 2.67922928 [mEh]       1.68124175 [kcal/mol]       7.03431550 [kJ/mol]
    Induction sSAPT0               -1.43580583 [mEh]      -0.90098176 [kcal/mol]      -3.76970770 [kJ/mol]
    Dispersion sSAPT0              -2.60267944 [mEh]      -1.63320600 [kcal/mol]      -6.83333392 [kJ/mol]
  Total sSAPT0                     -9.72872541 [mEh]      -6.10486736 [kcal/mol]     -25.54276504 [kJ/mol]
  --------------------------------------------------------------------------------------------------------

*** Psi4 exiting successfully. Buy a developer a beer!
