                               Psi4 1.4a2.dev224

  ==> Input File <==

--------------------------------------------------------------------------
#Generated by lconvert.py for sapt job

memory 20 GB

molecule  {
0 1
  O      -0.786560    0.045170   -0.007190
  H       0.177710    0.012700   -0.006830
  C      -1.247990   -1.290280    0.001080
  H      -2.334280   -1.258900    0.000220
  H      -0.925970   -1.849770   -0.880450
  H      -0.927030   -1.838460    0.890080
--
0 1
  O       3.352430   -0.091490   -0.003430
  H       3.791640    0.296660   -0.763300
  H       3.790320    0.311110    0.749660
units angstrom
no_reorient
symmetry c1
}

set {
scf_type DF
basis aug-cc-pvdz
freeze_core True
guess SAD
}
energy('sapt2+')
--------------------------------------------------------------------------

  //              Dimer HF             //
    Molecular point group: c1
  Charge       = 0
  Multiplicity = 1
  Basis Set: AUG-CC-PVDZ
    Blend: AUG-CC-PVDZ
  Basis Set: (AUG-CC-PVDZ AUX)
    Blend: AUG-CC-PVDZ-JKFIT
  @DF-RHF Final Energy:  -191.10530910802993
    Total Energy =                       -191.1053091080299282
  //            Monomer A HF           //
    Molecular point group: c1
  Multiplicity = 1
  Basis Set: AUG-CC-PVDZ
    Blend: AUG-CC-PVDZ
  Basis Set: (AUG-CC-PVDZ AUX)
    Blend: AUG-CC-PVDZ-JKFIT
  @DF-RHF Final Energy:  -115.06126430997055
    Total Energy =                       -115.0612643099705537
  //            Monomer B HF           //
    Molecular point group: c1

    Geometry (in Angstrom), charge = 0, multiplicity = 1:

       Center              X                  Y                   Z               Mass
    ------------   -----------------  -----------------  -----------------  -----------------
      Gh(O)          -1.379430603949     0.456562598256    -0.003840282112    15.994914619570
      Gh(H)          -0.415160603949     0.424092598256    -0.003480282112     1.007825032230
      Gh(C)          -1.840860603949    -0.878887401744     0.004429717888    12.000000000000
      Gh(H)          -2.927150603949    -0.847507401744     0.003569717888     1.007825032230
      Gh(H)          -1.518840603949    -1.438377401744    -0.877100282112     1.007825032230
      Gh(H)          -1.519900603949    -1.427067401744     0.893429717888     1.007825032230
         O            2.759559396051     0.319902598256    -0.000080282112    15.994914619570
         H            3.198769396051     0.708052598256    -0.759950282112     1.007825032230
         H            3.197449396051     0.722502598256     0.753009717888     1.007825032230

  Charge       = 0
  Multiplicity = 1
  Basis Set: AUG-CC-PVDZ
    Blend: AUG-CC-PVDZ
  Basis Set: (AUG-CC-PVDZ AUX)
    Blend: AUG-CC-PVDZ-JKFIT

    Orbital Energies [Eh]
    ---------------------

    Doubly Occupied:

       1A    -20.577907     2A     -1.355733     3A     -0.717070
       4A     -0.586093     5A     -0.509356

  @DF-RHF Final Energy:   -76.04129573790190

   => Energetics <=

    Nuclear Repulsion Energy =              9.1723657144482456
    One-Electron Energy =                -122.9350060262030411
    Two-Electron Energy =                  37.7213445738528890
    Total Energy =                        -76.0412957379019048

  Dipole Moment: [D]
     X:     1.4912      Y:     1.3457      Z:    -0.0115     Total:     2.0086

    SAPT Results
  --------------------------------------------------------------------------------------------------------
    Electrostatics                 -2.48187697 [mEh]      -1.55740131 [kcal/mol]      -6.51616708 [kJ/mol]
      Elst10,r                     -2.70665342 [mEh]      -1.69845066 [kcal/mol]      -7.10631757 [kJ/mol]
      Elst12,r                      0.22477645 [mEh]       0.14104935 [kcal/mol]       0.59015049 [kJ/mol]

    Exchange                        0.16360792 [mEh]       0.10266552 [kcal/mol]       0.42955254 [kJ/mol]
      Exch10                        0.11703393 [mEh]       0.07343990 [kcal/mol]       0.30727254 [kJ/mol]
      Exch10(S^2)                   0.11701949 [mEh]       0.07343084 [kcal/mol]       0.30723464 [kJ/mol]
      Exch11(S^2)                  -0.00100194 [mEh]      -0.00062872 [kcal/mol]      -0.00263059 [kJ/mol]
      Exch12(S^2)                   0.04757593 [mEh]       0.02985435 [kcal/mol]       0.12491059 [kJ/mol]

    Induction                      -0.16865614 [mEh]      -0.10583333 [kcal/mol]      -0.44280665 [kJ/mol]
      Ind20,r                      -0.15830566 [mEh]      -0.09933830 [kcal/mol]      -0.41563145 [kJ/mol]
      Ind22                        -0.01024472 [mEh]      -0.00642866 [kcal/mol]      -0.02689750 [kJ/mol]
      Exch-Ind20,r                  0.01590427 [mEh]       0.00998008 [kcal/mol]       0.04175666 [kJ/mol]
      Exch-Ind22                    0.00102924 [mEh]       0.00064586 [kcal/mol]       0.00270227 [kJ/mol]
      delta HF,r (2)               -0.01703928 [mEh]      -0.01069231 [kcal/mol]      -0.04473663 [kJ/mol]

    Dispersion                     -0.42541818 [mEh]      -0.26695394 [kcal/mol]      -1.11693527 [kJ/mol]
      Disp20                       -0.36979461 [mEh]      -0.23204962 [kcal/mol]      -0.97089562 [kJ/mol]
      Disp21                        0.01367013 [mEh]       0.00857814 [kcal/mol]       0.03589093 [kJ/mol]
      Disp22 (SDQ)                 -0.01724677 [mEh]      -0.01082251 [kcal/mol]      -0.04528140 [kJ/mol]
      Disp22 (T)                   -0.05914403 [mEh]      -0.03711344 [kcal/mol]      -0.15528263 [kJ/mol]
      Est. Disp22 (T)              -0.06280648 [mEh]      -0.03941166 [kcal/mol]      -0.16489839 [kJ/mol]
      Exch-Disp20                   0.01075955 [mEh]       0.00675172 [kcal/mol]       0.02824921 [kJ/mol]

  Total HF                         -2.74906016 [mEh]      -1.72506129 [kcal/mol]      -7.21765645 [kJ/mol]
  Total SAPT0                      -3.10809522 [mEh]      -1.95035919 [kcal/mol]      -8.16030286 [kJ/mol]
  Total SAPT2                      -2.84596025 [mEh]      -1.78586702 [kcal/mol]      -7.47206760 [kJ/mol]
  Total SAPT2+                     -2.91234337 [mEh]      -1.82752306 [kcal/mol]      -7.64635646 [kJ/mol]

  Special recipe for scaled SAPT0 (see Manual):
    Electrostatics sSAPT0          -2.70665342 [mEh]      -1.69845066 [kcal/mol]      -7.10631757 [kJ/mol]
    Exchange sSAPT0                 0.11703393 [mEh]       0.07343990 [kcal/mol]       0.30727254 [kJ/mol]
    Induction sSAPT0               -0.15943478 [mEh]      -0.10004684 [kcal/mol]      -0.41859596 [kJ/mol]
    Dispersion sSAPT0              -0.35903108 [mEh]      -0.22529540 [kcal/mol]      -0.94263596 [kJ/mol]
  Total sSAPT0                     -3.10808535 [mEh]      -1.95035300 [kcal/mol]      -8.16027695 [kJ/mol]
  --------------------------------------------------------------------------------------------------------

*** Psi4 exiting successfully. Buy a developer a beer!
