                               Psi4 1.4a2.dev224

  ==> Input File <==

--------------------------------------------------------------------------
#Generated by lconvert.py for sapt job

memory 20 GB

molecule  {
0 1
  O      -0.786560    0.045170   -0.007190
  H       0.177710    0.012700   -0.006830
  C      -1.247990   -1.290280    0.001080
  H      -2.334280   -1.258900    0.000220
  H      -0.925970   -1.849770   -0.880450
  H      -0.927030   -1.838460    0.890080
--
0 1
  O       3.947670   -0.111030   -0.002790
  H       4.386880    0.277120   -0.762660
  H       4.385560    0.291570    0.750300
units angstrom
no_reorient
symmetry c1
}

set {
scf_type DF
basis aug-cc-pvdz
freeze_core True
guess SAD
}
energy('sapt2+')
--------------------------------------------------------------------------

  //              Dimer HF             //
    Molecular point group: c1
  Charge       = 0
  Multiplicity = 1
  Basis Set: AUG-CC-PVDZ
    Blend: AUG-CC-PVDZ
  Basis Set: (AUG-CC-PVDZ AUX)
    Blend: AUG-CC-PVDZ-JKFIT
  @DF-RHF Final Energy:  -191.10421547348386
    Total Energy =                       -191.1042154734838618
  //            Monomer A HF           //
    Molecular point group: c1
  Multiplicity = 1
  Basis Set: AUG-CC-PVDZ
    Blend: AUG-CC-PVDZ
  Basis Set: (AUG-CC-PVDZ AUX)
    Blend: AUG-CC-PVDZ-JKFIT
  @DF-RHF Final Energy:  -115.06125411781359
    Total Energy =                       -115.0612541178135899
  //            Monomer B HF           //
    Molecular point group: c1

    Geometry (in Angstrom), charge = 0, multiplicity = 1:

       Center              X                  Y                   Z               Mass
    ------------   -----------------  -----------------  -----------------  -----------------
      Gh(O)          -1.593685171171     0.463595953279    -0.004070647886    15.994914619570
      Gh(H)          -0.629415171171     0.431125953279    -0.003710647886     1.007825032230
      Gh(C)          -2.055115171171    -0.871854046721     0.004199352114    12.000000000000
      Gh(H)          -3.141405171171    -0.840474046721     0.003339352114     1.007825032230
      Gh(H)          -1.733095171171    -1.431344046721    -0.877330647886     1.007825032230
      Gh(H)          -1.734155171171    -1.420034046721     0.893199352114     1.007825032230
         O            3.140544828829     0.307395953279     0.000329352114    15.994914619570
         H            3.579754828829     0.695545953279    -0.759540647886     1.007825032230
         H            3.578434828829     0.709995953279     0.753419352114     1.007825032230

  Charge       = 0
  Multiplicity = 1
  Basis Set: AUG-CC-PVDZ
    Blend: AUG-CC-PVDZ
  Basis Set: (AUG-CC-PVDZ AUX)
    Blend: AUG-CC-PVDZ-JKFIT

    Orbital Energies [Eh]
    ---------------------

    Doubly Occupied:

       1A    -20.577897     2A     -1.355727     3A     -0.717071
       4A     -0.586090     5A     -0.509365

  @DF-RHF Final Energy:   -76.04126522825003

   => Energetics <=

    Nuclear Repulsion Energy =              9.1723657144482456
    One-Electron Energy =                -122.9349609126696947
    Two-Electron Energy =                  37.7213299699714213
    Total Energy =                        -76.0412652282500261

  Dipole Moment: [D]
     X:     1.4905      Y:     1.3467      Z:    -0.0116     Total:     2.0088

    SAPT Results
  --------------------------------------------------------------------------------------------------------
    Electrostatics                 -1.49730950 [mEh]      -0.93957590 [kcal/mol]      -3.93118556 [kJ/mol]
      Elst10,r                     -1.65142865 [mEh]      -1.03628712 [kcal/mol]      -4.33582532 [kJ/mol]
      Elst12,r                      0.15411914 [mEh]       0.09671122 [kcal/mol]       0.40463976 [kJ/mol]

    Exchange                        0.01868094 [mEh]       0.01172247 [kcal/mol]       0.04904680 [kJ/mol]
      Exch10                        0.01241268 [mEh]       0.00778908 [kcal/mol]       0.03258950 [kJ/mol]
      Exch10(S^2)                   0.01241248 [mEh]       0.00778895 [kcal/mol]       0.03258897 [kJ/mol]
      Exch11(S^2)                  -0.00020622 [mEh]      -0.00012940 [kcal/mol]      -0.00054143 [kJ/mol]
      Exch12(S^2)                   0.00647448 [mEh]       0.00406279 [kcal/mol]       0.01699873 [kJ/mol]

    Induction                      -0.05783113 [mEh]      -0.03628958 [kcal/mol]      -0.15183560 [kJ/mol]
      Ind20,r                      -0.05543896 [mEh]      -0.03478847 [kcal/mol]      -0.14555497 [kJ/mol]
      Ind22                        -0.00073903 [mEh]      -0.00046375 [kcal/mol]      -0.00194032 [kJ/mol]
      Exch-Ind20,r                  0.00145223 [mEh]       0.00091129 [kcal/mol]       0.00381283 [kJ/mol]
      Exch-Ind22                    0.00001936 [mEh]       0.00001215 [kcal/mol]       0.00005083 [kJ/mol]
      delta HF,r (2)               -0.00312473 [mEh]      -0.00196080 [kcal/mol]      -0.00820398 [kJ/mol]

    Dispersion                     -0.17289560 [mEh]      -0.10849363 [kcal/mol]      -0.45393735 [kJ/mol]
      Disp20                       -0.15121238 [mEh]      -0.09488720 [kcal/mol]      -0.39700805 [kJ/mol]
      Disp21                        0.00820368 [mEh]       0.00514789 [kcal/mol]       0.02153876 [kJ/mol]
      Disp22 (SDQ)                 -0.00581483 [mEh]      -0.00364886 [kcal/mol]      -0.01526682 [kJ/mol]
      Disp22 (T)                   -0.02461739 [mEh]      -0.01544764 [kcal/mol]      -0.06463294 [kJ/mol]
      Est. Disp22 (T)              -0.02551178 [mEh]      -0.01600888 [kcal/mol]      -0.06698116 [kJ/mol]
      Exch-Disp20                   0.00143970 [mEh]       0.00090343 [kcal/mol]       0.00377993 [kJ/mol]

  Total HF                         -1.69612742 [mEh]      -1.06433602 [kcal/mol]      -4.45318193 [kJ/mol]
  Total SAPT0                      -1.84590010 [mEh]      -1.15831980 [kcal/mol]      -4.84641004 [kJ/mol]
  Total SAPT2                      -1.68623237 [mEh]      -1.05812679 [kcal/mol]      -4.42720247 [kJ/mol]
  Total SAPT2+                     -1.70935529 [mEh]      -1.07263664 [kcal/mol]      -4.48791170 [kJ/mol]

  Special recipe for scaled SAPT0 (see Manual):
    Electrostatics sSAPT0          -1.65142865 [mEh]      -1.03628712 [kcal/mol]      -4.33582532 [kJ/mol]
    Exchange sSAPT0                 0.01241268 [mEh]       0.00778908 [kcal/mol]       0.03258950 [kJ/mol]
    Induction sSAPT0               -0.05711139 [mEh]      -0.03583794 [kcal/mol]      -0.14994592 [kJ/mol]
    Dispersion sSAPT0              -0.14977261 [mEh]      -0.09398373 [kcal/mol]      -0.39322793 [kJ/mol]
  Total sSAPT0                     -1.84589996 [mEh]      -1.15831971 [kcal/mol]      -4.84640967 [kJ/mol]
  --------------------------------------------------------------------------------------------------------

*** Psi4 exiting successfully. Buy a developer a beer!
