                               Psi4 1.4a2.dev224

  ==> Input File <==

--------------------------------------------------------------------------
#Generated by lconvert.py for sapt job

memory 20 GB

molecule  {
0 1
  O      -0.786560    0.045170   -0.007190
  H       0.177710    0.012700   -0.006830
  C      -1.247990   -1.290280    0.001080
  H      -2.334280   -1.258900    0.000220
  H      -0.925970   -1.849770   -0.880450
  H      -0.927030   -1.838460    0.890080
--
0 1
  O       2.757190   -0.071960   -0.004070
  H       3.196390    0.316200   -0.763940
  H       3.195080    0.330650    0.749020
units angstrom
no_reorient
symmetry c1
}

set {
scf_type DF
basis aug-cc-pvdz
freeze_core True
guess SAD
}
energy('sapt2+')
--------------------------------------------------------------------------

  //              Dimer HF             //
    Molecular point group: c1
  Charge       = 0
  Multiplicity = 1
  Basis Set: AUG-CC-PVDZ
    Blend: AUG-CC-PVDZ
  Basis Set: (AUG-CC-PVDZ AUX)
    Blend: AUG-CC-PVDZ-JKFIT
  @DF-RHF Final Energy:  -191.10721615056494
    Total Energy =                       -191.1072161505649376
  //            Monomer A HF           //
    Molecular point group: c1
  Multiplicity = 1
  Basis Set: AUG-CC-PVDZ
    Blend: AUG-CC-PVDZ
  Basis Set: (AUG-CC-PVDZ AUX)
    Blend: AUG-CC-PVDZ-JKFIT
  @DF-RHF Final Energy:  -115.06128298663863
    Total Energy =                       -115.0612829866386306
  //            Monomer B HF           //
    Molecular point group: c1

    Geometry (in Angstrom), charge = 0, multiplicity = 1:

       Center              X                  Y                   Z               Mass
    ------------   -----------------  -----------------  -----------------  -----------------
      Gh(O)          -1.165175835309     0.449532439866    -0.003609916339    15.994914619570
      Gh(H)          -0.200905835309     0.417062439866    -0.003249916339     1.007825032230
      Gh(C)          -1.626605835309    -0.885917560134     0.004660083661    12.000000000000
      Gh(H)          -2.712895835309    -0.854537560134     0.003800083661     1.007825032230
      Gh(H)          -1.304585835309    -1.445407560134    -0.876869916339     1.007825032230
      Gh(H)          -1.305645835309    -1.434097560134     0.893660083661     1.007825032230
         O            2.378574164691     0.332402439866    -0.000489916339    15.994914619570
         H            2.817774164691     0.720562439866    -0.760359916339     1.007825032230
         H            2.816464164691     0.735012439866     0.752600083661     1.007825032230

  Charge       = 0
  Multiplicity = 1
  Basis Set: AUG-CC-PVDZ
    Blend: AUG-CC-PVDZ
  Basis Set: (AUG-CC-PVDZ AUX)
    Blend: AUG-CC-PVDZ-JKFIT

    Orbital Energies [Eh]
    ---------------------

    Doubly Occupied:

       1A    -20.577904     2A     -1.355700     3A     -0.717009
       4A     -0.586042     5A     -0.509333

  @DF-RHF Final Energy:   -76.04136914276451

   => Energetics <=

    Nuclear Repulsion Energy =              9.1723488778788749
    One-Electron Energy =                -122.9354578623639611
    Two-Electron Energy =                  37.7217398417205771
    Total Energy =                        -76.0413691427645091

  Dipole Moment: [D]
     X:     1.4874      Y:     1.3438      Z:    -0.0115     Total:     2.0045

    SAPT Results
  --------------------------------------------------------------------------------------------------------
    Electrostatics                 -4.74469507 [mEh]      -2.97734111 [kcal/mol]     -12.45719520 [kJ/mol]
      Elst10,r                     -5.03469771 [mEh]      -3.15932051 [kcal/mol]     -13.21859702 [kJ/mol]
      Elst12,r                      0.29000264 [mEh]       0.18197940 [kcal/mol]       0.76140182 [kJ/mol]

    Exchange                        1.39571561 [mEh]       0.87582477 [kcal/mol]       3.66445083 [kJ/mol]
      Exch10                        1.07174361 [mEh]       0.67252927 [kcal/mol]       2.81386247 [kJ/mol]
      Exch10(S^2)                   1.07077357 [mEh]       0.67192056 [kcal/mol]       2.81131563 [kJ/mol]
      Exch11(S^2)                  -0.00232729 [mEh]      -0.00146039 [kcal/mol]      -0.00611029 [kJ/mol]
      Exch12(S^2)                   0.32629928 [mEh]       0.20475589 [kcal/mol]       0.85669865 [kJ/mol]

    Induction                      -0.66377161 [mEh]      -0.41652297 [kcal/mol]      -1.74273211 [kJ/mol]
      Ind20,r                      -0.63610942 [mEh]      -0.39916469 [kcal/mol]      -1.67010506 [kJ/mol]
      Ind22                        -0.08686958 [mEh]      -0.05451148 [kcal/mol]      -0.22807605 [kJ/mol]
      Exch-Ind20,r                  0.17695040 [mEh]       0.11103806 [kcal/mol]       0.46458322 [kJ/mol]
      Exch-Ind22                    0.02416504 [mEh]       0.01516379 [kcal/mol]       0.06344529 [kJ/mol]
      delta HF,r (2)               -0.14190804 [mEh]      -0.08904864 [kcal/mol]      -0.37257952 [kJ/mol]

    Dispersion                     -1.18398965 [mEh]      -0.74296472 [kcal/mol]      -3.10856439 [kJ/mol]
      Disp20                       -1.06061961 [mEh]      -0.66554885 [kcal/mol]      -2.78465639 [kJ/mol]
      Disp21                        0.02836420 [mEh]       0.01779880 [kcal/mol]       0.07447019 [kJ/mol]
      Disp22 (SDQ)                 -0.05424283 [mEh]      -0.03403789 [kcal/mol]      -0.14241454 [kJ/mol]
      Disp22 (T)                   -0.16277338 [mEh]      -0.10214184 [kcal/mol]      -0.42736146 [kJ/mol]
      Est. Disp22 (T)              -0.17903834 [mEh]      -0.11234825 [kcal/mol]      -0.47006510 [kJ/mol]
      Exch-Disp20                   0.08154693 [mEh]       0.05117147 [kcal/mol]       0.21410145 [kJ/mol]

  Total HF                         -4.56402116 [mEh]      -2.86396652 [kcal/mol]     -11.98283591 [kJ/mol]
  Total SAPT0                      -5.54309383 [mEh]      -3.47834389 [kcal/mol]     -14.55339086 [kJ/mol]
  Total SAPT2                      -4.99182374 [mEh]      -3.13241669 [kcal/mol]     -13.10603143 [kJ/mol]
  Total SAPT2+                     -5.19674072 [mEh]      -3.26100403 [kcal/mol]     -13.64404088 [kJ/mol]

  Special recipe for scaled SAPT0 (see Manual):
    Electrostatics sSAPT0          -5.03469771 [mEh]      -3.15932051 [kcal/mol]     -13.21859702 [kJ/mol]
    Exchange sSAPT0                 1.07174361 [mEh]       0.67252927 [kcal/mol]       2.81386247 [kJ/mol]
    Induction sSAPT0               -0.60058572 [mEh]      -0.37687323 [kcal/mol]      -1.57683758 [kJ/mol]
    Dispersion sSAPT0              -0.97885085 [mEh]      -0.61423818 [kcal/mol]      -2.56997254 [kJ/mol]
  Total sSAPT0                     -5.54239066 [mEh]      -3.47790265 [kcal/mol]     -14.55154468 [kJ/mol]
  --------------------------------------------------------------------------------------------------------

*** Psi4 exiting successfully. Buy a developer a beer!
