                               Psi4 1.4a2.dev224

  ==> Input File <==

--------------------------------------------------------------------------
#Generated by lconvert.py for sapt job

memory 20 GB

molecule  {
0 1
  N      -0.893450   -0.043840   -0.043000
  H       0.096950   -0.256060   -0.071070
  H      -1.368440   -0.933390    0.033840
  C      -1.175780    0.757910    1.145240
  H      -2.241630    0.972220    1.195030
  H      -0.880790    0.304250    2.097210
  H      -0.663010    1.714330    1.060810
--
0 1
  O       4.372200    0.151590    0.122210
  H       4.654230    0.521540   -0.717660
  C       4.758120    1.063180    1.141640
  H       4.434930    0.633550    2.084710
  H       5.839170    1.202260    1.180680
  H       4.279640    2.036780    1.026470
units angstrom
no_reorient
symmetry c1
}

set {
scf_type DF
basis aug-cc-pvdz
freeze_core True
guess SAD
}
energy('sapt2+')
--------------------------------------------------------------------------

  //              Dimer HF             //
    Molecular point group: c1
  Charge       = 0
  Multiplicity = 1
  Basis Set: AUG-CC-PVDZ
    Blend: AUG-CC-PVDZ
  Basis Set: (AUG-CC-PVDZ AUX)
    Blend: AUG-CC-PVDZ-JKFIT
  @DF-RHF Final Energy:  -210.29267381472360
    Total Energy =                       -210.2926738147235994
  //            Monomer A HF           //
    Molecular point group: c1
  Multiplicity = 1
  Basis Set: AUG-CC-PVDZ
    Blend: AUG-CC-PVDZ
  Basis Set: (AUG-CC-PVDZ AUX)
    Blend: AUG-CC-PVDZ-JKFIT
  @DF-RHF Final Energy:   -95.23059578110596
    Total Energy =                        -95.2305957811059614
  //            Monomer B HF           //
    Molecular point group: c1

    Geometry (in Angstrom), charge = 0, multiplicity = 1:

       Center              X                  Y                   Z               Mass
    ------------   -----------------  -----------------  -----------------  -----------------
      Gh(N)          -2.711662549455    -0.518052245360    -0.625651817506    14.003074004430
      Gh(H)          -1.721262549455    -0.730272245360    -0.653721817506     1.007825032230
      Gh(H)          -3.186652549455    -1.407602245360    -0.548811817506     1.007825032230
      Gh(C)          -2.993992549455     0.283697754640     0.562588182494    12.000000000000
      Gh(H)          -4.059842549455     0.498007754640     0.612378182494     1.007825032230
      Gh(H)          -2.699002549455    -0.169962245360     1.514558182494     1.007825032230
      Gh(H)          -2.481222549455     1.240117754640     0.478158182494     1.007825032230
         O            2.553987450545    -0.322622245360    -0.460441817506    15.994914619570
         H            2.836017450545     0.047327754640    -1.300311817506     1.007825032230
         C            2.939907450545     0.588967754640     0.558988182494    12.000000000000
         H            2.616717450545     0.159337754640     1.502058182494     1.007825032230
         H            4.020957450545     0.728047754640     0.598028182494     1.007825032230
         H            2.461427450545     1.562567754640     0.443818182494     1.007825032230

  Charge       = 0
  Multiplicity = 1
  Basis Set: AUG-CC-PVDZ
    Blend: AUG-CC-PVDZ
  Basis Set: (AUG-CC-PVDZ AUX)
    Blend: AUG-CC-PVDZ-JKFIT

    Orbital Energies [Eh]
    ---------------------

    Doubly Occupied:

       1A    -20.568928     2A    -11.278445     3A     -1.361592
       4A     -0.927960     5A     -0.692347     6A     -0.620392
       7A     -0.593542     8A     -0.505035     9A     -0.451064

  @DF-RHF Final Energy:  -115.06146160419591

   => Energetics <=

    Nuclear Repulsion Energy =             40.3470521683313592
    One-Electron Energy =                -236.8184177287801617
    Two-Electron Energy =                  81.4099039562529043
    Total Energy =                       -115.0614616041959124

  Dipole Moment: [D]
     X:     0.8686      Y:     1.5874      Z:    -0.2084     Total:     1.8214

    SAPT Results
  --------------------------------------------------------------------------------------------------------
    Electrostatics                 -0.55710847 [mEh]      -0.34959084 [kcal/mol]      -1.46268808 [kJ/mol]
      Elst10,r                     -0.59715238 [mEh]      -0.37471877 [kcal/mol]      -1.56782335 [kJ/mol]
      Elst12,r                      0.04004391 [mEh]       0.02512793 [kcal/mol]       0.10513527 [kJ/mol]

    Exchange                        0.00518535 [mEh]       0.00325386 [kcal/mol]       0.01361414 [kJ/mol]
      Exch10                        0.00332809 [mEh]       0.00208841 [kcal/mol]       0.00873790 [kJ/mol]
      Exch10(S^2)                   0.00332808 [mEh]       0.00208840 [kcal/mol]       0.00873786 [kJ/mol]
      Exch11(S^2)                  -0.00015509 [mEh]      -0.00009732 [kcal/mol]      -0.00040719 [kJ/mol]
      Exch12(S^2)                   0.00201235 [mEh]       0.00126277 [kcal/mol]       0.00528343 [kJ/mol]

    Induction                      -0.02213581 [mEh]      -0.01389043 [kcal/mol]      -0.05811756 [kJ/mol]
      Ind20,r                      -0.02221441 [mEh]      -0.01393975 [kcal/mol]      -0.05832392 [kJ/mol]
      Ind22                         0.00047643 [mEh]       0.00029896 [kcal/mol]       0.00125086 [kJ/mol]
      Exch-Ind20,r                  0.00033107 [mEh]       0.00020775 [kcal/mol]       0.00086923 [kJ/mol]
      Exch-Ind22                   -0.00000710 [mEh]      -0.00000446 [kcal/mol]      -0.00001864 [kJ/mol]
      delta HF,r (2)               -0.00072180 [mEh]      -0.00045294 [kcal/mol]      -0.00189509 [kJ/mol]

    Dispersion                     -0.18626532 [mEh]      -0.11688325 [kcal/mol]      -0.48903953 [kJ/mol]
      Disp20                       -0.17404310 [mEh]      -0.10921369 [kcal/mol]      -0.45695008 [kJ/mol]
      Disp21                        0.01408111 [mEh]       0.00883603 [kcal/mol]       0.03696996 [kJ/mol]
      Disp22 (SDQ)                 -0.00017614 [mEh]      -0.00011053 [kcal/mol]      -0.00046246 [kJ/mol]
      Disp22 (T)                   -0.02597244 [mEh]      -0.01629795 [kcal/mol]      -0.06819063 [kJ/mol]
      Est. Disp22 (T)              -0.02662762 [mEh]      -0.01670908 [kcal/mol]      -0.06991080 [kJ/mol]
      Exch-Disp20                   0.00050042 [mEh]       0.00031402 [kcal/mol]       0.00131385 [kJ/mol]

  Total HF                         -0.61642942 [mEh]      -0.38681530 [kcal/mol]      -1.61843522 [kJ/mol]
  Total SAPT0                      -0.78997210 [mEh]      -0.49571498 [kcal/mol]      -2.07407146 [kJ/mol]
  Total SAPT2                      -0.74760160 [mEh]      -0.46912709 [kcal/mol]      -1.96282774 [kJ/mol]
  Total SAPT2+                     -0.76032425 [mEh]      -0.47711067 [kcal/mol]      -1.99623104 [kJ/mol]

  Special recipe for scaled SAPT0 (see Manual):
    Electrostatics sSAPT0          -0.59715238 [mEh]      -0.37471877 [kcal/mol]      -1.56782335 [kJ/mol]
    Exchange sSAPT0                 0.00332809 [mEh]       0.00208841 [kcal/mol]       0.00873790 [kJ/mol]
    Induction sSAPT0               -0.02260514 [mEh]      -0.01418494 [kcal/mol]      -0.05934977 [kJ/mol]
    Dispersion sSAPT0              -0.17354268 [mEh]      -0.10889967 [kcal/mol]      -0.45563624 [kJ/mol]
  Total sSAPT0                     -0.78997210 [mEh]      -0.49571498 [kcal/mol]      -2.07407146 [kJ/mol]
  --------------------------------------------------------------------------------------------------------

*** Psi4 exiting successfully. Buy a developer a beer!
