                               Psi4 1.4a2.dev224

  ==> Input File <==

--------------------------------------------------------------------------
#Generated by lconvert.py for sapt job

memory 20 GB

molecule  {
0 1
  N      -0.893450   -0.043840   -0.043000
  H       0.096950   -0.256060   -0.071070
  H      -1.368440   -0.933390    0.033840
  C      -1.175780    0.757910    1.145240
  H      -2.241630    0.972220    1.195030
  H      -0.880790    0.304250    2.097210
  H      -0.663010    1.714330    1.060810
--
0 1
  O       3.697180    0.087230    0.091690
  H       3.979200    0.457180   -0.748170
  C       4.083090    0.998810    1.111130
  H       3.759910    0.569180    2.054190
  H       5.164150    1.137900    1.150170
  H       3.604620    1.972410    0.995950
units angstrom
no_reorient
symmetry c1
}

set {
scf_type DF
basis aug-cc-pvdz
freeze_core True
guess SAD
}
energy('sapt2+')
--------------------------------------------------------------------------

  //              Dimer HF             //
    Molecular point group: c1
  Charge       = 0
  Multiplicity = 1
  Basis Set: AUG-CC-PVDZ
    Blend: AUG-CC-PVDZ
  Basis Set: (AUG-CC-PVDZ AUX)
    Blend: AUG-CC-PVDZ-JKFIT
  @DF-RHF Final Energy:  -210.29314885431140
    Total Energy =                       -210.2931488543113971
  //            Monomer A HF           //
    Molecular point group: c1
  Multiplicity = 1
  Basis Set: AUG-CC-PVDZ
    Blend: AUG-CC-PVDZ
  Basis Set: (AUG-CC-PVDZ AUX)
    Blend: AUG-CC-PVDZ-JKFIT
  @DF-RHF Final Energy:   -95.23061492332383
    Total Energy =                        -95.2306149233238273
  //            Monomer B HF           //
    Molecular point group: c1

    Geometry (in Angstrom), charge = 0, multiplicity = 1:

       Center              X                  Y                   Z               Mass
    ------------   -----------------  -----------------  -----------------  -----------------
      Gh(N)          -2.368884537196    -0.485367939386    -0.610155947910    14.003074004430
      Gh(H)          -1.378484537196    -0.697587939386    -0.638225947910     1.007825032230
      Gh(H)          -2.843874537196    -1.374917939386    -0.533315947910     1.007825032230
      Gh(C)          -2.651214537196     0.316382060614     0.578084052090    12.000000000000
      Gh(H)          -3.717064537196     0.530692060614     0.627874052090     1.007825032230
      Gh(H)          -2.356224537196    -0.137277939386     1.530054052090     1.007825032230
      Gh(H)          -2.138444537196     1.272802060614     0.493654052090     1.007825032230
         O            2.221745462804    -0.354297939386    -0.475465947910    15.994914619570
         H            2.503765462804     0.015652060614    -1.315325947910     1.007825032230
         C            2.607655462804     0.557282060614     0.543974052090    12.000000000000
         H            2.284475462804     0.127652060614     1.487034052090     1.007825032230
         H            3.688715462804     0.696372060614     0.583014052090     1.007825032230
         H            2.129185462804     1.530882060614     0.428794052090     1.007825032230

  Charge       = 0
  Multiplicity = 1
  Basis Set: AUG-CC-PVDZ
    Blend: AUG-CC-PVDZ
  Basis Set: (AUG-CC-PVDZ AUX)
    Blend: AUG-CC-PVDZ-JKFIT

    Orbital Energies [Eh]
    ---------------------

    Doubly Occupied:

       1A    -20.568935     2A    -11.278418     3A     -1.361587
       4A     -0.927957     5A     -0.692345     6A     -0.620388
       7A     -0.593541     8A     -0.505032     9A     -0.451058

  @DF-RHF Final Energy:  -115.06149146778355

   => Energetics <=

    Nuclear Repulsion Energy =             40.3471522642164118
    One-Electron Energy =                -236.8187633617436063
    Two-Electron Energy =                  81.4101196297436331
    Total Energy =                       -115.0614914677835543

  Dipole Moment: [D]
     X:     0.8690      Y:     1.5871      Z:    -0.2086     Total:     1.8214

    SAPT Results
  --------------------------------------------------------------------------------------------------------
    Electrostatics                 -0.96427822 [mEh]      -0.60509372 [kcal/mol]      -2.53171213 [kJ/mol]
      Elst10,r                     -1.02018209 [mEh]      -0.64017393 [kcal/mol]      -2.67848771 [kJ/mol]
      Elst12,r                      0.05590387 [mEh]       0.03508021 [kcal/mol]       0.14677558 [kJ/mol]

    Exchange                        0.05687552 [mEh]       0.03568993 [kcal/mol]       0.14932665 [kJ/mol]
      Exch10                        0.03938318 [mEh]       0.02471332 [kcal/mol]       0.10340053 [kJ/mol]
      Exch10(S^2)                   0.03938167 [mEh]       0.02471237 [kcal/mol]       0.10339657 [kJ/mol]
      Exch11(S^2)                  -0.00129888 [mEh]      -0.00081506 [kcal/mol]      -0.00341020 [kJ/mol]
      Exch12(S^2)                   0.01879121 [mEh]       0.01179166 [kcal/mol]       0.04933633 [kJ/mol]

    Induction                      -0.06350102 [mEh]      -0.03984749 [kcal/mol]      -0.16672191 [kJ/mol]
      Ind20,r                      -0.06208603 [mEh]      -0.03895957 [kcal/mol]      -0.16300685 [kJ/mol]
      Ind22                        -0.00199167 [mEh]      -0.00124979 [kcal/mol]      -0.00522913 [kJ/mol]
      Exch-Ind20,r                  0.00483014 [mEh]       0.00303096 [kcal/mol]       0.01268153 [kJ/mol]
      Exch-Ind22                    0.00015495 [mEh]       0.00009723 [kcal/mol]       0.00040681 [kJ/mol]
      delta HF,r (2)               -0.00440841 [mEh]      -0.00276632 [kcal/mol]      -0.01157427 [kJ/mol]

    Dispersion                     -0.43652039 [mEh]      -0.27392068 [kcal/mol]      -1.14608412 [kJ/mol]
      Disp20                       -0.40260665 [mEh]      -0.25263949 [kcal/mol]      -1.05704362 [kJ/mol]
      Disp21                        0.02661670 [mEh]       0.01670223 [kcal/mol]       0.06988215 [kJ/mol]
      Disp22 (SDQ)                 -0.00342037 [mEh]      -0.00214631 [kcal/mol]      -0.00898017 [kJ/mol]
      Disp22 (T)                   -0.05972546 [mEh]      -0.03747829 [kcal/mol]      -0.15680917 [kJ/mol]
      Est. Disp22 (T)              -0.06213573 [mEh]      -0.03899076 [kcal/mol]      -0.16313733 [kJ/mol]
      Exch-Disp20                   0.00502566 [mEh]       0.00315365 [kcal/mol]       0.01319486 [kJ/mol]

  Total HF                         -1.04246320 [mEh]      -0.65415554 [kcal/mol]      -2.73698677 [kJ/mol]
  Total SAPT0                      -1.44004420 [mEh]      -0.90364138 [kcal/mol]      -3.78083553 [kJ/mol]
  Total SAPT2                      -1.36848472 [mEh]      -0.85873713 [kcal/mol]      -3.59295615 [kJ/mol]
  Total SAPT2+                     -1.40742411 [mEh]      -0.88317196 [kcal/mol]      -3.69519150 [kJ/mol]

  Special recipe for scaled SAPT0 (see Manual):
    Electrostatics sSAPT0          -1.02018209 [mEh]      -0.64017393 [kcal/mol]      -2.67848771 [kJ/mol]
    Exchange sSAPT0                 0.03938318 [mEh]       0.02471332 [kcal/mol]       0.10340053 [kJ/mol]
    Induction sSAPT0               -0.06166374 [mEh]      -0.03869458 [kcal/mol]      -0.16189813 [kJ/mol]
    Dispersion sSAPT0              -0.39758042 [mEh]      -0.24948548 [kcal/mol]      -1.04384725 [kJ/mol]
  Total sSAPT0                     -1.44004307 [mEh]      -0.90364067 [kcal/mol]      -3.78083256 [kJ/mol]
  --------------------------------------------------------------------------------------------------------

*** Psi4 exiting successfully. Buy a developer a beer!
