                               Psi4 1.4a2.dev224

  ==> Input File <==

--------------------------------------------------------------------------
#Generated by lconvert.py for sapt job

memory 20 GB

molecule  {
0 1
  N      -0.893450   -0.043840   -0.043000
  H       0.096950   -0.256060   -0.071070
  H      -1.368440   -0.933390    0.033840
  C      -1.175780    0.757910    1.145240
  H      -2.241630    0.972220    1.195030
  H      -0.880790    0.304250    2.097210
  H      -0.663010    1.714330    1.060810
--
0 1
  O       3.022150    0.022860    0.061180
  H       3.304180    0.392810   -0.778690
  C       3.408070    0.934450    1.080610
  H       3.084880    0.504820    2.023680
  H       4.489120    1.073530    1.119650
  H       2.929590    1.908050    0.965430
units angstrom
no_reorient
symmetry c1
}

set {
scf_type DF
basis aug-cc-pvdz
freeze_core True
guess SAD
}
energy('sapt2+')
--------------------------------------------------------------------------

  //              Dimer HF             //
    Molecular point group: c1
  Charge       = 0
  Multiplicity = 1
  Basis Set: AUG-CC-PVDZ
    Blend: AUG-CC-PVDZ
  Basis Set: (AUG-CC-PVDZ AUX)
    Blend: AUG-CC-PVDZ-JKFIT
  @DF-RHF Final Energy:  -210.29400857364095
    Total Energy =                       -210.2940085736409515
  //            Monomer A HF           //
    Molecular point group: c1
  Multiplicity = 1
  Basis Set: AUG-CC-PVDZ
    Blend: AUG-CC-PVDZ
  Basis Set: (AUG-CC-PVDZ AUX)
    Blend: AUG-CC-PVDZ-JKFIT
  @DF-RHF Final Energy:   -95.23065854557355
    Total Energy =                        -95.2306585455735473
  //            Monomer B HF           //
    Molecular point group: c1

    Geometry (in Angstrom), charge = 0, multiplicity = 1:

       Center              X                  Y                   Z               Mass
    ------------   -----------------  -----------------  -----------------  -----------------
      Gh(N)          -2.026105571914    -0.452682999985    -0.594660551942    14.003074004430
      Gh(H)          -1.035705571914    -0.664902999985    -0.622730551942     1.007825032230
      Gh(H)          -2.501095571914    -1.342232999985    -0.517820551942     1.007825032230
      Gh(C)          -2.308435571914     0.349067000015     0.593579448058    12.000000000000
      Gh(H)          -3.374285571914     0.563377000015     0.643369448058     1.007825032230
      Gh(H)          -2.013445571914    -0.104592999985     1.545549448058     1.007825032230
      Gh(H)          -1.795665571914     1.305487000015     0.509149448058     1.007825032230
         O            1.889494428086    -0.385982999985    -0.490480551942    15.994914619570
         H            2.171524428086    -0.016032999985    -1.330350551942     1.007825032230
         C            2.275414428086     0.525607000015     0.528949448058    12.000000000000
         H            1.952224428086     0.095977000015     1.472019448058     1.007825032230
         H            3.356464428086     0.664687000015     0.567989448058     1.007825032230
         H            1.796934428086     1.499207000015     0.413769448058     1.007825032230

  Charge       = 0
  Multiplicity = 1
  Basis Set: AUG-CC-PVDZ
    Blend: AUG-CC-PVDZ
  Basis Set: (AUG-CC-PVDZ AUX)
    Blend: AUG-CC-PVDZ-JKFIT

    Orbital Energies [Eh]
    ---------------------

    Doubly Occupied:

       1A    -20.568954     2A    -11.278361     3A     -1.361575
       4A     -0.927947     5A     -0.692339     6A     -0.620378
       7A     -0.593532     8A     -0.505028     9A     -0.451050

  @DF-RHF Final Energy:  -115.06154546401574

   => Energetics <=

    Nuclear Repulsion Energy =             40.3470530819711826
    One-Electron Energy =                -236.8188665044035019
    Two-Electron Energy =                  81.4102679584165827
    Total Energy =                       -115.0615454640157367

  Dipole Moment: [D]
     X:     0.8695      Y:     1.5855      Z:    -0.2090     Total:     1.8203

    SAPT Results
  --------------------------------------------------------------------------------------------------------
    Electrostatics                 -2.00418571 [mEh]      -1.25764552 [kcal/mol]      -5.26198885 [kJ/mol]
      Elst10,r                     -2.04593995 [mEh]      -1.28384670 [kcal/mol]      -5.37161460 [kJ/mol]
      Elst12,r                      0.04175424 [mEh]       0.02620118 [kcal/mol]       0.10962575 [kJ/mol]

    Exchange                        0.62221698 [mEh]       0.39044705 [kcal/mol]       1.63363044 [kJ/mol]
      Exch10                        0.47038903 [mEh]       0.29517357 [kcal/mol]       1.23500622 [kJ/mol]
      Exch10(S^2)                   0.47021577 [mEh]       0.29506485 [kcal/mol]       1.23455134 [kJ/mol]
      Exch11(S^2)                  -0.00891399 [mEh]      -0.00559361 [kcal/mol]      -0.02340368 [kJ/mol]
      Exch12(S^2)                   0.16074194 [mEh]       0.10086709 [kcal/mol]       0.42202791 [kJ/mol]

    Induction                      -0.25315007 [mEh]      -0.15885407 [kcal/mol]      -0.66464542 [kJ/mol]
      Ind20,r                      -0.25037466 [mEh]      -0.15711247 [kcal/mol]      -0.65735858 [kJ/mol]
      Ind22                        -0.03270864 [mEh]      -0.02052498 [kcal/mol]      -0.08587652 [kJ/mol]
      Exch-Ind20,r                  0.06561373 [mEh]       0.04117324 [kcal/mol]       0.17226882 [kJ/mol]
      Exch-Ind22                    0.00857170 [mEh]       0.00537882 [kcal/mol]       0.02250499 [kJ/mol]
      delta HF,r (2)               -0.04425219 [mEh]      -0.02776867 [kcal/mol]      -0.11618412 [kJ/mol]

    Dispersion                     -1.18772194 [mEh]      -0.74530677 [kcal/mol]      -3.11836353 [kJ/mol]
      Disp20                       -1.09931851 [mEh]      -0.68983278 [kcal/mol]      -2.88626034 [kJ/mol]
      Disp21                        0.05281026 [mEh]       0.03313894 [kcal/mol]       0.13865333 [kJ/mol]
      Disp22 (SDQ)                 -0.01848525 [mEh]      -0.01159967 [kcal/mol]      -0.04853302 [kJ/mol]
      Disp22 (T)                   -0.15869078 [mEh]      -0.09957997 [kcal/mol]      -0.41664259 [kJ/mol]
      Est. Disp22 (T)              -0.16977996 [mEh]      -0.10653853 [kcal/mol]      -0.44575723 [kJ/mol]
      Exch-Disp20                   0.04705151 [mEh]       0.02952527 [kcal/mol]       0.12353373 [kJ/mol]

  Total HF                         -1.80456405 [mEh]      -1.13238104 [kcal/mol]      -4.73788226 [kJ/mol]
  Total SAPT0                      -2.85683104 [mEh]      -1.79268855 [kcal/mol]      -7.50060887 [kJ/mol]
  Total SAPT2                      -2.68738579 [mEh]      -1.68636004 [kcal/mol]      -7.05573043 [kJ/mol]
  Total SAPT2+                     -2.82284074 [mEh]      -1.77135931 [kcal/mol]      -7.41136735 [kJ/mol]

  Special recipe for scaled SAPT0 (see Manual):
    Electrostatics sSAPT0          -2.04593995 [mEh]      -1.28384670 [kcal/mol]      -5.37161460 [kJ/mol]
    Exchange sSAPT0                 0.47038903 [mEh]       0.29517357 [kcal/mol]       1.23500622 [kJ/mol]
    Induction sSAPT0               -0.22894058 [mEh]      -0.14366238 [kcal/mol]      -0.60108340 [kJ/mol]
    Dispersion sSAPT0              -1.05221497 [mEh]      -0.66027486 [kcal/mol]      -2.76259001 [kJ/mol]
  Total sSAPT0                     -2.85670646 [mEh]      -1.79261037 [kcal/mol]      -7.50028179 [kJ/mol]
  --------------------------------------------------------------------------------------------------------

*** Psi4 exiting successfully. Buy a developer a beer!
