                               Psi4 1.4a2.dev224

  ==> Input File <==

--------------------------------------------------------------------------
#Generated by lconvert.py for sapt job

memory 20 GB

molecule  {
0 1
  N      -0.638640    0.470920    0.044570
  H       0.189950   -0.113940   -0.005770
  H      -1.300470    0.081260   -0.613670
  C      -1.198660    0.391400    1.391950
  H      -2.092740    1.009240    1.453170
  H      -1.462750   -0.615840    1.729450
  H      -0.480280    0.798680    2.101090
--
0 1
  N       4.447300   -0.772280    0.385120
  H       4.743570   -0.497740   -0.542860
  H       5.070850   -1.519970    0.660320
  C       4.607530    0.362930    1.298800
  H       4.337340    0.048230    2.304450
  H       5.614940    0.784700    1.335770
  H       3.914990    1.148700    1.006140
units angstrom
no_reorient
symmetry c1
}

set {
scf_type DF
basis aug-cc-pvdz
freeze_core True
guess SAD
}
energy('sapt2+')
--------------------------------------------------------------------------

  //              Dimer HF             //
    Molecular point group: c1
  Charge       = 0
  Multiplicity = 1
  Basis Set: AUG-CC-PVDZ
    Blend: AUG-CC-PVDZ
  Basis Set: (AUG-CC-PVDZ AUX)
    Blend: AUG-CC-PVDZ-JKFIT
  @DF-RHF Final Energy:  -190.46194520425007
    Total Energy =                       -190.4619452042500711
  //            Monomer A HF           //
    Molecular point group: c1
  Multiplicity = 1
  Basis Set: AUG-CC-PVDZ
    Blend: AUG-CC-PVDZ
  Basis Set: (AUG-CC-PVDZ AUX)
    Blend: AUG-CC-PVDZ-JKFIT
  @DF-RHF Final Energy:   -95.23055643203992
    Total Energy =                        -95.2305564320399185
  //            Monomer B HF           //
    Molecular point group: c1

    Geometry (in Angstrom), charge = 0, multiplicity = 1:

       Center              X                  Y                   Z               Mass
    ------------   -----------------  -----------------  -----------------  -----------------
      Gh(N)          -2.457451665659     0.374855549131    -0.725476054438    14.003074004430
      Gh(H)          -1.628861665659    -0.210004450869    -0.775816054438     1.007825032230
      Gh(H)          -3.119281665659    -0.014804450869    -1.383716054438     1.007825032230
      Gh(C)          -3.017471665659     0.295335549131     0.621903945562    12.000000000000
      Gh(H)          -3.911551665659     0.913175549131     0.683123945562     1.007825032230
      Gh(H)          -3.281561665659    -0.711904450869     0.959403945562     1.007825032230
      Gh(H)          -2.299091665659     0.702615549131     1.331043945562     1.007825032230
         N            2.628488334341    -0.868344450869    -0.384926054438    14.003074004430
         H            2.924758334341    -0.593804450869    -1.312906054438     1.007825032230
         H            3.252038334341    -1.616034450869    -0.109726054438     1.007825032230
         C            2.788718334341     0.266865549131     0.528753945562    12.000000000000
         H            2.518528334341    -0.047834450869     1.534403945562     1.007825032230
         H            3.796128334341     0.688635549131     0.565723945562     1.007825032230
         H            2.096178334341     1.052635549131     0.236093945562     1.007825032230

  Charge       = 0
  Multiplicity = 1
  Basis Set: AUG-CC-PVDZ
    Blend: AUG-CC-PVDZ
  Basis Set: (AUG-CC-PVDZ AUX)
    Blend: AUG-CC-PVDZ-JKFIT

    Orbital Energies [Eh]
    ---------------------

    Doubly Occupied:

       1A    -15.548660     2A    -11.247768     3A     -1.172491
       4A     -0.897363     5A     -0.661795     6A     -0.603967
       7A     -0.554639     8A     -0.516657     9A     -0.392883

  @DF-RHF Final Energy:   -95.23063841583809

   => Energetics <=

    Nuclear Repulsion Energy =             42.0598477466429372
    One-Electron Energy =                -211.3885232508029901
    Two-Electron Energy =                  74.0980370883219734
    Total Energy =                        -95.2306384158380865

  Dipole Moment: [D]
     X:     1.3935      Y:     0.4230      Z:    -0.0192     Total:     1.4565

    SAPT Results
  --------------------------------------------------------------------------------------------------------
    Electrostatics                 -0.71789949 [mEh]      -0.45048873 [kcal/mol]      -1.88484486 [kJ/mol]
      Elst10,r                     -0.72566310 [mEh]      -0.45536047 [kcal/mol]      -1.90522821 [kJ/mol]
      Elst12,r                      0.00776361 [mEh]       0.00487174 [kcal/mol]       0.02038335 [kJ/mol]

    Exchange                        0.01175959 [mEh]       0.00737926 [kcal/mol]       0.03087481 [kJ/mol]
      Exch10                        0.00824856 [mEh]       0.00517605 [kcal/mol]       0.02165660 [kJ/mol]
      Exch10(S^2)                   0.00824851 [mEh]       0.00517602 [kcal/mol]       0.02165645 [kJ/mol]
      Exch11(S^2)                  -0.00020549 [mEh]      -0.00012895 [kcal/mol]      -0.00053951 [kJ/mol]
      Exch12(S^2)                   0.00371652 [mEh]       0.00233215 [kcal/mol]       0.00975772 [kJ/mol]

    Induction                      -0.03400420 [mEh]      -0.02133796 [kcal/mol]      -0.08927802 [kJ/mol]
      Ind20,r                      -0.03277918 [mEh]      -0.02056925 [kcal/mol]      -0.08606173 [kJ/mol]
      Ind22                        -0.00109598 [mEh]      -0.00068774 [kcal/mol]      -0.00287750 [kJ/mol]
      Exch-Ind20,r                  0.00100534 [mEh]       0.00063086 [kcal/mol]       0.00263951 [kJ/mol]
      Exch-Ind22                    0.00003361 [mEh]       0.00002109 [kcal/mol]       0.00008825 [kJ/mol]
      delta HF,r (2)               -0.00116799 [mEh]      -0.00073293 [kcal/mol]      -0.00306656 [kJ/mol]

    Dispersion                     -0.27309500 [mEh]      -0.17136970 [kcal/mol]      -0.71701083 [kJ/mol]
      Disp20                       -0.25992787 [mEh]      -0.16310720 [kcal/mol]      -0.68244052 [kJ/mol]
      Disp21                        0.02157330 [mEh]       0.01353745 [kcal/mol]       0.05664068 [kJ/mol]
      Disp22 (SDQ)                  0.00277341 [mEh]       0.00174034 [kcal/mol]       0.00728159 [kJ/mol]
      Disp22 (T)                   -0.03749880 [mEh]      -0.02353086 [kcal/mol]      -0.09845310 [kJ/mol]
      Est. Disp22 (T)              -0.03884669 [mEh]      -0.02437667 [kcal/mol]      -0.10199197 [kJ/mol]
      Exch-Disp20                   0.00133285 [mEh]       0.00083637 [kcal/mol]       0.00349939 [kJ/mol]

  Total HF                         -0.75035637 [mEh]      -0.47085573 [kcal/mol]      -1.97006038 [kJ/mol]
  Total SAPT0                      -1.00895139 [mEh]      -0.63312656 [kcal/mol]      -2.64900152 [kJ/mol]
  Total SAPT2                      -0.99873912 [mEh]      -0.62671826 [kcal/mol]      -2.62218921 [kJ/mol]
  Total SAPT2+                     -1.01323911 [mEh]      -0.63581714 [kcal/mol]      -2.66025891 [kJ/mol]

  Special recipe for scaled SAPT0 (see Manual):
    Electrostatics sSAPT0          -0.72566310 [mEh]      -0.45536047 [kcal/mol]      -1.90522821 [kJ/mol]
    Exchange sSAPT0                 0.00824856 [mEh]       0.00517605 [kcal/mol]       0.02165660 [kJ/mol]
    Induction sSAPT0               -0.03294183 [mEh]      -0.02067131 [kcal/mol]      -0.08648878 [kJ/mol]
    Dispersion sSAPT0              -0.25859502 [mEh]      -0.16227083 [kcal/mol]      -0.67894113 [kJ/mol]
  Total sSAPT0                     -1.00895139 [mEh]      -0.63312656 [kcal/mol]      -2.64900152 [kJ/mol]
  --------------------------------------------------------------------------------------------------------

*** Psi4 exiting successfully. Buy a developer a beer!
