                               Psi4 1.4a2.dev224

  ==> Input File <==

--------------------------------------------------------------------------
#Generated by lconvert.py for sapt job

memory 20 GB

molecule  {
0 1
  N      -0.638640    0.470920    0.044570
  H       0.189950   -0.113940   -0.005770
  H      -1.300470    0.081260   -0.613670
  C      -1.198660    0.391400    1.391950
  H      -2.092740    1.009240    1.453170
  H      -1.462750   -0.615840    1.729450
  H      -0.480280    0.798680    2.101090
--
0 1
  N       3.775100   -0.668340    0.323400
  H       4.071370   -0.393800   -0.604580
  H       4.398650   -1.416030    0.598600
  C       3.935330    0.466880    1.237080
  H       3.665140    0.152180    2.242730
  H       4.942740    0.888650    1.274050
  H       3.242790    1.252650    0.944420
units angstrom
no_reorient
symmetry c1
}

set {
scf_type DF
basis aug-cc-pvdz
freeze_core True
guess SAD
}
energy('sapt2+')
--------------------------------------------------------------------------

  //              Dimer HF             //
    Molecular point group: c1
  Charge       = 0
  Multiplicity = 1
  Basis Set: AUG-CC-PVDZ
    Blend: AUG-CC-PVDZ
  Basis Set: (AUG-CC-PVDZ AUX)
    Blend: AUG-CC-PVDZ-JKFIT
  @DF-RHF Final Energy:  -190.46258022375983
    Total Energy =                       -190.4625802237598293
  //            Monomer A HF           //
    Molecular point group: c1
  Multiplicity = 1
  Basis Set: AUG-CC-PVDZ
    Blend: AUG-CC-PVDZ
  Basis Set: (AUG-CC-PVDZ AUX)
    Blend: AUG-CC-PVDZ-JKFIT
  @DF-RHF Final Energy:   -95.23058165328158
    Total Energy =                        -95.2305816532815754
  //            Monomer B HF           //
    Molecular point group: c1

    Geometry (in Angstrom), charge = 0, multiplicity = 1:

       Center              X                  Y                   Z               Mass
    ------------   -----------------  -----------------  -----------------  -----------------
      Gh(N)          -2.121351665659     0.322883129284    -0.694616054438    14.003074004430
      Gh(H)          -1.292761665659    -0.261976870716    -0.744956054438     1.007825032230
      Gh(H)          -2.783181665659    -0.066776870716    -1.352856054438     1.007825032230
      Gh(C)          -2.681371665659     0.243363129284     0.652763945562    12.000000000000
      Gh(H)          -3.575451665659     0.861203129284     0.713983945562     1.007825032230
      Gh(H)          -2.945461665659    -0.763876870716     0.990263945562     1.007825032230
      Gh(H)          -1.962991665659     0.650643129284     1.361903945562     1.007825032230
         N            2.292388334341    -0.816376870716    -0.415786054438    14.003074004430
         H            2.588658334341    -0.541836870716    -1.343766054438     1.007825032230
         H            2.915938334341    -1.564066870716    -0.140586054438     1.007825032230
         C            2.452618334341     0.318843129284     0.497893945562    12.000000000000
         H            2.182428334341     0.004143129284     1.503543945562     1.007825032230
         H            3.460028334341     0.740613129284     0.534863945562     1.007825032230
         H            1.760078334341     1.104613129284     0.205233945562     1.007825032230

  Charge       = 0
  Multiplicity = 1
  Basis Set: AUG-CC-PVDZ
    Blend: AUG-CC-PVDZ
  Basis Set: (AUG-CC-PVDZ AUX)
    Blend: AUG-CC-PVDZ-JKFIT

    Orbital Energies [Eh]
    ---------------------

    Doubly Occupied:

       1A    -15.548668     2A    -11.247742     3A     -1.172483
       4A     -0.897359     5A     -0.661794     6A     -0.603958
       7A     -0.554632     8A     -0.516655     9A     -0.392881

  @DF-RHF Final Energy:   -95.23067101355559

   => Energetics <=

    Nuclear Repulsion Energy =             42.0597373907508825
    One-Electron Energy =                -211.3884704129199292
    Two-Electron Energy =                  74.0980620086134536
    Total Energy =                        -95.2306710135555932

  Dipole Moment: [D]
     X:     1.3931      Y:     0.4223      Z:    -0.0189     Total:     1.4558

    SAPT Results
  --------------------------------------------------------------------------------------------------------
    Electrostatics                 -1.31634267 [mEh]      -0.82601750 [kcal/mol]      -3.45605721 [kJ/mol]
      Elst10,r                     -1.31829695 [mEh]      -0.82724382 [kcal/mol]      -3.46118816 [kJ/mol]
      Elst12,r                      0.00195428 [mEh]       0.00122633 [kcal/mol]       0.00513095 [kJ/mol]

    Exchange                        0.11725725 [mEh]       0.07358004 [kcal/mol]       0.30785888 [kJ/mol]
      Exch10                        0.08798682 [mEh]       0.05521256 [kcal/mol]       0.23100935 [kJ/mol]
      Exch10(S^2)                   0.08798128 [mEh]       0.05520908 [kcal/mol]       0.23099481 [kJ/mol]
      Exch11(S^2)                  -0.00116520 [mEh]      -0.00073118 [kcal/mol]      -0.00305924 [kJ/mol]
      Exch12(S^2)                   0.03043564 [mEh]       0.01909865 [kcal/mol]       0.07990876 [kJ/mol]

    Induction                      -0.10398503 [mEh]      -0.06525159 [kcal/mol]      -0.27301266 [kJ/mol]
      Ind20,r                      -0.09958719 [mEh]      -0.06249190 [kcal/mol]      -0.26146613 [kJ/mol]
      Ind22                        -0.00765377 [mEh]      -0.00480281 [kcal/mol]      -0.02009497 [kJ/mol]
      Exch-Ind20,r                  0.01191242 [mEh]       0.00747515 [kcal/mol]       0.03127604 [kJ/mol]
      Exch-Ind22                    0.00091553 [mEh]       0.00057450 [kcal/mol]       0.00240372 [kJ/mol]
      delta HF,r (2)               -0.00957202 [mEh]      -0.00600653 [kcal/mol]      -0.02513133 [kJ/mol]

    Dispersion                     -0.65898581 [mEh]      -0.41351984 [kcal/mol]      -1.73016700 [kJ/mol]
      Disp20                       -0.62257773 [mEh]      -0.39067343 [kcal/mol]      -1.63457761 [kJ/mol]
      Disp21                        0.04217055 [mEh]       0.02646242 [kcal/mol]       0.11071876 [kJ/mol]
      Disp22 (SDQ)                  0.00302071 [mEh]       0.00189553 [kcal/mol]       0.00793088 [kJ/mol]
      Disp22 (T)                   -0.08901221 [mEh]      -0.05585601 [kcal/mol]      -0.23370154 [kJ/mol]
      Est. Disp22 (T)              -0.09342536 [mEh]      -0.05862530 [kcal/mol]      -0.24528826 [kJ/mol]
      Exch-Disp20                   0.01182603 [mEh]       0.00742095 [kcal/mol]       0.03104924 [kJ/mol]

  Total HF                         -1.32755692 [mEh]      -0.83305455 [kcal/mol]      -3.48550022 [kJ/mol]
  Total SAPT0                      -1.93830862 [mEh]      -1.21630703 [kcal/mol]      -5.08902859 [kJ/mol]
  Total SAPT2                      -1.91382215 [mEh]      -1.20094153 [kcal/mol]      -5.02473937 [kJ/mol]
  Total SAPT2+                     -1.96205626 [mEh]      -1.23120889 [kcal/mol]      -5.15137799 [kJ/mol]

  Special recipe for scaled SAPT0 (see Manual):
    Electrostatics sSAPT0          -1.31829695 [mEh]      -0.82724382 [kcal/mol]      -3.46118816 [kJ/mol]
    Exchange sSAPT0                 0.08798682 [mEh]       0.05521256 [kcal/mol]       0.23100935 [kJ/mol]
    Induction sSAPT0               -0.09724454 [mEh]      -0.06102187 [kcal/mol]      -0.25531550 [kJ/mol]
    Dispersion sSAPT0              -0.61074947 [mEh]      -0.38325108 [kcal/mol]      -1.60352251 [kJ/mol]
  Total sSAPT0                     -1.93830414 [mEh]      -1.21630421 [kcal/mol]      -5.08901682 [kJ/mol]
  --------------------------------------------------------------------------------------------------------

*** Psi4 exiting successfully. Buy a developer a beer!
