                               Psi4 1.4a2.dev224

  ==> Input File <==

--------------------------------------------------------------------------
#Generated by lconvert.py for sapt job

memory 20 GB

molecule  {
0 1
  N      -0.638640    0.470920    0.044570
  H       0.189950   -0.113940   -0.005770
  H      -1.300470    0.081260   -0.613670
  C      -1.198660    0.391400    1.391950
  H      -2.092740    1.009240    1.453170
  H      -1.462750   -0.615840    1.729450
  H      -0.480280    0.798680    2.101090
--
0 1
  N       3.102910   -0.564390    0.261690
  H       3.399180   -0.289850   -0.666300
  H       3.726460   -1.312080    0.536880
  C       3.263140    0.570820    1.175360
  H       2.992950    0.256130    2.181010
  H       4.270550    0.992600    1.212330
  H       2.570600    1.356600    0.882700
units angstrom
no_reorient
symmetry c1
}

set {
scf_type DF
basis aug-cc-pvdz
freeze_core True
guess SAD
}
energy('sapt2+')
--------------------------------------------------------------------------

  //              Dimer HF             //
    Molecular point group: c1
  Charge       = 0
  Multiplicity = 1
  Basis Set: AUG-CC-PVDZ
    Blend: AUG-CC-PVDZ
  Basis Set: (AUG-CC-PVDZ AUX)
    Blend: AUG-CC-PVDZ-JKFIT
  @DF-RHF Final Energy:  -190.46374603891198
    Total Energy =                       -190.4637460389119781
  //            Monomer A HF           //
    Molecular point group: c1
  Multiplicity = 1
  Basis Set: AUG-CC-PVDZ
    Blend: AUG-CC-PVDZ
  Basis Set: (AUG-CC-PVDZ AUX)
    Blend: AUG-CC-PVDZ-JKFIT
  @DF-RHF Final Energy:   -95.23065623900692
    Total Energy =                        -95.2306562390069189
  //            Monomer B HF           //
    Molecular point group: c1

    Geometry (in Angstrom), charge = 0, multiplicity = 1:

       Center              X                  Y                   Z               Mass
    ------------   -----------------  -----------------  -----------------  -----------------
      Gh(N)          -1.785256665659     0.270910062136    -0.663758309928    14.003074004430
      Gh(H)          -0.956666665659    -0.313949937864    -0.714098309928     1.007825032230
      Gh(H)          -2.447086665659    -0.118749937864    -1.321998309928     1.007825032230
      Gh(C)          -2.345276665659     0.191390062136     0.683621690072    12.000000000000
      Gh(H)          -3.239356665659     0.809230062136     0.744841690072     1.007825032230
      Gh(H)          -2.609366665659    -0.815849937864     1.021121690072     1.007825032230
      Gh(H)          -1.626896665659     0.598670062136     1.392761690072     1.007825032230
         N            1.956293334341    -0.764399937864    -0.446638309928    14.003074004430
         H            2.252563334341    -0.489859937864    -1.374628309928     1.007825032230
         H            2.579843334341    -1.512089937864    -0.171448309928     1.007825032230
         C            2.116523334341     0.370810062136     0.467031690072    12.000000000000
         H            1.846333334341     0.056120062136     1.472681690072     1.007825032230
         H            3.123933334341     0.792590062136     0.504001690072     1.007825032230
         H            1.423983334341     1.156590062136     0.174371690072     1.007825032230

  Charge       = 0
  Multiplicity = 1
  Basis Set: AUG-CC-PVDZ
    Blend: AUG-CC-PVDZ
  Basis Set: (AUG-CC-PVDZ AUX)
    Blend: AUG-CC-PVDZ-JKFIT

    Orbital Energies [Eh]
    ---------------------

    Doubly Occupied:

       1A    -15.548638     2A    -11.247659     3A     -1.172479
       4A     -0.897349     5A     -0.661799     6A     -0.603960
       7A     -0.554629     8A     -0.516646     9A     -0.392870

  @DF-RHF Final Energy:   -95.23078225498374

   => Energetics <=

    Nuclear Repulsion Energy =             42.0598607433650571
    One-Electron Energy =                -211.3892254200757463
    Two-Electron Energy =                  74.0985824217269595
    Total Energy =                        -95.2307822549837368

  Dipole Moment: [D]
     X:     1.3915      Y:     0.4213      Z:    -0.0187     Total:     1.4540

    SAPT Results
  --------------------------------------------------------------------------------------------------------
    Electrostatics                 -2.90532018 [mEh]      -1.82311594 [kcal/mol]      -7.62791708 [kJ/mol]
      Elst10,r                     -2.83812737 [mEh]      -1.78095181 [kcal/mol]      -7.45150238 [kJ/mol]
      Elst12,r                     -0.06719281 [mEh]      -0.04216412 [kcal/mol]      -0.17641470 [kJ/mol]

    Exchange                        1.14307240 [mEh]       0.71728876 [kcal/mol]       3.00113618 [kJ/mol]
      Exch10                        0.91965754 [mEh]       0.57709382 [kcal/mol]       2.41456053 [kJ/mol]
      Exch10(S^2)                   0.91913919 [mEh]       0.57676855 [kcal/mol]       2.41319962 [kJ/mol]
      Exch11(S^2)                  -0.00173434 [mEh]      -0.00108831 [kcal/mol]      -0.00455350 [kJ/mol]
      Exch12(S^2)                   0.22514920 [mEh]       0.14128326 [kcal/mol]       0.59112915 [kJ/mol]

    Induction                      -0.42896209 [mEh]      -0.26917778 [kcal/mol]      -1.12623982 [kJ/mol]
      Ind20,r                      -0.43498270 [mEh]      -0.27295576 [kcal/mol]      -1.14204691 [kJ/mol]
      Ind22                        -0.05853326 [mEh]      -0.03673017 [kcal/mol]      -0.15367905 [kJ/mol]
      Exch-Ind20,r                  0.13856735 [mEh]       0.08695233 [kcal/mol]       0.36380853 [kJ/mol]
      Exch-Ind22                    0.01864626 [mEh]       0.01170070 [kcal/mol]       0.04895574 [kJ/mol]
      delta HF,r (2)               -0.09265974 [mEh]      -0.05814487 [kcal/mol]      -0.24327812 [kJ/mol]

    Dispersion                     -1.80884216 [mEh]      -1.13506559 [kcal/mol]      -4.74911443 [kJ/mol]
      Disp20                       -1.74256940 [mEh]      -1.09347881 [kcal/mol]      -4.57511533 [kJ/mol]
      Disp21                        0.09273894 [mEh]       0.05819457 [kcal/mol]       0.24348606 [kJ/mol]
      Disp22 (SDQ)                  0.00002405 [mEh]       0.00001509 [kcal/mol]       0.00006315 [kJ/mol]
      Disp22 (T)                   -0.23914214 [mEh]      -0.15006396 [kcal/mol]      -0.62786760 [kJ/mol]
      Est. Disp22 (T)              -0.25775682 [mEh]      -0.16174485 [kcal/mol]      -0.67674045 [kJ/mol]
      Exch-Disp20                   0.09872107 [mEh]       0.06194841 [kcal/mol]       0.25919214 [kJ/mol]

  Total HF                         -2.30754492 [mEh]      -1.44800630 [kcal/mol]      -6.05845836 [kJ/mol]
  Total SAPT0                      -3.95139325 [mEh]      -2.47953670 [kcal/mol]     -10.37438155 [kJ/mol]
  Total SAPT2                      -3.83505820 [mEh]      -2.40653535 [kcal/mol]     -10.06894392 [kJ/mol]
  Total SAPT2+                     -4.00005203 [mEh]      -2.51007054 [kcal/mol]     -10.50213515 [kJ/mol]

  Special recipe for scaled SAPT0 (see Manual):
    Electrostatics sSAPT0          -2.83812737 [mEh]      -1.78095181 [kcal/mol]      -7.45150238 [kJ/mol]
    Exchange sSAPT0                 0.91965754 [mEh]       0.57709382 [kcal/mol]       2.41456053 [kJ/mol]
    Induction sSAPT0               -0.38884052 [mEh]      -0.24400111 [kcal/mol]      -1.02090065 [kJ/mol]
    Dispersion sSAPT0              -1.64368122 [mEh]      -1.03142553 [kcal/mol]      -4.31548444 [kJ/mol]
  Total sSAPT0                     -3.95099157 [mEh]      -2.47928464 [kcal/mol]     -10.37332694 [kJ/mol]
  --------------------------------------------------------------------------------------------------------

*** Psi4 exiting successfully. Buy a developer a beer!
