                               Psi4 1.4a2.dev224

  ==> Input File <==

--------------------------------------------------------------------------
#Generated by lconvert.py for sapt job

memory 20 GB

molecule  {
0 1
  N      -0.569710    0.814370    0.101100
  H       0.130880    0.561410   -0.587610
  H      -1.461250    0.526920   -0.280430
  C      -0.305510    0.065710    1.328790
  H      -1.057150    0.314270    2.075960
  H      -0.288020   -1.022290    1.214850
  H       0.660460    0.368510    1.730240
--
0 1
  C       4.287490    2.545730   -0.427710
  H       4.412110    2.956910   -1.426750
  H       4.794060    3.186720    0.290080
  H       3.221070    2.519200   -0.209280
  C       4.799480    1.127930   -0.425410
  O       4.339500    0.262200   -1.164590
  N       5.785960    0.854900    0.466920
  H       6.185720    1.609830    0.992270
  C       6.374410   -0.464690    0.544420
  H       5.586230   -1.206020    0.451400
  H       7.095670   -0.636680   -0.254130
  H       6.869060   -0.580560    1.504360
units angstrom
no_reorient
symmetry c1
}

set {
scf_type DF
basis aug-cc-pvdz
freeze_core True
guess SAD
}
energy('sapt2+')
--------------------------------------------------------------------------

  //              Dimer HF             //
    Molecular point group: c1
  Charge       = 0
  Multiplicity = 1
  Basis Set: AUG-CC-PVDZ
    Blend: AUG-CC-PVDZ
  Basis Set: (AUG-CC-PVDZ AUX)
    Blend: AUG-CC-PVDZ-JKFIT
  @DF-RHF Final Energy:  -342.27378305799715
    Total Energy =                       -342.2737830579971501
  //            Monomer A HF           //
    Molecular point group: c1
  Multiplicity = 1
  Basis Set: AUG-CC-PVDZ
    Blend: AUG-CC-PVDZ
  Basis Set: (AUG-CC-PVDZ AUX)
    Blend: AUG-CC-PVDZ-JKFIT
  @DF-RHF Final Energy:   -95.23055812976501
    Total Energy =                        -95.2305581297650150
  //            Monomer B HF           //
    Molecular point group: c1

    Geometry (in Angstrom), charge = 0, multiplicity = 1:

       Center              X                  Y                   Z               Mass
    ------------   -----------------  -----------------  -----------------  -----------------
      Gh(N)          -4.035349471457     0.088778317968     0.032781673517    14.003074004430
      Gh(H)          -3.334759471457    -0.164181682032    -0.655928326483     1.007825032230
      Gh(H)          -4.926889471457    -0.198671682032    -0.348748326483     1.007825032230
      Gh(C)          -3.771149471457    -0.659881682032     1.260471673517    12.000000000000
      Gh(H)          -4.522789471457    -0.411321682032     2.007641673517     1.007825032230
      Gh(H)          -3.753659471457    -1.747881682032     1.146531673517     1.007825032230
      Gh(H)          -2.805179471457    -0.357081682032     1.661921673517     1.007825032230
         C            0.821850528543     1.820138317968    -0.496028326483    12.000000000000
         H            0.946470528543     2.231318317968    -1.495068326483     1.007825032230
         H            1.328420528543     2.461128317968     0.221761673517     1.007825032230
         H           -0.244569471457     1.793608317968    -0.277598326483     1.007825032230
         C            1.333840528543     0.402338317968    -0.493728326483    12.000000000000
         O            0.873860528543    -0.463391682032    -1.232908326483    15.994914619570
         N            2.320320528543     0.129308317968     0.398601673517    14.003074004430
         H            2.720080528543     0.884238317968     0.923951673517     1.007825032230
         C            2.908770528543    -1.190281682032     0.476101673517    12.000000000000
         H            2.120590528543    -1.931611682032     0.383081673517     1.007825032230
         H            3.630030528543    -1.362271682032    -0.322448326483     1.007825032230
         H            3.403420528543    -1.306151682032     1.436041673517     1.007825032230

  Charge       = 0
  Multiplicity = 1
  Basis Set: AUG-CC-PVDZ
    Blend: AUG-CC-PVDZ
  Basis Set: (AUG-CC-PVDZ AUX)
    Blend: AUG-CC-PVDZ-JKFIT

    Orbital Energies [Eh]
    ---------------------

    Doubly Occupied:

       1A    -20.520670     2A    -15.593584     3A    -11.354079
       4A    -11.264516     5A    -11.242696     6A     -1.376684
       7A     -1.232345     8A     -1.020865     9A     -0.934235
      10A     -0.791741    11A     -0.690394    12A     -0.652460
      13A     -0.633539    14A     -0.585026    15A     -0.579759
      16A     -0.556883    17A     -0.547007    18A     -0.499263
      19A     -0.419632    20A     -0.390518

  @DF-RHF Final Energy:  -247.04202572968990

   => Energetics <=

    Nuclear Repulsion Energy =            180.7221227010564917
    One-Electron Energy =                -693.7565067100407532
    Two-Electron Energy =                 265.9923582792943648
    Total Energy =                       -247.0420257296898967

  Dipole Moment: [D]
     X:     2.1421      Y:     2.3655      Z:     2.7204     Total:     4.1934

    SAPT Results
  --------------------------------------------------------------------------------------------------------
    Electrostatics                 -0.98634577 [mEh]      -0.61894131 [kcal/mol]      -2.58965046 [kJ/mol]
      Elst10,r                     -1.15476582 [mEh]      -0.72462649 [kcal/mol]      -3.03183724 [kJ/mol]
      Elst12,r                      0.16842005 [mEh]       0.10568518 [kcal/mol]       0.44218678 [kJ/mol]

    Exchange                        0.02280997 [mEh]       0.01431347 [kcal/mol]       0.05988757 [kJ/mol]
      Exch10                        0.01674557 [mEh]       0.01050801 [kcal/mol]       0.04396550 [kJ/mol]
      Exch10(S^2)                   0.01674536 [mEh]       0.01050787 [kcal/mol]       0.04396494 [kJ/mol]
      Exch11(S^2)                  -0.00033560 [mEh]      -0.00021059 [kcal/mol]      -0.00088111 [kJ/mol]
      Exch12(S^2)                   0.00639999 [mEh]       0.00401606 [kcal/mol]       0.01680318 [kJ/mol]

    Induction                      -0.05642148 [mEh]      -0.03540501 [kcal/mol]      -0.14813458 [kJ/mol]
      Ind20,r                      -0.05990172 [mEh]      -0.03758890 [kcal/mol]      -0.15727195 [kJ/mol]
      Ind22                         0.00490902 [mEh]       0.00308046 [kcal/mol]       0.01288863 [kJ/mol]
      Exch-Ind20,r                  0.00185727 [mEh]       0.00116545 [kcal/mol]       0.00487626 [kJ/mol]
      Exch-Ind22                   -0.00015221 [mEh]      -0.00009551 [kcal/mol]      -0.00039962 [kJ/mol]
      delta HF,r (2)               -0.00313384 [mEh]      -0.00196652 [kcal/mol]      -0.00822790 [kJ/mol]

    Dispersion                     -0.50731787 [mEh]      -0.31834677 [kcal/mol]      -1.33196287 [kJ/mol]
      Disp20                       -0.48824165 [mEh]      -0.30637626 [kcal/mol]      -1.28187829 [kJ/mol]
      Disp21                        0.05978565 [mEh]       0.03751606 [kcal/mol]       0.15696719 [kJ/mol]
      Disp22 (SDQ)                 -0.00092970 [mEh]      -0.00058340 [kcal/mol]      -0.00244093 [kJ/mol]
      Disp22 (T)                   -0.07847742 [mEh]      -0.04924533 [kcal/mol]      -0.20604245 [kJ/mol]
      Est. Disp22 (T)              -0.08073762 [mEh]      -0.05066362 [kcal/mol]      -0.21197659 [kJ/mol]
      Exch-Disp20                   0.00280546 [mEh]       0.00176045 [kcal/mol]       0.00736574 [kJ/mol]

  Total HF                         -1.19919854 [mEh]      -0.75250845 [kcal/mol]      -3.14849534 [kJ/mol]
  Total SAPT0                      -1.68463473 [mEh]      -1.05712425 [kcal/mol]      -4.42300788 [kJ/mol]
  Total SAPT2                      -1.50539347 [mEh]      -0.94464866 [kcal/mol]      -3.95241001 [kJ/mol]
  Total SAPT2+                     -1.52727515 [mEh]      -0.95837962 [kcal/mol]      -4.00986034 [kJ/mol]

  Special recipe for scaled SAPT0 (see Manual):
    Electrostatics sSAPT0          -1.15476582 [mEh]      -0.72462649 [kcal/mol]      -3.03183724 [kJ/mol]
    Exchange sSAPT0                 0.01674557 [mEh]       0.01050801 [kcal/mol]       0.04396550 [kJ/mol]
    Induction sSAPT0               -0.06117823 [mEh]      -0.03838992 [kcal/mol]      -0.16062341 [kJ/mol]
    Dispersion sSAPT0              -0.48543608 [mEh]      -0.30461574 [kcal/mol]      -1.27451226 [kJ/mol]
  Total sSAPT0                     -1.68463456 [mEh]      -1.05712414 [kcal/mol]      -4.42300742 [kJ/mol]
  --------------------------------------------------------------------------------------------------------

*** Psi4 exiting successfully. Buy a developer a beer!
