                               Psi4 1.4a2.dev224

  ==> Input File <==

--------------------------------------------------------------------------
#Generated by lconvert.py for sapt job

memory 20 GB

molecule  {
0 1
  N      -0.569710    0.814370    0.101100
  H       0.130880    0.561410   -0.587610
  H      -1.461250    0.526920   -0.280430
  C      -0.305510    0.065710    1.328790
  H      -1.057150    0.314270    2.075960
  H      -0.288020   -1.022290    1.214850
  H       0.660460    0.368510    1.730240
--
0 1
  C       3.622980    2.592980   -0.336610
  H       3.747600    3.004150   -1.335650
  H       4.129550    3.233970    0.381180
  H       2.556570    2.566450   -0.118190
  C       4.134970    1.175180   -0.334310
  O       3.675000    0.309440   -1.073490
  N       5.121460    0.902150    0.558020
  H       5.521220    1.657080    1.083370
  C       5.709900   -0.417450    0.635520
  H       4.921730   -1.158780    0.542500
  H       6.431160   -0.589440   -0.163030
  H       6.204560   -0.533310    1.595460
units angstrom
no_reorient
symmetry c1
}

set {
scf_type DF
basis aug-cc-pvdz
freeze_core True
guess SAD
}
energy('sapt2+')
--------------------------------------------------------------------------

  //              Dimer HF             //
    Molecular point group: c1
  Charge       = 0
  Multiplicity = 1
  Basis Set: AUG-CC-PVDZ
    Blend: AUG-CC-PVDZ
  Basis Set: (AUG-CC-PVDZ AUX)
    Blend: AUG-CC-PVDZ-JKFIT
  @DF-RHF Final Energy:  -342.27467748820288
    Total Energy =                       -342.2746774882028831
  //            Monomer A HF           //
    Molecular point group: c1
  Multiplicity = 1
  Basis Set: AUG-CC-PVDZ
    Blend: AUG-CC-PVDZ
  Basis Set: (AUG-CC-PVDZ AUX)
    Blend: AUG-CC-PVDZ-JKFIT
  @DF-RHF Final Energy:   -95.23061318273054
    Total Energy =                        -95.2306131827305364
  //            Monomer B HF           //
    Molecular point group: c1

    Geometry (in Angstrom), charge = 0, multiplicity = 1:

       Center              X                  Y                   Z               Mass
    ------------   -----------------  -----------------  -----------------  -----------------
      Gh(N)          -3.569006524530     0.055621738552    -0.031151263444    14.003074004430
      Gh(H)          -2.868416524530    -0.197338261448    -0.719861263444     1.007825032230
      Gh(H)          -4.460546524530    -0.231828261448    -0.412681263444     1.007825032230
      Gh(C)          -3.304806524530    -0.693038261448     1.196538736556    12.000000000000
      Gh(H)          -4.056446524530    -0.444478261448     1.943708736556     1.007825032230
      Gh(H)          -3.287316524530    -1.781038261448     1.082598736556     1.007825032230
      Gh(H)          -2.338836524530    -0.390238261448     1.597988736556     1.007825032230
         C            0.623683475470     1.834231738552    -0.468861263444    12.000000000000
         H            0.748303475470     2.245401738552    -1.467901263444     1.007825032230
         H            1.130253475470     2.475221738552     0.248928736556     1.007825032230
         H           -0.442726524530     1.807701738552    -0.250441263444     1.007825032230
         C            1.135673475470     0.416431738552    -0.466561263444    12.000000000000
         O            0.675703475470    -0.449308261448    -1.205741263444    15.994914619570
         N            2.122163475470     0.143401738552     0.425768736556    14.003074004430
         H            2.521923475470     0.898331738552     0.951118736556     1.007825032230
         C            2.710603475470    -1.176198261448     0.503268736556    12.000000000000
         H            1.922433475470    -1.917528261448     0.410248736556     1.007825032230
         H            3.431863475470    -1.348188261448    -0.295281263444     1.007825032230
         H            3.205263475470    -1.292058261448     1.463208736556     1.007825032230

  Charge       = 0
  Multiplicity = 1
  Basis Set: AUG-CC-PVDZ
    Blend: AUG-CC-PVDZ
  Basis Set: (AUG-CC-PVDZ AUX)
    Blend: AUG-CC-PVDZ-JKFIT

    Orbital Energies [Eh]
    ---------------------

    Doubly Occupied:

       1A    -20.520694     2A    -15.593577     3A    -11.354086
       4A    -11.264509     5A    -11.242679     6A     -1.376673
       7A     -1.232333     8A     -1.020860     9A     -0.934230
      10A     -0.791734    11A     -0.690387    12A     -0.652454
      13A     -0.633532    14A     -0.585019    15A     -0.579753
      16A     -0.556880    17A     -0.547003    18A     -0.499258
      19A     -0.419626    20A     -0.390511

  @DF-RHF Final Energy:  -247.04207060637529

   => Energetics <=

    Nuclear Repulsion Energy =            180.7218581285696644
    One-Electron Energy =                -693.7562599376858543
    Two-Electron Energy =                 265.9923312027408429
    Total Energy =                       -247.0420706063753187

  Dipole Moment: [D]
     X:     2.1424      Y:     2.3646      Z:     2.7188     Total:     4.1920

    SAPT Results
  --------------------------------------------------------------------------------------------------------
    Electrostatics                 -1.72701232 [mEh]      -1.08371659 [kcal/mol]      -4.53427021 [kJ/mol]
      Elst10,r                     -1.97863365 [mEh]      -1.24161136 [kcal/mol]      -5.19490194 [kJ/mol]
      Elst12,r                      0.25162134 [mEh]       0.15789477 [kcal/mol]       0.66063173 [kJ/mol]

    Exchange                        0.19640565 [mEh]       0.12324641 [kcal/mol]       0.51566296 [kJ/mol]
      Exch10                        0.15056182 [mEh]       0.09447897 [kcal/mol]       0.39530000 [kJ/mol]
      Exch10(S^2)                   0.15054989 [mEh]       0.09447148 [kcal/mol]       0.39526868 [kJ/mol]
      Exch11(S^2)                  -0.00167726 [mEh]      -0.00105250 [kcal/mol]      -0.00440366 [kJ/mol]
      Exch12(S^2)                   0.04752109 [mEh]       0.02981994 [kcal/mol]       0.12476662 [kJ/mol]

    Induction                      -0.16174789 [mEh]      -0.10149833 [kcal/mol]      -0.42466902 [kJ/mol]
      Ind20,r                      -0.16822295 [mEh]      -0.10556150 [kcal/mol]      -0.44166930 [kJ/mol]
      Ind22                         0.00437430 [mEh]       0.00274491 [kcal/mol]       0.01148472 [kJ/mol]
      Exch-Ind20,r                  0.01903332 [mEh]       0.01194359 [kcal/mol]       0.04997196 [kJ/mol]
      Exch-Ind22                   -0.00049492 [mEh]      -0.00031057 [kcal/mol]      -0.00129942 [kJ/mol]
      delta HF,r (2)               -0.01643763 [mEh]      -0.01031477 [kcal/mol]      -0.04315698 [kJ/mol]

    Dispersion                     -1.13824573 [mEh]      -0.71425998 [kcal/mol]      -2.98846376 [kJ/mol]
      Disp20                       -1.09096027 [mEh]      -0.68458791 [kcal/mol]      -2.86431581 [kJ/mol]
      Disp21                        0.12056866 [mEh]       0.07565798 [kcal/mol]       0.31655298 [kJ/mol]
      Disp22 (SDQ)                 -0.00782282 [mEh]      -0.00490889 [kcal/mol]      -0.02053882 [kJ/mol]
      Disp22 (T)                   -0.17323672 [mEh]      -0.10870768 [kcal/mol]      -0.45483294 [kJ/mol]
      Est. Disp22 (T)              -0.18095409 [mEh]      -0.11355041 [kcal/mol]      -0.47509490 [kJ/mol]
      Exch-Disp20                   0.02092279 [mEh]       0.01312925 [kcal/mol]       0.05493278 [kJ/mol]

  Total HF                         -1.99369910 [mEh]      -1.25106507 [kcal/mol]      -5.23445626 [kJ/mol]
  Total SAPT0                      -3.06373658 [mEh]      -1.92252373 [kcal/mol]      -8.04383929 [kJ/mol]
  Total SAPT2                      -2.76239204 [mEh]      -1.73342718 [kcal/mol]      -7.25265930 [kJ/mol]
  Total SAPT2+                     -2.83060029 [mEh]      -1.77622850 [kcal/mol]      -7.43174004 [kJ/mol]

  Special recipe for scaled SAPT0 (see Manual):
    Electrostatics sSAPT0          -1.97863365 [mEh]      -1.24161136 [kcal/mol]      -5.19490194 [kJ/mol]
    Exchange sSAPT0                 0.15056182 [mEh]       0.09447897 [kcal/mol]       0.39530000 [kJ/mol]
    Induction sSAPT0               -0.16562274 [mEh]      -0.10392984 [kcal/mol]      -0.43484244 [kJ/mol]
    Dispersion sSAPT0              -1.07003251 [mEh]      -0.67145554 [kcal/mol]      -2.80936997 [kJ/mol]
  Total sSAPT0                     -3.06372708 [mEh]      -1.92251777 [kcal/mol]      -8.04381435 [kJ/mol]
  --------------------------------------------------------------------------------------------------------

*** Psi4 exiting successfully. Buy a developer a beer!
