                               Psi4 1.4a2.dev224

  ==> Input File <==

--------------------------------------------------------------------------
#Generated by lconvert.py for sapt job

memory 20 GB

molecule  {
0 1
  N      -0.569710    0.814370    0.101100
  H       0.130880    0.561410   -0.587610
  H      -1.461250    0.526920   -0.280430
  C      -0.305510    0.065710    1.328790
  H      -1.057150    0.314270    2.075960
  H      -0.288020   -1.022290    1.214850
  H       0.660460    0.368510    1.730240
--
0 1
  C       2.958480    2.640220   -0.245510
  H       3.083100    3.051400   -1.244550
  H       3.465050    3.281210    0.472280
  H       1.892070    2.613690   -0.027090
  C       3.470470    1.222420   -0.243220
  O       3.010490    0.356690   -0.982390
  N       4.456950    0.949390    0.649110
  H       4.856720    1.704320    1.174470
  C       5.045400   -0.370200    0.726610
  H       4.257220   -1.111530    0.633590
  H       5.766660   -0.542200   -0.071930
  H       5.540050   -0.486070    1.686550
units angstrom
no_reorient
symmetry c1
}

set {
scf_type DF
basis aug-cc-pvdz
freeze_core True
guess SAD
}
energy('sapt2+')
--------------------------------------------------------------------------

  //              Dimer HF             //
    Molecular point group: c1
  Charge       = 0
  Multiplicity = 1
  Basis Set: AUG-CC-PVDZ
    Blend: AUG-CC-PVDZ
  Basis Set: (AUG-CC-PVDZ AUX)
    Blend: AUG-CC-PVDZ-JKFIT
  @DF-RHF Final Energy:  -342.27617686657391
    Total Energy =                       -342.2761768665739055
  //            Monomer A HF           //
    Molecular point group: c1
  Multiplicity = 1
  Basis Set: AUG-CC-PVDZ
    Blend: AUG-CC-PVDZ
  Basis Set: (AUG-CC-PVDZ AUX)
    Blend: AUG-CC-PVDZ-JKFIT
  @DF-RHF Final Energy:   -95.23073386475581
    Total Energy =                        -95.2307338647558055
  //            Monomer B HF           //
    Molecular point group: c1

    Geometry (in Angstrom), charge = 0, multiplicity = 1:

       Center              X                  Y                   Z               Mass
    ------------   -----------------  -----------------  -----------------  -----------------
      Gh(N)          -3.102664251010     0.022466314217    -0.095080452780    14.003074004430
      Gh(H)          -2.402074251010    -0.230493685783    -0.783790452780     1.007825032230
      Gh(H)          -3.994204251010    -0.264983685783    -0.476610452780     1.007825032230
      Gh(C)          -2.838464251010    -0.726193685783     1.132609547220    12.000000000000
      Gh(H)          -3.590104251010    -0.477633685783     1.879779547220     1.007825032230
      Gh(H)          -2.820974251010    -1.814193685783     1.018669547220     1.007825032230
      Gh(H)          -1.872494251010    -0.423393685783     1.534059547220     1.007825032230
         C            0.425525748990     1.848316314217    -0.441690452780    12.000000000000
         H            0.550145748990     2.259496314217    -1.440730452780     1.007825032230
         H            0.932095748990     2.489306314217     0.276099547220     1.007825032230
         H           -0.640884251010     1.821786314217    -0.223270452780     1.007825032230
         C            0.937515748990     0.430516314217    -0.439400452780    12.000000000000
         O            0.477535748990    -0.435213685783    -1.178570452780    15.994914619570
         N            1.923995748990     0.157486314217     0.452929547220    14.003074004430
         H            2.323765748990     0.912416314217     0.978289547220     1.007825032230
         C            2.512445748990    -1.162103685783     0.530429547220    12.000000000000
         H            1.724265748990    -1.903433685783     0.437409547220     1.007825032230
         H            3.233705748990    -1.334103685783    -0.268110452780     1.007825032230
         H            3.007095748990    -1.277973685783     1.490369547220     1.007825032230

  Charge       = 0
  Multiplicity = 1
  Basis Set: AUG-CC-PVDZ
    Blend: AUG-CC-PVDZ
  Basis Set: (AUG-CC-PVDZ AUX)
    Blend: AUG-CC-PVDZ-JKFIT

    Orbital Energies [Eh]
    ---------------------

    Doubly Occupied:

       1A    -20.520778     2A    -15.593581     3A    -11.354069
       4A    -11.264487     5A    -11.242630     6A     -1.376654
       7A     -1.232321     8A     -1.020855     9A     -0.934224
      10A     -0.791721    11A     -0.690378    12A     -0.652443
      13A     -0.633528    14A     -0.585016    15A     -0.579741
      16A     -0.556870    17A     -0.546998    18A     -0.499252
      19A     -0.419603    20A     -0.390506

  @DF-RHF Final Energy:  -247.04218663156772

   => Energetics <=

    Nuclear Repulsion Energy =            180.7223228705481688
    One-Electron Energy =                -693.7577117327883798
    Two-Electron Energy =                 265.9932022306724662
    Total Energy =                       -247.0421866315677448

  Dipole Moment: [D]
     X:     2.1425      Y:     2.3631      Z:     2.7164     Total:     4.1897

    SAPT Results
  --------------------------------------------------------------------------------------------------------
    Electrostatics                 -3.63395864 [mEh]      -2.28034347 [kcal/mol]      -9.54095709 [kJ/mol]
      Elst10,r                     -3.97205163 [mEh]      -2.49250003 [kcal/mol]     -10.42862012 [kJ/mol]
      Elst12,r                      0.33809299 [mEh]       0.21215656 [kcal/mol]       0.88766303 [kJ/mol]

    Exchange                        1.60851223 [mEh]       1.00935667 [kcal/mol]       4.22314829 [kJ/mol]
      Exch10                        1.29661274 [mEh]       0.81363678 [kcal/mol]       3.40425627 [kJ/mol]
      Exch10(S^2)                   1.29601492 [mEh]       0.81326164 [kcal/mol]       3.40268669 [kJ/mol]
      Exch11(S^2)                  -0.00419517 [mEh]      -0.00263251 [kcal/mol]      -0.01101442 [kJ/mol]
      Exch12(S^2)                   0.31609467 [mEh]       0.19835240 [kcal/mol]       0.82990645 [kJ/mol]

    Induction                      -0.60872020 [mEh]      -0.38197769 [kcal/mol]      -1.59819467 [kJ/mol]
      Ind20,r                      -0.65232297 [mEh]      -0.40933884 [kcal/mol]      -1.71267371 [kJ/mol]
      Ind22                        -0.03963380 [mEh]      -0.02487059 [kcal/mol]      -0.10405854 [kJ/mol]
      Exch-Ind20,r                  0.19495323 [mEh]       0.12233500 [kcal/mol]       0.51184965 [kJ/mol]
      Exch-Ind22                    0.01184496 [mEh]       0.00743282 [kcal/mol]       0.03109893 [kJ/mol]
      delta HF,r (2)               -0.12356162 [mEh]      -0.07753609 [kcal/mol]      -0.32441100 [kJ/mol]

    Dispersion                     -2.80947474 [mEh]      -1.76297202 [kcal/mol]      -7.37627492 [kJ/mol]
      Disp20                       -2.73906176 [mEh]      -1.71878720 [kcal/mol]      -7.19140566 [kJ/mol]
      Disp21                        0.27063637 [mEh]       0.16982689 [kcal/mol]       0.71055570 [kJ/mol]
      Disp22 (SDQ)                 -0.03424155 [mEh]      -0.02148689 [kcal/mol]      -0.08990117 [kJ/mol]
      Disp22 (T)                   -0.42483361 [mEh]      -0.26658711 [kcal/mol]      -1.11540048 [kJ/mol]
      Est. Disp22 (T)              -0.45278461 [mEh]      -0.28412663 [kcal/mol]      -1.18878584 [kJ/mol]
      Exch-Disp20                   0.14597680 [mEh]       0.09160183 [kcal/mol]       0.38326204 [kJ/mol]

  Total HF                         -3.25637025 [mEh]      -2.04340318 [kcal/mol]      -8.54959891 [kJ/mol]
  Total SAPT0                      -5.84945521 [mEh]      -3.67058856 [kcal/mol]     -15.35774253 [kJ/mol]
  Total SAPT2                      -5.22725156 [mEh]      -3.28014988 [kcal/mol]     -13.72414708 [kJ/mol]
  Total SAPT2+                     -5.44364134 [mEh]      -3.41593652 [kcal/mol]     -14.29227838 [kJ/mol]

  Special recipe for scaled SAPT0 (see Manual):
    Electrostatics sSAPT0          -3.97205163 [mEh]      -2.49250003 [kcal/mol]     -10.42862012 [kJ/mol]
    Exchange sSAPT0                 1.29661274 [mEh]       0.81363678 [kcal/mol]       3.40425627 [kJ/mol]
    Induction sSAPT0               -0.58066145 [mEh]      -0.36437056 [kcal/mol]      -1.52452643 [kJ/mol]
    Dispersion sSAPT0              -2.59288286 [mEh]      -1.62705856 [kcal/mol]      -6.80761300 [kJ/mol]
  Total sSAPT0                     -5.84898320 [mEh]      -3.67029237 [kcal/mol]     -15.35650328 [kJ/mol]
  --------------------------------------------------------------------------------------------------------

*** Psi4 exiting successfully. Buy a developer a beer!
