                               Psi4 1.4a2.dev224

  ==> Input File <==

--------------------------------------------------------------------------
#Generated by lconvert.py for sapt job

memory 20 GB

molecule  {
0 1
  N      -0.533460   -0.279590    0.107000
  H      -0.629150   -1.248420    0.382850
  H      -1.122600   -0.166160   -0.707760
  C      -1.016910    0.588490    1.187370
  H      -0.912760    1.625550    0.879520
  H      -2.054740    0.415080    1.478500
  H      -0.385020    0.448800    2.060610
--
0 1
  O       3.235960    1.359830    0.169110
  H       2.418440    0.863550   -0.004040
  H       3.817860    1.101330   -0.546630
units angstrom
no_reorient
symmetry c1
}

set {
scf_type DF
basis aug-cc-pvdz
freeze_core True
guess SAD
}
energy('sapt2+')
--------------------------------------------------------------------------

  //              Dimer HF             //
    Molecular point group: c1
  Charge       = 0
  Multiplicity = 1
  Basis Set: AUG-CC-PVDZ
    Blend: AUG-CC-PVDZ
  Basis Set: (AUG-CC-PVDZ AUX)
    Blend: AUG-CC-PVDZ-JKFIT
  @DF-RHF Final Energy:  -171.27508125135779
    Total Energy =                       -171.2750812513577898
  //            Monomer A HF           //
    Molecular point group: c1
  Multiplicity = 1
  Basis Set: AUG-CC-PVDZ
    Blend: AUG-CC-PVDZ
  Basis Set: (AUG-CC-PVDZ AUX)
    Blend: AUG-CC-PVDZ-JKFIT
  @DF-RHF Final Energy:   -95.23069461024900
    Total Energy =                        -95.2306946102490031
  //            Monomer B HF           //
    Molecular point group: c1

    Geometry (in Angstrom), charge = 0, multiplicity = 1:

       Center              X                  Y                   Z               Mass
    ------------   -----------------  -----------------  -----------------  -----------------
      Gh(N)          -1.210828401239    -0.849601536092    -0.341954180803    14.003074004430
      Gh(H)          -1.306518401239    -1.818431536092    -0.066104180803     1.007825032230
      Gh(H)          -1.799968401239    -0.736171536092    -1.156714180803     1.007825032230
      Gh(C)          -1.694278401239     0.018478463908     0.738415819197    12.000000000000
      Gh(H)          -1.590128401239     1.055538463908     0.430565819197     1.007825032230
      Gh(H)          -2.732108401239    -0.154931536092     1.029545819197     1.007825032230
      Gh(H)          -1.062388401239    -0.121211536092     1.611655819197     1.007825032230
         O            2.558591598761     0.789818463908    -0.279844180803    15.994914619570
         H            1.741071598761     0.293538463908    -0.452994180803     1.007825032230
         H            3.140491598761     0.531318463908    -0.995584180803     1.007825032230

  Charge       = 0
  Multiplicity = 1
  Basis Set: AUG-CC-PVDZ
    Blend: AUG-CC-PVDZ
  Basis Set: (AUG-CC-PVDZ AUX)
    Blend: AUG-CC-PVDZ-JKFIT

    Orbital Energies [Eh]
    ---------------------

    Doubly Occupied:

       1A    -20.578812     2A     -1.353197     3A     -0.713900
       4A     -0.585360     5A     -0.508978

  @DF-RHF Final Energy:   -76.04078907476961

   => Energetics <=

    Nuclear Repulsion Energy =              9.1231225795146322
    One-Electron Energy =                -122.8473288013698976
    Two-Electron Energy =                  37.6834171470856703
    Total Energy =                        -76.0407890747696058

  Dipole Moment: [D]
     X:    -0.3937      Y:    -1.2783      Z:    -1.5090     Total:     2.0165

    SAPT Results
  --------------------------------------------------------------------------------------------------------
    Electrostatics                 -3.50887819 [mEh]      -2.20185431 [kcal/mol]      -9.21255842 [kJ/mol]
      Elst10,r                     -3.59822352 [mEh]      -2.25791935 [kcal/mol]      -9.44713455 [kJ/mol]
      Elst12,r                      0.08934533 [mEh]       0.05606504 [kcal/mol]       0.23457613 [kJ/mol]

    Exchange                        0.41940913 [mEh]       0.26318320 [kcal/mol]       1.10115851 [kJ/mol]
      Exch10                        0.31778773 [mEh]       0.19941481 [kcal/mol]       0.83435156 [kJ/mol]
      Exch10(S^2)                   0.31768241 [mEh]       0.19934872 [kcal/mol]       0.83407506 [kJ/mol]
      Exch11(S^2)                   0.00398783 [mEh]       0.00250240 [kcal/mol]       0.01047003 [kJ/mol]
      Exch12(S^2)                   0.09763357 [mEh]       0.06126599 [kcal/mol]       0.25633692 [kJ/mol]

    Induction                      -0.34715309 [mEh]      -0.21784185 [kcal/mol]      -0.91145031 [kJ/mol]
      Ind20,r                      -0.34165944 [mEh]      -0.21439454 [kcal/mol]      -0.89702674 [kJ/mol]
      Ind22                        -0.03862060 [mEh]      -0.02423479 [kcal/mol]      -0.10139837 [kJ/mol]
      Exch-Ind20,r                  0.07606319 [mEh]       0.04773038 [kcal/mol]       0.19970389 [kJ/mol]
      Exch-Ind22                    0.00859805 [mEh]       0.00539536 [kcal/mol]       0.02257419 [kJ/mol]
      delta HF,r (2)               -0.05153430 [mEh]      -0.03233826 [kcal/mol]      -0.13530328 [kJ/mol]

    Dispersion                     -0.71440849 [mEh]      -0.44829810 [kcal/mol]      -1.87567923 [kJ/mol]
      Disp20                       -0.64467331 [mEh]      -0.40453861 [kcal/mol]      -1.69258953 [kJ/mol]
      Disp21                        0.02800865 [mEh]       0.01757570 [kcal/mol]       0.07353671 [kJ/mol]
      Disp22 (SDQ)                 -0.02086612 [mEh]      -0.01309369 [kcal/mol]      -0.05478398 [kJ/mol]
      Disp22 (T)                   -0.09691477 [mEh]      -0.06081494 [kcal/mol]      -0.25444969 [kJ/mol]
      Est. Disp22 (T)              -0.10608506 [mEh]      -0.06656938 [kcal/mol]      -0.27852628 [kJ/mol]
      Exch-Disp20                   0.02920733 [mEh]       0.01832788 [kcal/mol]       0.07668385 [kJ/mol]

  Total HF                         -3.59756634 [mEh]      -2.25750696 [kcal/mol]      -9.44540912 [kJ/mol]
  Total SAPT0                      -4.21303231 [mEh]      -2.64371769 [kcal/mol]     -11.06131481 [kJ/mol]
  Total SAPT2                      -4.05208813 [mEh]      -2.54272369 [kcal/mol]     -10.63875591 [kJ/mol]
  Total SAPT2+                     -4.15103064 [mEh]      -2.60481106 [kcal/mol]     -10.89852946 [kJ/mol]

  Special recipe for scaled SAPT0 (see Manual):
    Electrostatics sSAPT0          -3.59822352 [mEh]      -2.25791935 [kcal/mol]      -9.44713455 [kJ/mol]
    Exchange sSAPT0                 0.31778773 [mEh]       0.19941481 [kcal/mol]       0.83435156 [kJ/mol]
    Induction sSAPT0               -0.31705487 [mEh]      -0.19895494 [kcal/mol]      -0.83242746 [kJ/mol]
    Dispersion sSAPT0              -0.61543691 [mEh]      -0.38619249 [kcal/mol]      -1.61582940 [kJ/mol]
  Total sSAPT0                     -4.21292758 [mEh]      -2.64365197 [kcal/mol]     -11.06103985 [kJ/mol]
  --------------------------------------------------------------------------------------------------------

*** Psi4 exiting successfully. Buy a developer a beer!
