                               Psi4 1.4a2.dev224

  ==> Input File <==

--------------------------------------------------------------------------
#Generated by lconvert.py for sapt job

memory 20 GB

molecule  {
0 1
  N      -0.533460   -0.279590    0.107000
  H      -0.629150   -1.248420    0.382850
  H      -1.122600   -0.166160   -0.707760
  C      -1.016910    0.588490    1.187370
  H      -0.912760    1.625550    0.879520
  H      -2.054740    0.415080    1.478500
  H      -0.385020    0.448800    2.060610
--
0 1
  O       2.682490    1.145490    0.189930
  H       1.864980    0.649220    0.016780
  H       3.264390    0.886990   -0.525810
units angstrom
no_reorient
symmetry c1
}

set {
scf_type DF
basis aug-cc-pvdz
freeze_core True
guess SAD
}
energy('sapt2+')
--------------------------------------------------------------------------

  //              Dimer HF             //
    Molecular point group: c1
  Charge       = 0
  Multiplicity = 1
  Basis Set: AUG-CC-PVDZ
    Blend: AUG-CC-PVDZ
  Basis Set: (AUG-CC-PVDZ AUX)
    Blend: AUG-CC-PVDZ-JKFIT
  @DF-RHF Final Energy:  -171.27783845473348
    Total Energy =                       -171.2778384547334838
  //            Monomer A HF           //
    Molecular point group: c1
  Multiplicity = 1
  Basis Set: AUG-CC-PVDZ
    Blend: AUG-CC-PVDZ
  Basis Set: (AUG-CC-PVDZ AUX)
    Blend: AUG-CC-PVDZ-JKFIT
  @DF-RHF Final Energy:   -95.23085242614019
    Total Energy =                        -95.2308524261401885
  //            Monomer B HF           //
    Molecular point group: c1

    Geometry (in Angstrom), charge = 0, multiplicity = 1:

       Center              X                  Y                   Z               Mass
    ------------   -----------------  -----------------  -----------------  -----------------
      Gh(N)          -1.007612590852    -0.770903129454    -0.349598601368    14.003074004430
      Gh(H)          -1.103302590852    -1.739733129454    -0.073748601368     1.007825032230
      Gh(H)          -1.596752590852    -0.657473129454    -1.164358601368     1.007825032230
      Gh(C)          -1.491062590852     0.097176870546     0.730771398632    12.000000000000
      Gh(H)          -1.386912590852     1.134236870546     0.422921398632     1.007825032230
      Gh(H)          -2.528892590852    -0.076233129454     1.021901398632     1.007825032230
      Gh(H)          -0.859172590852    -0.042513129454     1.604011398632     1.007825032230
         O            2.208337409148     0.654176870546    -0.266668601368    15.994914619570
         H            1.390827409148     0.157906870546    -0.439818601368     1.007825032230
         H            2.790237409148     0.395676870546    -0.982408601368     1.007825032230

  Charge       = 0
  Multiplicity = 1
  Basis Set: AUG-CC-PVDZ
    Blend: AUG-CC-PVDZ
  Basis Set: (AUG-CC-PVDZ AUX)
    Blend: AUG-CC-PVDZ-JKFIT

    Orbital Energies [Eh]
    ---------------------

    Doubly Occupied:

       1A    -20.578759     2A     -1.353190     3A     -0.713894
       4A     -0.585323     5A     -0.508941

  @DF-RHF Final Energy:   -76.04085106611927

   => Energetics <=

    Nuclear Repulsion Energy =              9.1231856304356125
    One-Electron Energy =                -122.8478603255600348
    Two-Electron Energy =                  37.6838236290051469
    Total Energy =                        -76.0408510661192736

  Dipole Moment: [D]
     X:    -0.3937      Y:    -1.2785      Z:    -1.5091     Total:     2.0167

    SAPT Results
  --------------------------------------------------------------------------------------------------------
    Electrostatics                 -7.21329611 [mEh]      -4.52641165 [kcal/mol]     -18.93850633 [kJ/mol]
      Elst10,r                     -7.25800521 [mEh]      -4.55446703 [kcal/mol]     -19.05589006 [kJ/mol]
      Elst12,r                      0.04470910 [mEh]       0.02805539 [kcal/mol]       0.11738374 [kJ/mol]

    Exchange                        2.89957658 [mEh]       1.81951178 [kcal/mol]       7.61283727 [kJ/mol]
      Exch10                        2.34860523 [mEh]       1.47377203 [kcal/mol]       6.16626217 [kJ/mol]
      Exch10(S^2)                   2.34393792 [mEh]       1.47084325 [kcal/mol]       6.15400816 [kJ/mol]
      Exch11(S^2)                   0.03316697 [mEh]       0.02081259 [kcal/mol]       0.08707986 [kJ/mol]
      Exch12(S^2)                   0.51780439 [mEh]       0.32492716 [kcal/mol]       1.35949524 [kJ/mol]

    Induction                      -1.34713276 [mEh]      -0.84533857 [kcal/mol]      -3.53689658 [kJ/mol]
      Ind20,r                      -1.46096586 [mEh]      -0.91676992 [kcal/mol]      -3.83576535 [kJ/mol]
      Ind22                        -0.20265441 [mEh]      -0.12716756 [kcal/mol]      -0.53206908 [kJ/mol]
      Exch-Ind20,r                  0.58454761 [mEh]       0.36680916 [kcal/mol]       1.53472954 [kJ/mol]
      Exch-Ind22                    0.08108413 [mEh]       0.05088106 [kcal/mol]       0.21288636 [kJ/mol]
      delta HF,r (2)               -0.34914423 [mEh]      -0.21909131 [kcal/mol]      -0.91667806 [kJ/mol]

    Dispersion                     -1.92451915 [mEh]      -1.20765400 [kcal/mol]      -5.05282434 [kJ/mol]
      Disp20                       -1.82588860 [mEh]      -1.14576239 [kcal/mol]      -4.79386985 [kJ/mol]
      Disp21                        0.07035409 [mEh]       0.04414785 [kcal/mol]       0.18471463 [kJ/mol]
      Disp22 (SDQ)                 -0.05911582 [mEh]      -0.03709574 [kcal/mol]      -0.15520857 [kJ/mol]
      Disp22 (T)                   -0.26764219 [mEh]      -0.16794801 [kcal/mol]      -0.70269448 [kJ/mol]
      Est. Disp22 (T)              -0.29540571 [mEh]      -0.18536988 [kcal/mol]      -0.77558757 [kJ/mol]
      Exch-Disp20                   0.18553688 [mEh]       0.11642615 [kcal/mol]       0.48712702 [kJ/mol]

  Total HF                         -6.13496247 [mEh]      -3.84974707 [kcal/mol]     -16.10734176 [kJ/mol]
  Total SAPT0                      -7.77531419 [mEh]      -4.87908331 [kcal/mol]     -20.41408459 [kJ/mol]
  Total SAPT2                      -7.30120400 [mEh]      -4.58157468 [kcal/mol]     -19.16930846 [kJ/mol]
  Total SAPT2+                     -7.58537144 [mEh]      -4.75989244 [kcal/mol]     -19.91538998 [kJ/mol]

  Special recipe for scaled SAPT0 (see Manual):
    Electrostatics sSAPT0          -7.25800521 [mEh]      -4.55446703 [kcal/mol]     -19.05589006 [kJ/mol]
    Exchange sSAPT0                 2.34860523 [mEh]       1.47377203 [kcal/mol]       6.16626217 [kJ/mol]
    Induction sSAPT0               -1.22206363 [mEh]      -0.76685651 [kcal/mol]      -3.20852763 [kJ/mol]
    Dispersion sSAPT0              -1.63924117 [mEh]      -1.02863936 [kcal/mol]      -4.30382709 [kJ/mol]
  Total sSAPT0                     -7.77070479 [mEh]      -4.87619087 [kcal/mol]     -20.40198261 [kJ/mol]
  --------------------------------------------------------------------------------------------------------

*** Psi4 exiting successfully. Buy a developer a beer!
