                               Psi4 1.4a2.dev224

  ==> Input File <==

--------------------------------------------------------------------------
#Generated by lconvert.py for sapt job

memory 20 GB

molecule  {
0 1
  N      -0.533460   -0.279590    0.107000
  H      -0.629150   -1.248420    0.382850
  H      -1.122600   -0.166160   -0.707760
  C      -1.016910    0.588490    1.187370
  H      -0.912760    1.625550    0.879520
  H      -2.054740    0.415080    1.478500
  H      -0.385020    0.448800    2.060610
--
0 1
  O       3.789420    1.574160    0.148290
  H       2.971910    1.077880   -0.024860
  H       4.371320    1.315660   -0.567450
units angstrom
no_reorient
symmetry c1
}

set {
scf_type DF
basis aug-cc-pvdz
freeze_core True
guess SAD
}
energy('sapt2+')
--------------------------------------------------------------------------

  //              Dimer HF             //
    Molecular point group: c1
  Charge       = 0
  Multiplicity = 1
  Basis Set: AUG-CC-PVDZ
    Blend: AUG-CC-PVDZ
  Basis Set: (AUG-CC-PVDZ AUX)
    Blend: AUG-CC-PVDZ-JKFIT
  @DF-RHF Final Energy:  -171.27353481306056
    Total Energy =                       -171.2735348130605644
  //            Monomer A HF           //
    Molecular point group: c1
  Multiplicity = 1
  Basis Set: AUG-CC-PVDZ
    Blend: AUG-CC-PVDZ
  Basis Set: (AUG-CC-PVDZ AUX)
    Blend: AUG-CC-PVDZ-JKFIT
  @DF-RHF Final Energy:   -95.23065526467371
    Total Energy =                        -95.2306552646737146
  //            Monomer B HF           //
    Molecular point group: c1

    Geometry (in Angstrom), charge = 0, multiplicity = 1:

       Center              X                  Y                   Z               Mass
    ------------   -----------------  -----------------  -----------------  -----------------
      Gh(N)          -1.414040950869    -0.928296476515    -0.334309760239    14.003074004430
      Gh(H)          -1.509730950869    -1.897126476515    -0.058459760239     1.007825032230
      Gh(H)          -2.003180950869    -0.814866476515    -1.149069760239     1.007825032230
      Gh(C)          -1.897490950869    -0.060216476515     0.746060239761    12.000000000000
      Gh(H)          -1.793340950869     0.976843523485     0.438210239761     1.007825032230
      Gh(H)          -2.935320950869    -0.233626476515     1.037190239761     1.007825032230
      Gh(H)          -1.265600950869    -0.199906476515     1.619300239761     1.007825032230
         O            2.908839049131     0.925453523485    -0.293019760239    15.994914619570
         H            2.091329049131     0.429173523485    -0.466169760239     1.007825032230
         H            3.490739049131     0.666953523485    -1.008759760239     1.007825032230

  Charge       = 0
  Multiplicity = 1
  Basis Set: AUG-CC-PVDZ
    Blend: AUG-CC-PVDZ
  Basis Set: (AUG-CC-PVDZ AUX)
    Blend: AUG-CC-PVDZ-JKFIT

    Orbital Energies [Eh]
    ---------------------

    Doubly Occupied:

       1A    -20.578829     2A     -1.353198     3A     -0.713902
       4A     -0.585373     5A     -0.508990

  @DF-RHF Final Energy:   -76.04076687664433

   => Energetics <=

    Nuclear Repulsion Energy =              9.1231623870998959
    One-Electron Energy =                -122.8472756454221582
    Two-Electron Energy =                  37.6833463816779215
    Total Energy =                        -76.0407668766443408

  Dipole Moment: [D]
     X:    -0.3936      Y:    -1.2782      Z:    -1.5088     Total:     2.0162

    SAPT Results
  --------------------------------------------------------------------------------------------------------
    Electrostatics                 -1.98002819 [mEh]      -1.24248645 [kcal/mol]      -5.19856330 [kJ/mol]
      Elst10,r                     -2.05209770 [mEh]      -1.28771075 [kcal/mol]      -5.38778177 [kJ/mol]
      Elst12,r                      0.07206951 [mEh]       0.04522430 [kcal/mol]       0.18921846 [kJ/mol]

    Exchange                        0.05976898 [mEh]       0.03750560 [kcal/mol]       0.15692343 [kJ/mol]
      Exch10                        0.04239127 [mEh]       0.02660092 [kcal/mol]       0.11129826 [kJ/mol]
      Exch10(S^2)                   0.04238900 [mEh]       0.02659950 [kcal/mol]       0.11129229 [kJ/mol]
      Exch11(S^2)                   0.00041919 [mEh]       0.00026305 [kcal/mol]       0.00110059 [kJ/mol]
      Exch12(S^2)                   0.01695852 [mEh]       0.01064163 [kcal/mol]       0.04452458 [kJ/mol]

    Induction                      -0.10998809 [mEh]      -0.06901857 [kcal/mol]      -0.28877370 [kJ/mol]
      Ind20,r                      -0.10409459 [mEh]      -0.06532034 [kcal/mol]      -0.27330032 [kJ/mol]
      Ind22                        -0.00776830 [mEh]      -0.00487468 [kcal/mol]      -0.02039566 [kJ/mol]
      Exch-Ind20,r                  0.00998986 [mEh]       0.00626873 [kcal/mol]       0.02622837 [kJ/mol]
      Exch-Ind22                    0.00074552 [mEh]       0.00046782 [kcal/mol]       0.00195735 [kJ/mol]
      delta HF,r (2)               -0.00886058 [mEh]      -0.00556010 [kcal/mol]      -0.02326345 [kJ/mol]

    Dispersion                     -0.29197327 [mEh]      -0.18321600 [kcal/mol]      -0.76657572 [kJ/mol]
      Disp20                       -0.26123198 [mEh]      -0.16392554 [kcal/mol]      -0.68586447 [kJ/mol]
      Disp21                        0.01508577 [mEh]       0.00946647 [kcal/mol]       0.03960770 [kJ/mol]
      Disp22 (SDQ)                 -0.00725321 [mEh]      -0.00455146 [kcal/mol]      -0.01904329 [kJ/mol]
      Disp22 (T)                   -0.04013533 [mEh]      -0.02518530 [kcal/mol]      -0.10537529 [kJ/mol]
      Est. Disp22 (T)              -0.04314494 [mEh]      -0.02707386 [kcal/mol]      -0.11327703 [kJ/mol]
      Exch-Disp20                   0.00457108 [mEh]       0.00286840 [kcal/mol]       0.01200138 [kJ/mol]

  Total HF                         -2.11267174 [mEh]      -1.32572153 [kcal/mol]      -5.54681890 [kJ/mol]
  Total SAPT0                      -2.36933264 [mEh]      -1.48677868 [kcal/mol]      -6.22068199 [kJ/mol]
  Total SAPT2                      -2.28690820 [mEh]      -1.43505656 [kcal/mol]      -6.00427666 [kJ/mol]
  Total SAPT2+                     -2.32222058 [mEh]      -1.45721541 [kcal/mol]      -6.09698929 [kJ/mol]

  Special recipe for scaled SAPT0 (see Manual):
    Electrostatics sSAPT0          -2.05209770 [mEh]      -1.28771075 [kcal/mol]      -5.38778177 [kJ/mol]
    Exchange sSAPT0                 0.04239127 [mEh]       0.02660092 [kcal/mol]       0.11129826 [kJ/mol]
    Induction sSAPT0               -0.10296371 [mEh]      -0.06461070 [kcal/mol]      -0.27033117 [kJ/mol]
    Dispersion sSAPT0              -0.25666016 [mEh]      -0.16105668 [kcal/mol]      -0.67386116 [kJ/mol]
  Total sSAPT0                     -2.36933030 [mEh]      -1.48677721 [kcal/mol]      -6.22067584 [kJ/mol]
  --------------------------------------------------------------------------------------------------------

*** Psi4 exiting successfully. Buy a developer a beer!
