                               Psi4 1.4a2.dev224

  ==> Input File <==

--------------------------------------------------------------------------
#Generated by lconvert.py for sapt job

memory 20 GB

molecule  {
0 1
  C      -0.849320   -0.339500    2.491720
  H       0.184340   -0.011050    2.416190
  H      -0.882500   -1.342050    2.912700
  H      -1.390800    0.316880    3.168430
  C      -1.564030   -0.353320    1.159480
  O      -2.749530   -0.651540    1.056760
  N      -0.801650   -0.027360    0.088340
  H       0.161190    0.240360    0.218710
  C      -1.385350   -0.002350   -1.234140
  H      -1.891620   -0.942800   -1.440100
  H      -2.119970    0.796210   -1.330880
  H      -0.594650    0.149570   -1.963130
--
0 1
  O       3.362350    0.259250    0.599450
  H       4.083210    0.886540    0.689860
  C       3.881440   -1.046120    0.833330
  H       3.048860   -1.734910    0.727760
  H       4.647570   -1.315110    0.106450
  H       4.289530   -1.147570    1.838970
units angstrom
no_reorient
symmetry c1
}

set {
scf_type DF
basis aug-cc-pvdz
freeze_core True
guess SAD
}
energy('sapt2+')
--------------------------------------------------------------------------

  //              Dimer HF             //
    Molecular point group: c1
  Charge       = 0
  Multiplicity = 1
  Basis Set: AUG-CC-PVDZ
    Blend: AUG-CC-PVDZ
  Basis Set: (AUG-CC-PVDZ AUX)
    Blend: AUG-CC-PVDZ-JKFIT
  @DF-RHF Final Energy:  -362.10687473654303
    Total Energy =                       -362.1068747365430340
  //            Monomer A HF           //
    Molecular point group: c1
  Multiplicity = 1
  Basis Set: AUG-CC-PVDZ
    Blend: AUG-CC-PVDZ
  Basis Set: (AUG-CC-PVDZ AUX)
    Blend: AUG-CC-PVDZ-JKFIT
  @DF-RHF Final Energy:  -247.04197529732770
    Total Energy =                       -247.0419752973276672
  //            Monomer B HF           //
    Molecular point group: c1

    Geometry (in Angstrom), charge = 0, multiplicity = 1:

       Center              X                  Y                   Z               Mass
    ------------   -----------------  -----------------  -----------------  -----------------
      Gh(C)          -0.936674220209    -0.037924052383     1.786202258608    12.000000000000
      Gh(H)           0.096985779791     0.290525947617     1.710672258608     1.007825032230
      Gh(H)          -0.969854220209    -1.040474052383     2.207182258608     1.007825032230
      Gh(H)          -1.478154220209     0.618455947617     2.462912258608     1.007825032230
      Gh(C)          -1.651384220209    -0.051744052383     0.453962258608    12.000000000000
      Gh(O)          -2.836884220209    -0.349964052383     0.351242258608    15.994914619570
      Gh(N)          -0.889004220209     0.274215947617    -0.617177741392    14.003074004430
      Gh(H)           0.073835779791     0.541935947617    -0.486807741392     1.007825032230
      Gh(C)          -1.472704220209     0.299225947617    -1.939657741392    12.000000000000
      Gh(H)          -1.978974220209    -0.641224052383    -2.145617741392     1.007825032230
      Gh(H)          -2.207324220209     1.097785947617    -2.036397741392     1.007825032230
      Gh(H)          -0.682004220209     0.451145947617    -2.668647741392     1.007825032230
         O            3.274995779791     0.560825947617    -0.106067741392    15.994914619570
         H            3.995855779791     1.188115947617    -0.015657741392     1.007825032230
         C            3.794085779791    -0.744544052383     0.127812258608    12.000000000000
         H            2.961505779791    -1.433334052383     0.022242258608     1.007825032230
         H            4.560215779791    -1.013534052383    -0.599067741392     1.007825032230
         H            4.202175779791    -0.845994052383     1.133452258608     1.007825032230

  Charge       = 0
  Multiplicity = 1
  Basis Set: AUG-CC-PVDZ
    Blend: AUG-CC-PVDZ
  Basis Set: (AUG-CC-PVDZ AUX)
    Blend: AUG-CC-PVDZ-JKFIT

    Orbital Energies [Eh]
    ---------------------

    Doubly Occupied:

       1A    -20.568304     2A    -11.278588     3A     -1.359941
       4A     -0.928316     5A     -0.691443     6A     -0.620334
       7A     -0.592824     8A     -0.504740     9A     -0.451190

  @DF-RHF Final Energy:  -115.06158119344391

   => Energetics <=

    Nuclear Repulsion Energy =             40.3037140232261279
    One-Electron Energy =                -236.7392297075366514
    Two-Electron Energy =                  81.3739344908666169
    Total Energy =                       -115.0615811934439137

  Dipole Moment: [D]
     X:     1.7177      Y:    -0.4516      Z:     0.4033     Total:     1.8213

    SAPT Results
  --------------------------------------------------------------------------------------------------------
    Electrostatics                 -2.90195963 [mEh]      -1.82100716 [kcal/mol]      -7.61909396 [kJ/mol]
      Elst10,r                     -3.20919644 [mEh]      -2.01380117 [kcal/mol]      -8.42574410 [kJ/mol]
      Elst12,r                      0.30723681 [mEh]       0.19279401 [kcal/mol]       0.80665014 [kJ/mol]

    Exchange                        0.19682000 [mEh]       0.12350641 [kcal/mol]       0.51675083 [kJ/mol]
      Exch10                        0.14412157 [mEh]       0.09043765 [kcal/mol]       0.37839113 [kJ/mol]
      Exch10(S^2)                   0.14410678 [mEh]       0.09042837 [kcal/mol]       0.37835229 [kJ/mol]
      Exch11(S^2)                  -0.00474831 [mEh]      -0.00297961 [kcal/mol]      -0.01246669 [kJ/mol]
      Exch12(S^2)                   0.05744674 [mEh]       0.03604837 [kcal/mol]       0.15082638 [kJ/mol]

    Induction                      -0.24960569 [mEh]      -0.15662993 [kcal/mol]      -0.65533964 [kJ/mol]
      Ind20,r                      -0.24124477 [mEh]      -0.15138338 [kcal/mol]      -0.63338806 [kJ/mol]
      Ind22                         0.00384276 [mEh]       0.00241137 [kcal/mol]       0.01008917 [kJ/mol]
      Exch-Ind20,r                  0.01742432 [mEh]       0.01093393 [kcal/mol]       0.04574755 [kJ/mol]
      Exch-Ind22                   -0.00027755 [mEh]      -0.00017417 [kcal/mol]      -0.00072871 [kJ/mol]
      delta HF,r (2)               -0.02935045 [mEh]      -0.01841768 [kcal/mol]      -0.07705959 [kJ/mol]

    Dispersion                     -0.98752193 [mEh]      -0.61967936 [kcal/mol]      -2.59273846 [kJ/mol]
      Disp20                       -0.92115969 [mEh]      -0.57803644 [kcal/mol]      -2.41850444 [kJ/mol]
      Disp21                        0.09484175 [mEh]       0.05951410 [kcal/mol]       0.24900699 [kJ/mol]
      Disp22 (SDQ)                 -0.02449353 [mEh]      -0.01536992 [kcal/mol]      -0.06430775 [kJ/mol]
      Disp22 (T)                   -0.14776758 [mEh]      -0.09272556 [kcal/mol]      -0.38796374 [kJ/mol]
      Est. Disp22 (T)              -0.15401766 [mEh]      -0.09664754 [kcal/mol]      -0.40437332 [kJ/mol]
      Exch-Disp20                   0.01730721 [mEh]       0.01086044 [kcal/mol]       0.04544006 [kJ/mol]

  Total HF                         -3.31824577 [mEh]      -2.08223066 [kcal/mol]      -8.71205307 [kJ/mol]
  Total SAPT0                      -4.22209826 [mEh]      -2.64940666 [kcal/mol]     -11.08511746 [kJ/mol]
  Total SAPT2                      -3.85859781 [mEh]      -2.42130668 [kcal/mol]     -10.13074715 [kJ/mol]
  Total SAPT2+                     -3.94226725 [mEh]      -2.47381005 [kcal/mol]     -10.35042123 [kJ/mol]

  Special recipe for scaled SAPT0 (see Manual):
    Electrostatics sSAPT0          -3.20919644 [mEh]      -2.01380117 [kcal/mol]      -8.42574410 [kJ/mol]
    Exchange sSAPT0                 0.14412157 [mEh]       0.09043765 [kcal/mol]       0.37839113 [kJ/mol]
    Induction sSAPT0               -0.25316553 [mEh]      -0.15886377 [kcal/mol]      -0.66468601 [kJ/mol]
    Dispersion sSAPT0              -0.90384716 [mEh]      -0.56717265 [kcal/mol]      -2.37305039 [kJ/mol]
  Total sSAPT0                     -4.22208756 [mEh]      -2.64939995 [kcal/mol]     -11.08508937 [kJ/mol]
  --------------------------------------------------------------------------------------------------------

*** Psi4 exiting successfully. Buy a developer a beer!
