                               Psi4 1.4a2.dev224

  ==> Input File <==

--------------------------------------------------------------------------
#Generated by lconvert.py for sapt job

memory 20 GB

molecule  {
0 1
  C      -0.849320   -0.339500    2.491720
  H       0.184340   -0.011050    2.416190
  H      -0.882500   -1.342050    2.912700
  H      -1.390800    0.316880    3.168430
  C      -1.564030   -0.353320    1.159480
  O      -2.749530   -0.651540    1.056760
  N      -0.801650   -0.027360    0.088340
  H       0.161190    0.240360    0.218710
  C      -1.385350   -0.002350   -1.234140
  H      -1.891620   -0.942800   -1.440100
  H      -2.119970    0.796210   -1.330880
  H      -0.594650    0.149570   -1.963130
--
0 1
  O       2.762150    0.255710    0.528060
  H       3.483010    0.883000    0.618480
  C       3.281240   -1.049660    0.761950
  H       2.448670   -1.738450    0.656370
  H       4.047380   -1.318650    0.035060
  H       3.689330   -1.151110    1.767580
units angstrom
no_reorient
symmetry c1
}

set {
scf_type DF
basis aug-cc-pvdz
freeze_core True
guess SAD
}
energy('sapt2+')
--------------------------------------------------------------------------

  //              Dimer HF             //
    Molecular point group: c1
  Charge       = 0
  Multiplicity = 1
  Basis Set: AUG-CC-PVDZ
    Blend: AUG-CC-PVDZ
  Basis Set: (AUG-CC-PVDZ AUX)
    Blend: AUG-CC-PVDZ-JKFIT
  @DF-RHF Final Energy:  -362.10877102807149
    Total Energy =                       -362.1087710280714873
  //            Monomer A HF           //
    Molecular point group: c1
  Multiplicity = 1
  Basis Set: AUG-CC-PVDZ
    Blend: AUG-CC-PVDZ
  Basis Set: (AUG-CC-PVDZ AUX)
    Blend: AUG-CC-PVDZ-JKFIT
  @DF-RHF Final Energy:  -247.04206388253567
    Total Energy =                       -247.0420638825356718
  //            Monomer B HF           //
    Molecular point group: c1

    Geometry (in Angstrom), charge = 0, multiplicity = 1:

       Center              X                  Y                   Z               Mass
    ------------   -----------------  -----------------  -----------------  -----------------
      Gh(C)          -0.753744064321    -0.036845122974     1.807959430433    12.000000000000
      Gh(H)           0.279915935679     0.291604877026     1.732429430433     1.007825032230
      Gh(H)          -0.786924064321    -1.039395122974     2.228939430433     1.007825032230
      Gh(H)          -1.295224064321     0.619534877026     2.484669430433     1.007825032230
      Gh(C)          -1.468454064321    -0.050665122974     0.475719430433    12.000000000000
      Gh(O)          -2.653954064321    -0.348885122974     0.372999430433    15.994914619570
      Gh(N)          -0.706074064321     0.275294877026    -0.595420569567    14.003074004430
      Gh(H)           0.256765935679     0.543014877026    -0.465050569567     1.007825032230
      Gh(C)          -1.289774064321     0.300304877026    -1.917900569567    12.000000000000
      Gh(H)          -1.796044064321    -0.640145122974    -2.123860569567     1.007825032230
      Gh(H)          -2.024394064321     1.098864877026    -2.014640569567     1.007825032230
      Gh(H)          -0.499074064321     0.452224877026    -2.646890569567     1.007825032230
         O            2.857725935679     0.558364877026    -0.155700569567    15.994914619570
         H            3.578585935679     1.185654877026    -0.065280569567     1.007825032230
         C            3.376815935679    -0.747005122974     0.078189430433    12.000000000000
         H            2.544245935679    -1.435795122974    -0.027390569567     1.007825032230
         H            4.142955935679    -1.015995122974    -0.648700569567     1.007825032230
         H            3.784905935679    -0.848455122974     1.083819430433     1.007825032230

  Charge       = 0
  Multiplicity = 1
  Basis Set: AUG-CC-PVDZ
    Blend: AUG-CC-PVDZ
  Basis Set: (AUG-CC-PVDZ AUX)
    Blend: AUG-CC-PVDZ-JKFIT

    Orbital Energies [Eh]
    ---------------------

    Doubly Occupied:

       1A    -20.568329     2A    -11.278519     3A     -1.359910
       4A     -0.928302     5A     -0.691419     6A     -0.620308
       7A     -0.592808     8A     -0.504735     9A     -0.451167

  @DF-RHF Final Energy:  -115.06167750139434

   => Energetics <=

    Nuclear Repulsion Energy =             40.3036919570292724
    One-Electron Energy =                -236.7397420251016342
    Two-Electron Energy =                  81.3743725666780051
    Total Energy =                       -115.0616775013943425

  Dipole Moment: [D]
     X:     1.7168      Y:    -0.4502      Z:     0.4030     Total:     1.8200

    SAPT Results
  --------------------------------------------------------------------------------------------------------
    Electrostatics                 -5.16172360 [mEh]      -3.23903046 [kcal/mol]     -13.55210346 [kJ/mol]
      Elst10,r                     -5.51091359 [mEh]      -3.45815049 [kcal/mol]     -14.46890164 [kJ/mol]
      Elst12,r                      0.34918998 [mEh]       0.21912002 [kcal/mol]       0.91679818 [kJ/mol]

    Exchange                        1.57676810 [mEh]       0.98943692 [kcal/mol]       4.13980408 [kJ/mol]
      Exch10                        1.23213306 [mEh]       0.77317517 [kcal/mol]       3.23496489 [kJ/mol]
      Exch10(S^2)                   1.23119979 [mEh]       0.77258953 [kcal/mol]       3.23251461 [kJ/mol]
      Exch11(S^2)                  -0.02400597 [mEh]      -0.01506397 [kcal/mol]      -0.06302766 [kJ/mol]
      Exch12(S^2)                   0.36864101 [mEh]       0.23132573 [kcal/mol]       0.96786685 [kJ/mol]

    Induction                      -0.79310292 [mEh]      -0.49767960 [kcal/mol]      -2.08229144 [kJ/mol]
      Ind20,r                      -0.76329594 [mEh]      -0.47897543 [kcal/mol]      -2.00403321 [kJ/mol]
      Ind22                        -0.05558660 [mEh]      -0.03488112 [kcal/mol]      -0.14594259 [kJ/mol]
      Exch-Ind20,r                  0.18328022 [mEh]       0.11501007 [kcal/mol]       0.48120215 [kJ/mol]
      Exch-Ind22                    0.01334728 [mEh]       0.00837554 [kcal/mol]       0.03504327 [kJ/mol]
      delta HF,r (2)               -0.17084789 [mEh]      -0.10720867 [kcal/mol]      -0.44856107 [kJ/mol]

    Dispersion                     -2.36149311 [mEh]      -1.48185930 [kcal/mol]      -6.20009931 [kJ/mol]
      Disp20                       -2.23499548 [mEh]      -1.40248084 [kcal/mol]      -5.86797983 [kJ/mol]
      Disp21                        0.19178905 [mEh]       0.12034945 [kcal/mol]       0.50354209 [kJ/mol]
      Disp22 (SDQ)                 -0.06684607 [mEh]      -0.04194654 [kcal/mol]      -0.17550433 [kJ/mol]
      Disp22 (T)                   -0.34694859 [mEh]      -0.21771352 [kcal/mol]      -0.91091339 [kJ/mol]
      Est. Disp22 (T)              -0.36936692 [mEh]      -0.23178124 [kcal/mol]      -0.96977271 [kJ/mol]
      Exch-Disp20                   0.11792630 [mEh]       0.07399987 [kcal/mol]       0.30961547 [kJ/mol]

  Total HF                         -5.02964414 [mEh]      -3.15614935 [kcal/mol]     -13.20532887 [kJ/mol]
  Total SAPT0                      -7.14671332 [mEh]      -4.48463031 [kcal/mol]     -18.76369323 [kJ/mol]
  Total SAPT2                      -6.49512760 [mEh]      -4.07575410 [kcal/mol]     -17.05295517 [kJ/mol]
  Total SAPT2+                     -6.73955154 [mEh]      -4.22913244 [kcal/mol]     -17.69469012 [kJ/mol]

  Special recipe for scaled SAPT0 (see Manual):
    Electrostatics sSAPT0          -5.51091359 [mEh]      -3.45815049 [kcal/mol]     -14.46890164 [kJ/mol]
    Exchange sSAPT0                 1.23213306 [mEh]       0.77317517 [kcal/mol]       3.23496489 [kJ/mol]
    Induction sSAPT0               -0.75044651 [mEh]      -0.47091229 [kcal/mol]      -1.97029703 [kJ/mol]
    Dispersion sSAPT0              -2.11680081 [mEh]      -1.32831256 [kcal/mol]      -5.55765975 [kJ/mol]
  Total sSAPT0                     -7.14602785 [mEh]      -4.48420017 [kcal/mol]     -18.76189352 [kJ/mol]
  --------------------------------------------------------------------------------------------------------

*** Psi4 exiting successfully. Buy a developer a beer!
