                               Psi4 1.4a2.dev224

  ==> Input File <==

--------------------------------------------------------------------------
#Generated by lconvert.py for sapt job

memory 20 GB

molecule  {
0 1
  C      -0.849320   -0.339500    2.491720
  H       0.184340   -0.011050    2.416190
  H      -0.882500   -1.342050    2.912700
  H      -1.390800    0.316880    3.168430
  C      -1.564030   -0.353320    1.159480
  O      -2.749530   -0.651540    1.056760
  N      -0.801650   -0.027360    0.088340
  H       0.161190    0.240360    0.218710
  C      -1.385350   -0.002350   -1.234140
  H      -1.891620   -0.942800   -1.440100
  H      -2.119970    0.796210   -1.330880
  H      -0.594650    0.149570   -1.963130
--
0 1
  O       3.962550    0.262780    0.670830
  H       4.683400    0.890080    0.761250
  C       4.481630   -1.042580    0.904720
  H       3.649060   -1.731370    0.799140
  H       5.247770   -1.311570    0.177830
  H       4.889730   -1.144030    1.910350
units angstrom
no_reorient
symmetry c1
}

set {
scf_type DF
basis aug-cc-pvdz
freeze_core True
guess SAD
}
energy('sapt2+')
--------------------------------------------------------------------------

  //              Dimer HF             //
    Molecular point group: c1
  Charge       = 0
  Multiplicity = 1
  Basis Set: AUG-CC-PVDZ
    Blend: AUG-CC-PVDZ
  Basis Set: (AUG-CC-PVDZ AUX)
    Blend: AUG-CC-PVDZ-JKFIT
  @DF-RHF Final Energy:  -362.10566803107088
    Total Energy =                       -362.1056680310708771
  //            Monomer A HF           //
    Molecular point group: c1
  Multiplicity = 1
  Basis Set: AUG-CC-PVDZ
    Blend: AUG-CC-PVDZ
  Basis Set: (AUG-CC-PVDZ AUX)
    Blend: AUG-CC-PVDZ-JKFIT
  @DF-RHF Final Energy:  -247.04193544885433
    Total Energy =                       -247.0419354488543604
  //            Monomer B HF           //
    Molecular point group: c1

    Geometry (in Angstrom), charge = 0, multiplicity = 1:

       Center              X                  Y                   Z               Mass
    ------------   -----------------  -----------------  -----------------  -----------------
      Gh(C)          -1.119603330011    -0.039001459611     1.764445658786    12.000000000000
      Gh(H)          -0.085943330011     0.289448540389     1.688915658786     1.007825032230
      Gh(H)          -1.152783330011    -1.041551459611     2.185425658786     1.007825032230
      Gh(H)          -1.661083330011     0.617378540389     2.441155658786     1.007825032230
      Gh(C)          -1.834313330011    -0.052821459611     0.432205658786    12.000000000000
      Gh(O)          -3.019813330011    -0.351041459611     0.329485658786    15.994914619570
      Gh(N)          -1.071933330011     0.273138540389    -0.638934341214    14.003074004430
      Gh(H)          -0.109093330011     0.540858540389    -0.508564341214     1.007825032230
      Gh(C)          -1.655633330011     0.298148540389    -1.961414341214    12.000000000000
      Gh(H)          -2.161903330011    -0.642301459611    -2.167374341214     1.007825032230
      Gh(H)          -2.390253330011     1.096708540389    -2.058154341214     1.007825032230
      Gh(H)          -0.864933330011     0.450068540389    -2.690404341214     1.007825032230
         O            3.692266669989     0.563278540389    -0.056444341214    15.994914619570
         H            4.413116669989     1.190578540389     0.033975658786     1.007825032230
         C            4.211346669989    -0.742081459611     0.177445658786    12.000000000000
         H            3.378776669989    -1.430871459611     0.071865658786     1.007825032230
         H            4.977486669989    -1.011071459611    -0.549444341214     1.007825032230
         H            4.619446669989    -0.843531459611     1.183075658786     1.007825032230

  Charge       = 0
  Multiplicity = 1
  Basis Set: AUG-CC-PVDZ
    Blend: AUG-CC-PVDZ
  Basis Set: (AUG-CC-PVDZ AUX)
    Blend: AUG-CC-PVDZ-JKFIT

    Orbital Energies [Eh]
    ---------------------

    Doubly Occupied:

       1A    -20.568287     2A    -11.278614     3A     -1.359950
       4A     -0.928316     5A     -0.691452     6A     -0.620338
       7A     -0.592832     8A     -0.504746     9A     -0.451191

  @DF-RHF Final Energy:  -115.06153314695254

   => Energetics <=

    Nuclear Repulsion Energy =             40.3038742796639440
    One-Electron Energy =                -236.7393627198920854
    Two-Electron Energy =                  81.3739552932755998
    Total Energy =                       -115.0615331469525415

  Dipole Moment: [D]
     X:     1.7171      Y:    -0.4522      Z:     0.4034     Total:     1.8209

    SAPT Results
  --------------------------------------------------------------------------------------------------------
    Electrostatics                 -1.87493808 [mEh]      -1.17654141 [kcal/mol]      -4.92264925 [kJ/mol]
      Elst10,r                     -2.10793728 [mEh]      -1.32275061 [kcal/mol]      -5.53438857 [kJ/mol]
      Elst12,r                      0.23299920 [mEh]       0.14620920 [kcal/mol]       0.61173931 [kJ/mol]

    Exchange                        0.02425218 [mEh]       0.01521847 [kcal/mol]       0.06367408 [kJ/mol]
      Exch10                        0.01673237 [mEh]       0.01049972 [kcal/mol]       0.04393082 [kJ/mol]
      Exch10(S^2)                   0.01673213 [mEh]       0.01049957 [kcal/mol]       0.04393020 [kJ/mol]
      Exch11(S^2)                  -0.00078257 [mEh]      -0.00049107 [kcal/mol]      -0.00205464 [kJ/mol]
      Exch12(S^2)                   0.00830238 [mEh]       0.00520982 [kcal/mol]       0.02179790 [kJ/mol]

    Induction                      -0.10180790 [mEh]      -0.06388542 [kcal/mol]      -0.26729661 [kJ/mol]
      Ind20,r                      -0.10354662 [mEh]      -0.06497648 [kcal/mol]      -0.27186160 [kJ/mol]
      Ind22                         0.00653324 [mEh]       0.00409967 [kcal/mol]       0.01715301 [kJ/mol]
      Exch-Ind20,r                  0.00175592 [mEh]       0.00110186 [kcal/mol]       0.00461017 [kJ/mol]
      Exch-Ind22                   -0.00011079 [mEh]      -0.00006952 [kcal/mol]      -0.00029088 [kJ/mol]
      delta HF,r (2)               -0.00643965 [mEh]      -0.00404094 [kcal/mol]      -0.01690731 [kJ/mol]

    Dispersion                     -0.45652789 [mEh]      -0.28647558 [kcal/mol]      -1.19861381 [kJ/mol]
      Disp20                       -0.42925264 [mEh]      -0.26936010 [kcal/mol]      -1.12700265 [kJ/mol]
      Disp21                        0.05164369 [mEh]       0.03240690 [kcal/mol]       0.13559048 [kJ/mol]
      Disp22 (SDQ)                 -0.00976297 [mEh]      -0.00612636 [kcal/mol]      -0.02563268 [kJ/mol]
      Disp22 (T)                   -0.06948970 [mEh]      -0.04360545 [kcal/mol]      -0.18244519 [kJ/mol]
      Est. Disp22 (T)              -0.07161463 [mEh]      -0.04493886 [kcal/mol]      -0.18802419 [kJ/mol]
      Exch-Disp20                   0.00245867 [mEh]       0.00154284 [kcal/mol]       0.00645523 [kJ/mol]

  Total HF                         -2.19943526 [mEh]      -1.38016647 [kcal/mol]      -5.77461649 [kJ/mol]
  Total SAPT0                      -2.62622924 [mEh]      -1.64798373 [kcal/mol]      -6.89516391 [kJ/mol]
  Total SAPT2                      -2.37928778 [mEh]      -1.49302562 [kcal/mol]      -6.24681920 [kJ/mol]
  Total SAPT2+                     -2.40902170 [mEh]      -1.51168394 [kcal/mol]      -6.32488559 [kJ/mol]

  Special recipe for scaled SAPT0 (see Manual):
    Electrostatics sSAPT0          -2.10793728 [mEh]      -1.32275061 [kcal/mol]      -5.53438857 [kJ/mol]
    Exchange sSAPT0                 0.01673237 [mEh]       0.01049972 [kcal/mol]       0.04393082 [kJ/mol]
    Induction sSAPT0               -0.10823028 [mEh]      -0.06791552 [kcal/mol]      -0.28415855 [kJ/mol]
    Dispersion sSAPT0              -0.42679387 [mEh]      -0.26781720 [kcal/mol]      -1.12054715 [kJ/mol]
  Total sSAPT0                     -2.62622906 [mEh]      -1.64798361 [kcal/mol]      -6.89516344 [kJ/mol]
  --------------------------------------------------------------------------------------------------------

*** Psi4 exiting successfully. Buy a developer a beer!
