                               Psi4 1.4a2.dev224

  ==> Input File <==

--------------------------------------------------------------------------
#Generated by lconvert.py for sapt job

memory 20 GB

molecule  {
0 1
  C      -0.778570   -0.463320    2.490390
  H       0.224750   -0.050950    2.413480
  H      -0.722480   -1.487090    2.854590
  H      -1.351910    0.110820    3.213680
  C      -1.520500   -0.456630    1.172330
  O      -2.700840   -0.783590    1.089600
  N      -0.791950   -0.069640    0.100590
  H       0.194110    0.145710    0.202920
  C      -1.397800   -0.056080   -1.211320
  H      -2.314930    0.528890   -1.199710
  H      -0.698800    0.387260   -1.915370
  H      -1.652980   -1.061530   -1.545430
--
0 1
  N       3.492210    0.321350    0.331340
  H       3.895870    0.861270    1.086540
  H       3.910210    0.688730   -0.514300
  C       3.864510   -1.089830    0.485100
  H       3.438220   -1.660860   -0.336280
  H       4.939910   -1.276520    0.510880
  H       3.430040   -1.474240    1.404930
units angstrom
no_reorient
symmetry c1
}

set {
scf_type DF
basis aug-cc-pvdz
freeze_core True
guess SAD
}
energy('sapt2+')
--------------------------------------------------------------------------

  //              Dimer HF             //
    Molecular point group: c1
  Charge       = 0
  Multiplicity = 1
  Basis Set: AUG-CC-PVDZ
    Blend: AUG-CC-PVDZ
  Basis Set: (AUG-CC-PVDZ AUX)
    Blend: AUG-CC-PVDZ-JKFIT
  @DF-RHF Final Energy:  -342.27612469949440
    Total Energy =                       -342.2761246994944031
  //            Monomer A HF           //
    Molecular point group: c1
  Multiplicity = 1
  Basis Set: AUG-CC-PVDZ
    Blend: AUG-CC-PVDZ
  Basis Set: (AUG-CC-PVDZ AUX)
    Blend: AUG-CC-PVDZ-JKFIT
  @DF-RHF Final Energy:  -247.04163845853469
    Total Energy =                       -247.0416384585346918
  //            Monomer B HF           //
    Molecular point group: c1

    Geometry (in Angstrom), charge = 0, multiplicity = 1:

       Center              X                  Y                   Z               Mass
    ------------   -----------------  -----------------  -----------------  -----------------
      Gh(C)          -0.874827643276    -0.097105074572     1.866549405849    12.000000000000
      Gh(H)           0.128492356724     0.315264925428     1.789639405849     1.007825032230
      Gh(H)          -0.818737643276    -1.120875074572     2.230749405849     1.007825032230
      Gh(H)          -1.448167643276     0.477034925428     2.589839405849     1.007825032230
      Gh(C)          -1.616757643276    -0.090415074572     0.548489405849    12.000000000000
      Gh(O)          -2.797097643276    -0.417375074572     0.465759405849    15.994914619570
      Gh(N)          -0.888207643276     0.296574925428    -0.523250594151    14.003074004430
      Gh(H)           0.097852356724     0.511924925428    -0.420920594151     1.007825032230
      Gh(C)          -1.494057643276     0.310134925428    -1.835160594151    12.000000000000
      Gh(H)          -2.411187643276     0.895104925428    -1.823550594151     1.007825032230
      Gh(H)          -0.795057643276     0.753474925428    -2.539210594151     1.007825032230
      Gh(H)          -1.749237643276    -0.695315074572    -2.169270594151     1.007825032230
         N            3.395952356724     0.687564925428    -0.292500594151    14.003074004430
         H            3.799612356724     1.227484925428     0.462699405849     1.007825032230
         H            3.813952356724     1.054944925428    -1.138140594151     1.007825032230
         C            3.768252356724    -0.723615074572    -0.138740594151    12.000000000000
         H            3.341962356724    -1.294645074572    -0.960120594151     1.007825032230
         H            4.843652356724    -0.910305074572    -0.112960594151     1.007825032230
         H            3.333782356724    -1.108025074572     0.781089405849     1.007825032230

  Charge       = 0
  Multiplicity = 1
  Basis Set: AUG-CC-PVDZ
    Blend: AUG-CC-PVDZ
  Basis Set: (AUG-CC-PVDZ AUX)
    Blend: AUG-CC-PVDZ-JKFIT

    Orbital Energies [Eh]
    ---------------------

    Doubly Occupied:

       1A    -15.548874     2A    -11.247746     3A     -1.171982
       4A     -0.897721     5A     -0.660882     6A     -0.603776
       7A     -0.555133     8A     -0.516560     9A     -0.393069

  @DF-RHF Final Energy:   -95.23070728493067

   => Energetics <=

    Nuclear Repulsion Energy =             42.0379912234877224
    One-Electron Energy =                -211.3459085342582284
    Two-Electron Energy =                  74.0772100258398325
    Total Energy =                        -95.2307072849306735

  Dipole Moment: [D]
     X:     1.4568      Y:    -0.1067      Z:     0.0241     Total:     1.4609

    SAPT Results
  --------------------------------------------------------------------------------------------------------
    Electrostatics                 -3.56591719 [mEh]      -2.23764682 [kcal/mol]      -9.36231430 [kJ/mol]
      Elst10,r                     -3.70777483 [mEh]      -2.32666383 [kcal/mol]      -9.73476146 [kJ/mol]
      Elst12,r                      0.14185763 [mEh]       0.08901701 [kcal/mol]       0.37244716 [kJ/mol]

    Exchange                        0.40495787 [mEh]       0.25411490 [kcal/mol]       1.06321675 [kJ/mol]
      Exch10                        0.30670313 [mEh]       0.19245912 [kcal/mol]       0.80524895 [kJ/mol]
      Exch10(S^2)                   0.30660430 [mEh]       0.19239710 [kcal/mol]       0.80498947 [kJ/mol]
      Exch11(S^2)                  -0.00389062 [mEh]      -0.00244140 [kcal/mol]      -0.01021482 [kJ/mol]
      Exch12(S^2)                   0.10214536 [mEh]       0.06409718 [kcal/mol]       0.26818262 [kJ/mol]

    Induction                      -0.40036884 [mEh]      -0.25123524 [kcal/mol]      -1.05116825 [kJ/mol]
      Ind20,r                      -0.39013215 [mEh]      -0.24481162 [kcal/mol]      -1.02429182 [kJ/mol]
      Ind22                        -0.02755945 [mEh]      -0.01729382 [kcal/mol]      -0.07235733 [kJ/mol]
      Exch-Ind20,r                  0.07184092 [mEh]       0.04508086 [kcal/mol]       0.18861831 [kJ/mol]
      Exch-Ind22                    0.00507494 [mEh]       0.00318457 [kcal/mol]       0.01332425 [kJ/mol]
      delta HF,r (2)               -0.05959310 [mEh]      -0.03739523 [kcal/mol]      -0.15646166 [kJ/mol]

    Dispersion                     -1.21041580 [mEh]      -0.75954738 [kcal/mol]      -3.17794624 [kJ/mol]
      Disp20                       -1.13213518 [mEh]      -0.71042555 [kcal/mol]      -2.97242050 [kJ/mol]
      Disp21                        0.09759806 [mEh]       0.06124371 [kcal/mol]       0.25624367 [kJ/mol]
      Disp22 (SDQ)                 -0.02280287 [mEh]      -0.01430902 [kcal/mol]      -0.05986893 [kJ/mol]
      Disp22 (T)                   -0.17996029 [mEh]      -0.11292678 [kcal/mol]      -0.47248567 [kJ/mol]
      Est. Disp22 (T)              -0.19066817 [mEh]      -0.11964608 [kcal/mol]      -0.50059921 [kJ/mol]
      Exch-Disp20                   0.03759236 [mEh]       0.02358956 [kcal/mol]       0.09869873 [kJ/mol]

  Total HF                         -3.77895603 [mEh]      -2.37133071 [kcal/mol]      -9.92164769 [kJ/mol]
  Total SAPT0                      -4.87349885 [mEh]      -3.05816670 [kcal/mol]     -12.79536946 [kJ/mol]
  Total SAPT2                      -4.65587098 [mEh]      -2.92160315 [kcal/mol]     -12.22398759 [kJ/mol]
  Total SAPT2+                     -4.77174396 [mEh]      -2.99431454 [kcal/mol]     -12.52821205 [kJ/mol]

  Special recipe for scaled SAPT0 (see Manual):
    Electrostatics sSAPT0          -3.70777483 [mEh]      -2.32666383 [kcal/mol]      -9.73476146 [kJ/mol]
    Exchange sSAPT0                 0.30670313 [mEh]       0.19245912 [kcal/mol]       0.80524895 [kJ/mol]
    Induction sSAPT0               -0.37781484 [mEh]      -0.23708239 [kcal/mol]      -0.99195272 [kJ/mol]
    Dispersion sSAPT0              -1.09450645 [mEh]      -0.68681317 [kcal/mol]      -2.87362630 [kJ/mol]
  Total sSAPT0                     -4.87339299 [mEh]      -3.05810027 [kcal/mol]     -12.79509153 [kJ/mol]
  --------------------------------------------------------------------------------------------------------

*** Psi4 exiting successfully. Buy a developer a beer!
