                               Psi4 1.4a2.dev224

  ==> Input File <==

--------------------------------------------------------------------------
#Generated by lconvert.py for sapt job

memory 20 GB

molecule  {
0 1
  C      -0.778570   -0.463320    2.490390
  H       0.224750   -0.050950    2.413480
  H      -0.722480   -1.487090    2.854590
  H      -1.351910    0.110820    3.213680
  C      -1.520500   -0.456630    1.172330
  O      -2.700840   -0.783590    1.089600
  N      -0.791950   -0.069640    0.100590
  H       0.194110    0.145710    0.202920
  C      -1.397800   -0.056080   -1.211320
  H      -2.314930    0.528890   -1.199710
  H      -0.698800    0.387260   -1.915370
  H      -1.652980   -1.061530   -1.545430
--
0 1
  N       2.873830    0.288420    0.307270
  H       3.277500    0.828340    1.062470
  H       3.291830    0.655800   -0.538380
  C       3.246130   -1.122760    0.461020
  H       2.819850   -1.693790   -0.360360
  H       4.321530   -1.309450    0.486800
  H       2.811660   -1.507170    1.380850
units angstrom
no_reorient
symmetry c1
}

set {
scf_type DF
basis aug-cc-pvdz
freeze_core True
guess SAD
}
energy('sapt2+')
--------------------------------------------------------------------------

  //              Dimer HF             //
    Molecular point group: c1
  Charge       = 0
  Multiplicity = 1
  Basis Set: AUG-CC-PVDZ
    Blend: AUG-CC-PVDZ
  Basis Set: (AUG-CC-PVDZ AUX)
    Blend: AUG-CC-PVDZ-JKFIT
  @DF-RHF Final Energy:  -342.27847886314549
    Total Energy =                       -342.2784788631454944
  //            Monomer A HF           //
    Molecular point group: c1
  Multiplicity = 1
  Basis Set: AUG-CC-PVDZ
    Blend: AUG-CC-PVDZ
  Basis Set: (AUG-CC-PVDZ AUX)
    Blend: AUG-CC-PVDZ-JKFIT
  @DF-RHF Final Energy:  -247.04174326863341
    Total Energy =                       -247.0417432686334109
  //            Monomer B HF           //
    Molecular point group: c1

    Geometry (in Angstrom), charge = 0, multiplicity = 1:

       Center              X                  Y                   Z               Mass
    ------------   -----------------  -----------------  -----------------  -----------------
      Gh(C)          -0.690420498036    -0.087285006540     1.873728869920    12.000000000000
      Gh(H)           0.312899501964     0.325084993460     1.796818869920     1.007825032230
      Gh(H)          -0.634330498036    -1.111055006540     2.237928869920     1.007825032230
      Gh(H)          -1.263760498036     0.486854993460     2.597018869920     1.007825032230
      Gh(C)          -1.432350498036    -0.080595006540     0.555668869920    12.000000000000
      Gh(O)          -2.612690498036    -0.407555006540     0.472938869920    15.994914619570
      Gh(N)          -0.703800498036     0.306394993460    -0.516071130080    14.003074004430
      Gh(H)           0.282259501964     0.521744993460    -0.413741130080     1.007825032230
      Gh(C)          -1.309650498036     0.319954993460    -1.827981130080    12.000000000000
      Gh(H)          -2.226780498036     0.904924993460    -1.816371130080     1.007825032230
      Gh(H)          -0.610650498036     0.763294993460    -2.532031130080     1.007825032230
      Gh(H)          -1.564830498036    -0.685495006540    -2.162091130080     1.007825032230
         N            2.961979501964     0.664454993460    -0.309391130080    14.003074004430
         H            3.365649501964     1.204374993460     0.445808869920     1.007825032230
         H            3.379979501964     1.031834993460    -1.155041130080     1.007825032230
         C            3.334279501964    -0.746725006540    -0.155641130080    12.000000000000
         H            2.907999501964    -1.317755006540    -0.977021130080     1.007825032230
         H            4.409679501964    -0.933415006540    -0.129861130080     1.007825032230
         H            2.899809501964    -1.131135006540     0.764188869920     1.007825032230

  Charge       = 0
  Multiplicity = 1
  Basis Set: AUG-CC-PVDZ
    Blend: AUG-CC-PVDZ
  Basis Set: (AUG-CC-PVDZ AUX)
    Blend: AUG-CC-PVDZ-JKFIT

    Orbital Energies [Eh]
    ---------------------

    Doubly Occupied:

       1A    -15.548869     2A    -11.247649     3A     -1.171969
       4A     -0.897714     5A     -0.660842     6A     -0.603764
       7A     -0.555116     8A     -0.516530     9A     -0.393036

  @DF-RHF Final Energy:   -95.23091637341234

   => Energetics <=

    Nuclear Repulsion Energy =             42.0379675230391570
    One-Electron Energy =                -211.3467881451426251
    Two-Electron Energy =                  74.0779042486911266
    Total Energy =                        -95.2309163734123416

  Dipole Moment: [D]
     X:     1.4549      Y:    -0.1053      Z:     0.0239     Total:     1.4589

    SAPT Results
  --------------------------------------------------------------------------------------------------------
    Electrostatics                 -6.83739643 [mEh]      -4.29053104 [kcal/mol]     -17.95158186 [kJ/mol]
      Elst10,r                     -6.86644388 [mEh]      -4.30875859 [kcal/mol]     -18.02784592 [kJ/mol]
      Elst12,r                      0.02904745 [mEh]       0.01822755 [kcal/mol]       0.07626407 [kJ/mol]

    Exchange                        2.80151771 [mEh]       1.75797890 [kcal/mol]       7.35538373 [kJ/mol]
      Exch10                        2.26769431 [mEh]       1.42299966 [kcal/mol]       5.95383060 [kJ/mol]
      Exch10(S^2)                   2.26336401 [mEh]       1.42028236 [kcal/mol]       5.94246140 [kJ/mol]
      Exch11(S^2)                  -0.00856376 [mEh]      -0.00537384 [kcal/mol]      -0.02248416 [kJ/mol]
      Exch12(S^2)                   0.54238716 [mEh]       0.34035308 [kcal/mol]       1.42403729 [kJ/mol]

    Induction                      -1.32783000 [mEh]      -0.83322590 [kcal/mol]      -3.48621718 [kJ/mol]
      Ind20,r                      -1.41832476 [mEh]      -0.89001222 [kcal/mol]      -3.72381114 [kJ/mol]
      Ind22                        -0.17579944 [mEh]      -0.11031581 [kcal/mol]      -0.46156137 [kJ/mol]
      Exch-Ind20,r                  0.55217200 [mEh]       0.34649316 [kcal/mol]       1.44972738 [kJ/mol]
      Exch-Ind22                    0.06844097 [mEh]       0.04294736 [kcal/mol]       0.17969175 [kJ/mol]
      delta HF,r (2)               -0.35431877 [mEh]      -0.22233839 [kcal/mol]      -0.93026380 [kJ/mol]

    Dispersion                     -2.93496135 [mEh]      -1.84171605 [kcal/mol]      -7.70573996 [kJ/mol]
      Disp20                       -2.83448459 [mEh]      -1.77866593 [kcal/mol]      -7.44193826 [kJ/mol]
      Disp21                        0.20126241 [mEh]       0.12629407 [kcal/mol]       0.52841438 [kJ/mol]
      Disp22 (SDQ)                 -0.06001477 [mEh]      -0.03765984 [kcal/mol]      -0.15756877 [kJ/mol]
      Disp22 (T)                   -0.43421570 [mEh]      -0.27247446 [kcal/mol]      -1.14003316 [kJ/mol]
      Est. Disp22 (T)              -0.46933358 [mEh]      -0.29451127 [kcal/mol]      -1.23223514 [kJ/mol]
      Exch-Disp20                   0.22760918 [mEh]       0.14282692 [kcal/mol]       0.59758782 [kJ/mol]

  Total HF                         -5.81922110 [mEh]      -3.65161637 [kcal/mol]     -15.27836289 [kJ/mol]
  Total SAPT0                      -8.42609651 [mEh]      -5.28745538 [kcal/mol]     -22.12271333 [kJ/mol]
  Total SAPT2                      -7.97058413 [mEh]      -5.00161705 [kcal/mol]     -20.92676574 [kJ/mol]
  Total SAPT2+                     -8.29867007 [mEh]      -5.20749409 [kcal/mol]     -21.78815527 [kJ/mol]

  Special recipe for scaled SAPT0 (see Manual):
    Electrostatics sSAPT0          -6.86644388 [mEh]      -4.30875859 [kcal/mol]     -18.02784592 [kJ/mol]
    Exchange sSAPT0                 2.26769431 [mEh]       1.42299966 [kcal/mol]       5.95383060 [kJ/mol]
    Induction sSAPT0               -1.21729619 [mEh]      -0.76386489 [kcal/mol]      -3.19601072 [kJ/mol]
    Dispersion sSAPT0              -2.60556651 [mEh]      -1.63501767 [kcal/mol]      -6.84091393 [kJ/mol]
  Total sSAPT0                     -8.42161227 [mEh]      -5.28464149 [kcal/mol]     -22.11093997 [kJ/mol]
  --------------------------------------------------------------------------------------------------------

*** Psi4 exiting successfully. Buy a developer a beer!
