                               Psi4 1.4a2.dev224

  ==> Input File <==

--------------------------------------------------------------------------
#Generated by lconvert.py for sapt job

memory 20 GB

molecule  {
0 1
  C      -0.778570   -0.463320    2.490390
  H       0.224750   -0.050950    2.413480
  H      -0.722480   -1.487090    2.854590
  H      -1.351910    0.110820    3.213680
  C      -1.520500   -0.456630    1.172330
  O      -2.700840   -0.783590    1.089600
  N      -0.791950   -0.069640    0.100590
  H       0.194110    0.145710    0.202920
  C      -1.397800   -0.056080   -1.211320
  H      -2.314930    0.528890   -1.199710
  H      -0.698800    0.387260   -1.915370
  H      -1.652980   -1.061530   -1.545430
--
0 1
  N       4.110580    0.354280    0.355420
  H       4.514250    0.894200    1.110620
  H       4.528580    0.721660   -0.490220
  C       4.482880   -1.056900    0.509170
  H       4.056600   -1.627930   -0.312200
  H       5.558280   -1.243590    0.534960
  H       4.048410   -1.441310    1.429010
units angstrom
no_reorient
symmetry c1
}

set {
scf_type DF
basis aug-cc-pvdz
freeze_core True
guess SAD
}
energy('sapt2+')
--------------------------------------------------------------------------

  //              Dimer HF             //
    Molecular point group: c1
  Charge       = 0
  Multiplicity = 1
  Basis Set: AUG-CC-PVDZ
    Blend: AUG-CC-PVDZ
  Basis Set: (AUG-CC-PVDZ AUX)
    Blend: AUG-CC-PVDZ-JKFIT
  @DF-RHF Final Energy:  -342.27467087004720
    Total Energy =                       -342.2746708700472027
  //            Monomer A HF           //
    Molecular point group: c1
  Multiplicity = 1
  Basis Set: AUG-CC-PVDZ
    Blend: AUG-CC-PVDZ
  Basis Set: (AUG-CC-PVDZ AUX)
    Blend: AUG-CC-PVDZ-JKFIT
  @DF-RHF Final Energy:  -247.04159228473227
    Total Energy =                       -247.0415922847322463
  //            Monomer B HF           //
    Molecular point group: c1

    Geometry (in Angstrom), charge = 0, multiplicity = 1:

       Center              X                  Y                   Z               Mass
    ------------   -----------------  -----------------  -----------------  -----------------
      Gh(C)          -1.059232193684    -0.106925142603     1.859369652533    12.000000000000
      Gh(H)          -0.055912193684     0.305444857397     1.782459652533     1.007825032230
      Gh(H)          -1.003142193684    -1.130695142603     2.223569652533     1.007825032230
      Gh(H)          -1.632572193684     0.467214857397     2.582659652533     1.007825032230
      Gh(C)          -1.801162193684    -0.100235142603     0.541309652533    12.000000000000
      Gh(O)          -2.981502193684    -0.427195142603     0.458579652533    15.994914619570
      Gh(N)          -1.072612193684     0.286754857397    -0.530430347467    14.003074004430
      Gh(H)          -0.086552193684     0.502104857397    -0.428100347467     1.007825032230
      Gh(C)          -1.678462193684     0.300314857397    -1.842340347467    12.000000000000
      Gh(H)          -2.595592193684     0.885284857397    -1.830730347467     1.007825032230
      Gh(H)          -0.979462193684     0.743654857397    -2.546390347467     1.007825032230
      Gh(H)          -1.933642193684    -0.705135142603    -2.176450347467     1.007825032230
         N            3.829917806316     0.710674857397    -0.275600347467    14.003074004430
         H            4.233587806316     1.250594857397     0.479599652533     1.007825032230
         H            4.247917806316     1.078054857397    -1.121240347467     1.007825032230
         C            4.202217806316    -0.700505142603    -0.121850347467    12.000000000000
         H            3.775937806316    -1.271535142603    -0.943220347467     1.007825032230
         H            5.277617806316    -0.887195142603    -0.096060347467     1.007825032230
         H            3.767747806316    -1.084915142603     0.797989652533     1.007825032230

  Charge       = 0
  Multiplicity = 1
  Basis Set: AUG-CC-PVDZ
    Blend: AUG-CC-PVDZ
  Basis Set: (AUG-CC-PVDZ AUX)
    Blend: AUG-CC-PVDZ-JKFIT

    Orbital Energies [Eh]
    ---------------------

    Doubly Occupied:

       1A    -15.548866     2A    -11.247782     3A     -1.171986
       4A     -0.897724     5A     -0.660885     6A     -0.603783
       7A     -0.555140     8A     -0.516564     9A     -0.393081

  @DF-RHF Final Energy:   -95.23065235621721

   => Energetics <=

    Nuclear Repulsion Energy =             42.0379985165083596
    One-Electron Energy =                -211.3456769845315080
    Two-Electron Energy =                  74.0770261118059352
    Total Energy =                        -95.2306523562172060

  Dipole Moment: [D]
     X:     1.4574      Y:    -0.1071      Z:     0.0243     Total:     1.4615

    SAPT Results
  --------------------------------------------------------------------------------------------------------
    Electrostatics                 -2.18418795 [mEh]      -1.37059863 [kcal/mol]      -5.73458468 [kJ/mol]
      Elst10,r                     -2.31788638 [mEh]      -1.45449566 [kcal/mol]      -6.08560985 [kJ/mol]
      Elst12,r                      0.13369843 [mEh]       0.08389703 [kcal/mol]       0.35102517 [kJ/mol]

    Exchange                        0.05762797 [mEh]       0.03616210 [kcal/mol]       0.15130222 [kJ/mol]
      Exch10                        0.04087728 [mEh]       0.02565088 [kcal/mol]       0.10732327 [kJ/mol]
      Exch10(S^2)                   0.04087508 [mEh]       0.02564950 [kcal/mol]       0.10731750 [kJ/mol]
      Exch11(S^2)                  -0.00088864 [mEh]      -0.00055763 [kcal/mol]      -0.00233312 [kJ/mol]
      Exch12(S^2)                   0.01763933 [mEh]       0.01106885 [kcal/mol]       0.04631207 [kJ/mol]

    Induction                      -0.15168792 [mEh]      -0.09518560 [kcal/mol]      -0.39825657 [kJ/mol]
      Ind20,r                      -0.14507621 [mEh]      -0.09103669 [kcal/mol]      -0.38089753 [kJ/mol]
      Ind22                        -0.00263632 [mEh]      -0.00165432 [kcal/mol]      -0.00692166 [kJ/mol]
      Exch-Ind20,r                  0.00926694 [mEh]       0.00581509 [kcal/mol]       0.02433034 [kJ/mol]
      Exch-Ind22                    0.00016840 [mEh]       0.00010567 [kcal/mol]       0.00044213 [kJ/mol]
      delta HF,r (2)               -0.01341072 [mEh]      -0.00841536 [kcal/mol]      -0.03520985 [kJ/mol]

    Dispersion                     -0.54501114 [mEh]      -0.34199965 [kcal/mol]      -1.43092656 [kJ/mol]
      Disp20                       -0.51091007 [mEh]      -0.32060091 [kcal/mol]      -1.34139420 [kJ/mol]
      Disp21                        0.05420835 [mEh]       0.03401625 [kcal/mol]       0.14232400 [kJ/mol]
      Disp22 (SDQ)                 -0.00844760 [mEh]      -0.00530095 [kcal/mol]      -0.02217916 [kJ/mol]
      Disp22 (T)                   -0.08151492 [mEh]      -0.05115138 [kcal/mol]      -0.21401738 [kJ/mol]
      Est. Disp22 (T)              -0.08585713 [mEh]      -0.05387616 [kcal/mol]      -0.22541785 [kJ/mol]
      Exch-Disp20                   0.00599530 [mEh]       0.00376211 [kcal/mol]       0.01574066 [kJ/mol]

  Total HF                         -2.42622910 [mEh]      -1.52248174 [kcal/mol]      -6.37006362 [kJ/mol]
  Total SAPT0                      -2.93114386 [mEh]      -1.83932054 [kcal/mol]      -7.69571716 [kJ/mol]
  Total SAPT2                      -2.78316266 [mEh]      -1.74646094 [kcal/mol]      -7.30719257 [kJ/mol]
  Total SAPT2+                     -2.82325904 [mEh]      -1.77162179 [kcal/mol]      -7.41246558 [kJ/mol]

  Special recipe for scaled SAPT0 (see Manual):
    Electrostatics sSAPT0          -2.31788638 [mEh]      -1.45449566 [kcal/mol]      -6.08560985 [kJ/mol]
    Exchange sSAPT0                 0.04087728 [mEh]       0.02565088 [kcal/mol]       0.10732327 [kJ/mol]
    Induction sSAPT0               -0.14921850 [mEh]      -0.09363602 [kcal/mol]      -0.39177311 [kJ/mol]
    Dispersion sSAPT0              -0.50491380 [mEh]      -0.31683819 [kcal/mol]      -1.32565100 [kJ/mol]
  Total sSAPT0                     -2.93114140 [mEh]      -1.83931900 [kcal/mol]      -7.69571069 [kJ/mol]
  --------------------------------------------------------------------------------------------------------

*** Psi4 exiting successfully. Buy a developer a beer!
