                               Psi4 1.4a2.dev224

  ==> Input File <==

--------------------------------------------------------------------------
#Generated by lconvert.py for sapt job

memory 20 GB

molecule  {
0 1
  C      -0.701500   -0.290630    2.406880
  H      -1.183300    0.395650    3.098870
  H       0.349560   -0.030320    2.307830
  H      -0.794060   -1.291600    2.824040
  C      -1.448550   -0.244880    1.091810
  O      -2.660450   -0.428480    1.034350
  N      -0.670060    0.005920    0.009780
  H       0.326670    0.122560    0.141590
  C      -1.227060    0.089790   -1.319970
  H      -2.292020   -0.106500   -1.240880
  H      -1.077800    1.079940   -1.748540
  H      -0.776630   -0.648000   -1.983370
--
0 1
  C       3.239840   -2.424920    0.780140
  H       3.798070   -3.334920    0.574230
  H       2.311150   -2.431450    0.215810
  H       2.980620   -2.401470    1.837080
  C       4.007480   -1.170510    0.443900
  O       3.462290   -0.069070    0.386930
  N       5.334230   -1.339320    0.230150
  H       5.710560   -2.266570    0.306910
  C       6.221470   -0.232860   -0.058800
  H       5.607280    0.657950   -0.138620
  H       6.948890   -0.093390    0.738610
  H       6.746460   -0.392840   -0.997940
units angstrom
no_reorient
symmetry c1
}

set {
scf_type DF
basis aug-cc-pvdz
freeze_core True
guess SAD
}
energy('sapt2+')
--------------------------------------------------------------------------

  //              Dimer HF             //
    Molecular point group: c1
  Charge       = 0
  Multiplicity = 1
  Basis Set: AUG-CC-PVDZ
    Blend: AUG-CC-PVDZ
  Basis Set: (AUG-CC-PVDZ AUX)
    Blend: AUG-CC-PVDZ-JKFIT
  @DF-RHF Final Energy:  -494.08767162622280
    Total Energy =                       -494.0876716262228001
  //            Monomer A HF           //
    Molecular point group: c1
  Multiplicity = 1
  Basis Set: AUG-CC-PVDZ
    Blend: AUG-CC-PVDZ
  Basis Set: (AUG-CC-PVDZ AUX)
    Blend: AUG-CC-PVDZ-JKFIT
  @DF-RHF Final Energy:  -247.04123356011794
    Total Energy =                       -247.0412335601179166
  //            Monomer B HF           //
    Molecular point group: c1

    Geometry (in Angstrom), charge = 0, multiplicity = 1:

       Center              X                  Y                   Z               Mass
    ------------   -----------------  -----------------  -----------------  -----------------
      Gh(C)          -2.262822993249     0.316760414327     1.912698860168    12.000000000000
      Gh(H)          -2.744622993249     1.003040414327     2.604688860168     1.007825032230
      Gh(H)          -1.211762993249     0.577070414327     1.813648860168     1.007825032230
      Gh(H)          -2.355382993249    -0.684209585673     2.329858860168     1.007825032230
      Gh(C)          -3.009872993249     0.362510414327     0.597628860168    12.000000000000
      Gh(O)          -4.221772993249     0.178910414327     0.540168860168    15.994914619570
      Gh(N)          -2.231382993249     0.613310414327    -0.484401139832    14.003074004430
      Gh(H)          -1.234652993249     0.729950414327    -0.352591139832     1.007825032230
      Gh(C)          -2.788382993249     0.697180414327    -1.814151139832    12.000000000000
      Gh(H)          -3.853342993249     0.500890414327    -1.735061139832     1.007825032230
      Gh(H)          -2.639122993249     1.687330414327    -2.242721139832     1.007825032230
      Gh(H)          -2.337952993249    -0.040609585673    -2.477551139832     1.007825032230
         C            1.678517006751    -1.817529585673     0.285958860168    12.000000000000
         H            2.236747006751    -2.727529585673     0.080048860168     1.007825032230
         H            0.749827006751    -1.824059585673    -0.278371139832     1.007825032230
         H            1.419297006751    -1.794079585673     1.342898860168     1.007825032230
         C            2.446157006751    -0.563119585673    -0.050281139832    12.000000000000
         O            1.900967006751     0.538320414327    -0.107251139832    15.994914619570
         N            3.772907006751    -0.731929585673    -0.264031139832    14.003074004430
         H            4.149237006751    -1.659179585673    -0.187271139832     1.007825032230
         C            4.660147006751     0.374530414327    -0.552981139832    12.000000000000
         H            4.045957006751     1.265340414327    -0.632801139832     1.007825032230
         H            5.387567006751     0.514000414327     0.244428860168     1.007825032230
         H            5.185137006751     0.214550414327    -1.492121139832     1.007825032230

  Charge       = 0
  Multiplicity = 1
  Basis Set: AUG-CC-PVDZ
    Blend: AUG-CC-PVDZ
  Basis Set: (AUG-CC-PVDZ AUX)
    Blend: AUG-CC-PVDZ-JKFIT

    Orbital Energies [Eh]
    ---------------------

    Doubly Occupied:

       1A    -20.519213     2A    -15.594300     3A    -11.355154
       4A    -11.263457     5A    -11.242380     6A     -1.374565
       7A     -1.233765     8A     -1.021120     9A     -0.935012
      10A     -0.791651    11A     -0.691414    12A     -0.652477
      13A     -0.633359    14A     -0.586901    15A     -0.578399
      16A     -0.555404    17A     -0.544430    18A     -0.502878
      19A     -0.418642    20A     -0.389770

  @DF-RHF Final Energy:  -247.04155353619345

   => Energetics <=

    Nuclear Repulsion Energy =            180.5433540708422981
    One-Electron Energy =                -693.4012343015712077
    Two-Electron Energy =                 265.8163266945355190
    Total Energy =                       -247.0415535361934189

  Dipole Moment: [D]
     X:     2.5615      Y:    -3.3359      Z:     0.0850     Total:     4.2067

    SAPT Results
  --------------------------------------------------------------------------------------------------------
    Electrostatics                 -4.18713334 [mEh]      -2.62746584 [kcal/mol]     -10.99331706 [kJ/mol]
      Elst10,r                     -4.70857844 [mEh]      -2.95467758 [kcal/mol]     -12.36237099 [kJ/mol]
      Elst12,r                      0.52144510 [mEh]       0.32721174 [kcal/mol]       1.36905393 [kJ/mol]

    Exchange                        0.47583717 [mEh]       0.29859233 [kcal/mol]       1.24931032 [kJ/mol]
      Exch10                        0.34089766 [mEh]       0.21391651 [kcal/mol]       0.89502668 [kJ/mol]
      Exch10(S^2)                   0.34080404 [mEh]       0.21385776 [kcal/mol]       0.89478088 [kJ/mol]
      Exch11(S^2)                  -0.00689495 [mEh]      -0.00432665 [kcal/mol]      -0.01810270 [kJ/mol]
      Exch12(S^2)                   0.14183446 [mEh]       0.08900247 [kcal/mol]       0.37238633 [kJ/mol]

    Induction                      -0.51770922 [mEh]      -0.32486744 [kcal/mol]      -1.35924537 [kJ/mol]
      Ind20,r                      -0.50588202 [mEh]      -0.31744576 [kcal/mol]      -1.32819305 [kJ/mol]
      Ind22                        -0.00096654 [mEh]      -0.00060651 [kcal/mol]      -0.00253764 [kJ/mol]
      Exch-Ind20,r                  0.05571654 [mEh]       0.03496266 [kcal/mol]       0.14628376 [kJ/mol]
      Exch-Ind22                    0.00010645 [mEh]       0.00006680 [kcal/mol]       0.00027949 [kJ/mol]
      delta HF,r (2)               -0.06668366 [mEh]      -0.04184463 [kcal/mol]      -0.17507792 [kJ/mol]

    Dispersion                     -1.72333003 [mEh]      -1.08140592 [kcal/mol]      -4.52460236 [kJ/mol]
      Disp20                       -1.59408653 [mEh]      -1.00030440 [kcal/mol]      -4.18527361 [kJ/mol]
      Disp21                        0.18458854 [mEh]       0.11583106 [kcal/mol]       0.48463714 [kJ/mol]
      Disp22 (SDQ)                 -0.05550725 [mEh]      -0.03483132 [kcal/mol]      -0.14573426 [kJ/mol]
      Disp22 (T)                   -0.28735694 [mEh]      -0.18031920 [kcal/mol]      -0.75445554 [kJ/mol]
      Est. Disp22 (T)              -0.30085159 [mEh]      -0.18878722 [kcal/mol]      -0.78988574 [kJ/mol]
      Exch-Disp20                   0.04252680 [mEh]       0.02668597 [kcal/mol]       0.11165410 [kJ/mol]

  Total HF                         -4.88452991 [mEh]      -3.06508879 [kcal/mol]     -12.82433152 [kJ/mol]
  Total SAPT0                      -6.43608964 [mEh]      -4.03870722 [kcal/mol]     -16.89795102 [kJ/mol]
  Total SAPT2                      -5.78056511 [mEh]      -3.62735937 [kcal/mol]     -15.17687161 [kJ/mol]
  Total SAPT2+                     -5.95233541 [mEh]      -3.73514686 [kcal/mol]     -15.62785446 [kJ/mol]

  Special recipe for scaled SAPT0 (see Manual):
    Electrostatics sSAPT0          -4.70857844 [mEh]      -2.95467758 [kcal/mol]     -12.36237099 [kJ/mol]
    Exchange sSAPT0                 0.34089766 [mEh]       0.21391651 [kcal/mol]       0.89502668 [kJ/mol]
    Induction sSAPT0               -0.51680320 [mEh]      -0.32429891 [kcal/mol]      -1.35686663 [kJ/mol]
    Dispersion sSAPT0              -1.55152467 [mEh]      -0.97359643 [kcal/mol]      -4.07352746 [kJ/mol]
  Total sSAPT0                     -6.43600865 [mEh]      -4.03865640 [kcal/mol]     -16.89773839 [kJ/mol]
  --------------------------------------------------------------------------------------------------------

*** Psi4 exiting successfully. Buy a developer a beer!
