                               Psi4 1.4a2.dev224

  ==> Input File <==

--------------------------------------------------------------------------
#Generated by lconvert.py for sapt job

memory 20 GB

molecule  {
0 1
  C      -0.701500   -0.290630    2.406880
  H      -1.183300    0.395650    3.098870
  H       0.349560   -0.030320    2.307830
  H      -0.794060   -1.291600    2.824040
  C      -1.448550   -0.244880    1.091810
  O      -2.660450   -0.428480    1.034350
  N      -0.670060    0.005920    0.009780
  H       0.326670    0.122560    0.141590
  C      -1.227060    0.089790   -1.319970
  H      -2.292020   -0.106500   -1.240880
  H      -1.077800    1.079940   -1.748540
  H      -0.776630   -0.648000   -1.983370
--
0 1
  C       2.651930   -2.388990    0.734140
  H       3.210160   -3.298990    0.528230
  H       1.723240   -2.395520    0.169810
  H       2.392710   -2.365540    1.791080
  C       3.419570   -1.134580    0.397900
  O       2.874380   -0.033140    0.340930
  N       4.746320   -1.303390    0.184150
  H       5.122650   -2.230640    0.260910
  C       5.633560   -0.196920   -0.104800
  H       5.019370    0.693890   -0.184620
  H       6.360980   -0.057460    0.692610
  H       6.158550   -0.356910   -1.043940
units angstrom
no_reorient
symmetry c1
}

set {
scf_type DF
basis aug-cc-pvdz
freeze_core True
guess SAD
}
energy('sapt2+')
--------------------------------------------------------------------------

  //              Dimer HF             //
    Molecular point group: c1
  Charge       = 0
  Multiplicity = 1
  Basis Set: AUG-CC-PVDZ
    Blend: AUG-CC-PVDZ
  Basis Set: (AUG-CC-PVDZ AUX)
    Blend: AUG-CC-PVDZ-JKFIT
  @DF-RHF Final Energy:  -494.09027697504985
    Total Energy =                       -494.0902769750498464
  //            Monomer A HF           //
    Molecular point group: c1
  Multiplicity = 1
  Basis Set: AUG-CC-PVDZ
    Blend: AUG-CC-PVDZ
  Basis Set: (AUG-CC-PVDZ AUX)
    Blend: AUG-CC-PVDZ-JKFIT
  @DF-RHF Final Energy:  -247.04135983398481
    Total Energy =                       -247.0413598339848136
  //            Monomer B HF           //
    Molecular point group: c1

    Geometry (in Angstrom), charge = 0, multiplicity = 1:

       Center              X                  Y                   Z               Mass
    ------------   -----------------  -----------------  -----------------  -----------------
      Gh(C)          -1.968867993249     0.298794524023     1.935698860168    12.000000000000
      Gh(H)          -2.450667993249     0.985074524023     2.627688860168     1.007825032230
      Gh(H)          -0.917807993249     0.559104524023     1.836648860168     1.007825032230
      Gh(H)          -2.061427993249    -0.702175475977     2.352858860168     1.007825032230
      Gh(C)          -2.715917993249     0.344544524023     0.620628860168    12.000000000000
      Gh(O)          -3.927817993249     0.160944524023     0.563168860168    15.994914619570
      Gh(N)          -1.937427993249     0.595344524023    -0.461401139832    14.003074004430
      Gh(H)          -0.940697993249     0.711984524023    -0.329591139832     1.007825032230
      Gh(C)          -2.494427993249     0.679214524023    -1.791151139832    12.000000000000
      Gh(H)          -3.559387993249     0.482924524023    -1.712061139832     1.007825032230
      Gh(H)          -2.345167993249     1.669364524023    -2.219721139832     1.007825032230
      Gh(H)          -2.043997993249    -0.058575475977    -2.454551139832     1.007825032230
         C            1.384562006751    -1.799565475977     0.262958860168    12.000000000000
         H            1.942792006751    -2.709565475977     0.057048860168     1.007825032230
         H            0.455872006751    -1.806095475977    -0.301371139832     1.007825032230
         H            1.125342006751    -1.776115475977     1.319898860168     1.007825032230
         C            2.152202006751    -0.545155475977    -0.073281139832    12.000000000000
         O            1.607012006751     0.556284524023    -0.130251139832    15.994914619570
         N            3.478952006751    -0.713965475977    -0.287031139832    14.003074004430
         H            3.855282006751    -1.641215475977    -0.210271139832     1.007825032230
         C            4.366192006751     0.392504524023    -0.575981139832    12.000000000000
         H            3.752002006751     1.283314524023    -0.655801139832     1.007825032230
         H            5.093612006751     0.531964524023     0.221428860168     1.007825032230
         H            4.891182006751     0.232514524023    -1.515121139832     1.007825032230

  Charge       = 0
  Multiplicity = 1
  Basis Set: AUG-CC-PVDZ
    Blend: AUG-CC-PVDZ
  Basis Set: (AUG-CC-PVDZ AUX)
    Blend: AUG-CC-PVDZ-JKFIT

    Orbital Energies [Eh]
    ---------------------

    Doubly Occupied:

       1A    -20.519280     2A    -15.594292     3A    -11.355136
       4A    -11.263423     5A    -11.242318     6A     -1.374538
       7A     -1.233751     8A     -1.021106     9A     -0.935001
      10A     -0.791637    11A     -0.691399    12A     -0.652459
      13A     -0.633348    14A     -0.586889    15A     -0.578389
      16A     -0.555398    17A     -0.544429    18A     -0.502855
      19A     -0.418639    20A     -0.389747

  @DF-RHF Final Energy:  -247.04168233557652

   => Energetics <=

    Nuclear Repulsion Energy =            180.5432255828725374
    One-Electron Energy =                -693.4017511399158593
    Two-Electron Energy =                 265.8168432214667973
    Total Energy =                       -247.0416823355765246

  Dipole Moment: [D]
     X:     2.5596      Y:    -3.3344      Z:     0.0843     Total:     4.2044

    SAPT Results
  --------------------------------------------------------------------------------------------------------
    Electrostatics                 -7.47889160 [mEh]      -4.69307533 [kcal/mol]     -19.63582718 [kJ/mol]
      Elst10,r                     -8.09742286 [mEh]      -5.08120956 [kcal/mol]     -21.25978079 [kJ/mol]
      Elst12,r                      0.61853126 [mEh]       0.38813423 [kcal/mol]       1.62395361 [kJ/mol]

    Exchange                        2.97479847 [mEh]       1.86671422 [kcal/mol]       7.81033231 [kJ/mol]
      Exch10                        2.28529003 [mEh]       1.43404114 [kcal/mol]       6.00002813 [kJ/mol]
      Exch10(S^2)                   2.28202795 [mEh]       1.43199416 [kcal/mol]       5.99146355 [kJ/mol]
      Exch11(S^2)                  -0.02946370 [mEh]      -0.01848875 [kcal/mol]      -0.07735693 [kJ/mol]
      Exch12(S^2)                   0.71897214 [mEh]       0.45116183 [kcal/mol]       1.88766110 [kJ/mol]

    Induction                      -1.51957244 [mEh]      -0.95354610 [kcal/mol]      -3.98963689 [kJ/mol]
      Ind20,r                      -1.51626744 [mEh]      -0.95147219 [kcal/mol]      -3.98095962 [kJ/mol]
      Ind22                        -0.13492378 [mEh]      -0.08466595 [kcal/mol]      -0.35424233 [kJ/mol]
      Exch-Ind20,r                  0.42731193 [mEh]       0.26814229 [kcal/mol]       1.12190733 [kJ/mol]
      Exch-Ind22                    0.03802399 [mEh]       0.02386041 [kcal/mol]       0.09983198 [kJ/mol]
      delta HF,r (2)               -0.33371714 [mEh]      -0.20941067 [kcal/mol]      -0.87617424 [kJ/mol]

    Dispersion                     -3.81690672 [mEh]      -2.39514513 [kcal/mol]     -10.02128720 [kJ/mol]
      Disp20                       -3.61465790 [mEh]      -2.26823208 [kcal/mol]      -9.49028302 [kJ/mol]
      Disp21                        0.36887857 [mEh]       0.23147479 [kcal/mol]       0.96849054 [kJ/mol]
      Disp22 (SDQ)                 -0.13543647 [mEh]      -0.08498767 [kcal/mol]      -0.35558840 [kJ/mol]
      Disp22 (T)                   -0.62753351 [mEh]      -0.39378322 [kcal/mol]      -1.64758899 [kJ/mol]
      Est. Disp22 (T)              -0.67106149 [mEh]      -0.42109744 [kcal/mol]      -1.76187171 [kJ/mol]
      Exch-Disp20                   0.23537058 [mEh]       0.14769727 [kcal/mol]       0.61796537 [kJ/mol]

  Total HF                         -7.23480549 [mEh]      -4.53990898 [kcal/mol]     -18.99497919 [kJ/mol]
  Total SAPT0                     -10.61409281 [mEh]      -6.66044379 [kcal/mol]     -27.86729684 [kJ/mol]
  Total SAPT2                      -9.40295289 [mEh]      -5.90044202 [kcal/mol]     -24.68744941 [kJ/mol]
  Total SAPT2+                     -9.84057228 [mEh]      -6.17505234 [kcal/mol]     -25.83641897 [kJ/mol]

  Special recipe for scaled SAPT0 (see Manual):
    Electrostatics sSAPT0          -8.09742286 [mEh]      -5.08120956 [kcal/mol]     -21.25978079 [kJ/mol]
    Exchange sSAPT0                 2.28529003 [mEh]       1.43404114 [kcal/mol]       6.00002813 [kJ/mol]
    Induction sSAPT0               -1.42083755 [mEh]      -0.89158902 [kcal/mol]      -3.73040847 [kJ/mol]
    Dispersion sSAPT0              -3.37827652 [mEh]      -2.11990052 [kcal/mol]      -8.86966377 [kJ/mol]
  Total sSAPT0                    -10.61124690 [mEh]      -6.65865796 [kcal/mol]     -27.85982490 [kJ/mol]
  --------------------------------------------------------------------------------------------------------

*** Psi4 exiting successfully. Buy a developer a beer!
