                               Psi4 1.4a2.dev224

  ==> Input File <==

--------------------------------------------------------------------------
#Generated by lconvert.py for sapt job

memory 20 GB

molecule  {
0 1
  C      -0.701500   -0.290630    2.406880
  H      -1.183300    0.395650    3.098870
  H       0.349560   -0.030320    2.307830
  H      -0.794060   -1.291600    2.824040
  C      -1.448550   -0.244880    1.091810
  O      -2.660450   -0.428480    1.034350
  N      -0.670060    0.005920    0.009780
  H       0.326670    0.122560    0.141590
  C      -1.227060    0.089790   -1.319970
  H      -2.292020   -0.106500   -1.240880
  H      -1.077800    1.079940   -1.748540
  H      -0.776630   -0.648000   -1.983370
--
0 1
  C       3.827750   -2.460850    0.826130
  H       4.385980   -3.370850    0.620230
  H       2.899060   -2.467380    0.261810
  H       3.568530   -2.437400    1.883080
  C       4.595390   -1.206440    0.489900
  O       4.050200   -0.105000    0.432930
  N       5.922150   -1.375250    0.276150
  H       6.298470   -2.302500    0.352910
  C       6.809380   -0.268790   -0.012800
  H       6.195190    0.622020   -0.092620
  H       7.536800   -0.129320    0.784600
  H       7.334370   -0.428770   -0.951940
units angstrom
no_reorient
symmetry c1
}

set {
scf_type DF
basis aug-cc-pvdz
freeze_core True
guess SAD
}
energy('sapt2+')
--------------------------------------------------------------------------

  //              Dimer HF             //
    Molecular point group: c1
  Charge       = 0
  Multiplicity = 1
  Basis Set: AUG-CC-PVDZ
    Blend: AUG-CC-PVDZ
  Basis Set: (AUG-CC-PVDZ AUX)
    Blend: AUG-CC-PVDZ-JKFIT
  @DF-RHF Final Energy:  -494.08593911068817
    Total Energy =                       -494.0859391106881731
  //            Monomer A HF           //
    Molecular point group: c1
  Multiplicity = 1
  Basis Set: AUG-CC-PVDZ
    Blend: AUG-CC-PVDZ
  Basis Set: (AUG-CC-PVDZ AUX)
    Blend: AUG-CC-PVDZ-JKFIT
  @DF-RHF Final Energy:  -247.04117226914815
    Total Energy =                       -247.0411722691481486
  //            Monomer B HF           //
    Molecular point group: c1

    Geometry (in Angstrom), charge = 0, multiplicity = 1:

       Center              X                  Y                   Z               Mass
    ------------   -----------------  -----------------  -----------------  -----------------
      Gh(C)          -2.556778951671     0.334725414327     1.889699750471    12.000000000000
      Gh(H)          -3.038578951671     1.021005414327     2.581689750471     1.007825032230
      Gh(H)          -1.505718951671     0.595035414327     1.790649750471     1.007825032230
      Gh(H)          -2.649338951671    -0.666244585673     2.306859750471     1.007825032230
      Gh(C)          -3.303828951671     0.380475414327     0.574629750471    12.000000000000
      Gh(O)          -4.515728951671     0.196875414327     0.517169750471    15.994914619570
      Gh(N)          -2.525338951671     0.631275414327    -0.507400249529    14.003074004430
      Gh(H)          -1.528608951671     0.747915414327    -0.375590249529     1.007825032230
      Gh(C)          -3.082338951671     0.715145414327    -1.837150249529    12.000000000000
      Gh(H)          -4.147298951671     0.518855414327    -1.758060249529     1.007825032230
      Gh(H)          -2.933078951671     1.705295414327    -2.265720249529     1.007825032230
      Gh(H)          -2.631908951671    -0.022644585673    -2.500550249529     1.007825032230
         C            1.972471048329    -1.835494585673     0.308949750471    12.000000000000
         H            2.530701048329    -2.745494585673     0.103049750471     1.007825032230
         H            1.043781048329    -1.842024585673    -0.255370249529     1.007825032230
         H            1.713251048329    -1.812044585673     1.365899750471     1.007825032230
         C            2.740111048329    -0.581084585673    -0.027280249529    12.000000000000
         O            2.194921048329     0.520355414327    -0.084250249529    15.994914619570
         N            4.066871048329    -0.749894585673    -0.241030249529    14.003074004430
         H            4.443191048329    -1.677144585673    -0.164270249529     1.007825032230
         C            4.954101048329     0.356565414327    -0.529980249529    12.000000000000
         H            4.339911048329     1.247375414327    -0.609800249529     1.007825032230
         H            5.681521048329     0.496035414327     0.267419750471     1.007825032230
         H            5.479091048329     0.196585414327    -1.469120249529     1.007825032230

  Charge       = 0
  Multiplicity = 1
  Basis Set: AUG-CC-PVDZ
    Blend: AUG-CC-PVDZ
  Basis Set: (AUG-CC-PVDZ AUX)
    Blend: AUG-CC-PVDZ-JKFIT

    Orbital Energies [Eh]
    ---------------------

    Doubly Occupied:

       1A    -20.519185     2A    -15.594304     3A    -11.355156
       4A    -11.263475     5A    -11.242408     6A     -1.374567
       7A     -1.233766     8A     -1.021123     9A     -0.935013
      10A     -0.791650    11A     -0.691415    12A     -0.652479
      13A     -0.633360    14A     -0.586903    15A     -0.578401
      16A     -0.555409    17A     -0.544430    18A     -0.502879
      19A     -0.418644    20A     -0.389770

  @DF-RHF Final Energy:  -247.04149175529858

   => Energetics <=

    Nuclear Repulsion Energy =            180.5432946462478583
    One-Electron Energy =                -693.4008959961662413
    Two-Electron Energy =                 265.8161095946197747
    Total Energy =                       -247.0414917552985798

  Dipole Moment: [D]
     X:     2.5615      Y:    -3.3367      Z:     0.0853     Total:     4.2074

    SAPT Results
  --------------------------------------------------------------------------------------------------------
    Electrostatics                 -2.70647277 [mEh]      -1.69833731 [kcal/mol]      -7.10584329 [kJ/mol]
      Elst10,r                     -3.09382316 [mEh]      -1.94140334 [kcal/mol]      -8.12283158 [kJ/mol]
      Elst12,r                      0.38735038 [mEh]       0.24306603 [kcal/mol]       1.01698829 [kJ/mol]

    Exchange                        0.07579714 [mEh]       0.04756342 [kcal/mol]       0.19900535 [kJ/mol]
      Exch10                        0.05090670 [mEh]       0.03194444 [kcal/mol]       0.13365553 [kJ/mol]
      Exch10(S^2)                   0.05090396 [mEh]       0.03194272 [kcal/mol]       0.13364833 [kJ/mol]
      Exch11(S^2)                  -0.00136459 [mEh]      -0.00085629 [kcal/mol]      -0.00358272 [kJ/mol]
      Exch12(S^2)                   0.02625502 [mEh]       0.01647527 [kcal/mol]       0.06893255 [kJ/mol]

    Induction                      -0.22059011 [mEh]      -0.13842238 [kcal/mol]      -0.57915925 [kJ/mol]
      Ind20,r                      -0.22130241 [mEh]      -0.13886936 [kcal/mol]      -0.58102941 [kJ/mol]
      Ind22                         0.01198179 [mEh]       0.00751869 [kcal/mol]       0.03145819 [kJ/mol]
      Exch-Ind20,r                  0.00742695 [mEh]       0.00466048 [kcal/mol]       0.01949946 [kJ/mol]
      Exch-Ind22                   -0.00040211 [mEh]      -0.00025233 [kcal/mol]      -0.00105574 [kJ/mol]
      delta HF,r (2)               -0.01829433 [mEh]      -0.01147986 [kcal/mol]      -0.04803175 [kJ/mol]

    Dispersion                     -0.84129048 [mEh]      -0.52791775 [kcal/mol]      -2.20880786 [kJ/mol]
      Disp20                       -0.77896937 [mEh]      -0.48881066 [kcal/mol]      -2.04518380 [kJ/mol]
      Disp21                        0.10238319 [mEh]       0.06424642 [kcal/mol]       0.26880704 [kJ/mol]
      Disp22 (SDQ)                 -0.02432058 [mEh]      -0.01526139 [kcal/mol]      -0.06385366 [kJ/mol]
      Disp22 (T)                   -0.14349399 [mEh]      -0.09004384 [kcal/mol]      -0.37674343 [kJ/mol]
      Est. Disp22 (T)              -0.14788981 [mEh]      -0.09280226 [kcal/mol]      -0.38828466 [kJ/mol]
      Exch-Disp20                   0.00750609 [mEh]       0.00471014 [kcal/mol]       0.01970722 [kJ/mol]

  Total HF                         -3.27508624 [mEh]      -2.05514764 [kcal/mol]      -8.59873774 [kJ/mol]
  Total SAPT0                      -4.04654953 [mEh]      -2.53924816 [kcal/mol]     -10.62421432 [kJ/mol]
  Total SAPT2                      -3.62272903 [mEh]      -2.27329679 [kcal/mol]      -9.51147376 [kJ/mol]
  Total SAPT2+                     -3.69255623 [mEh]      -2.31711402 [kcal/mol]      -9.69480504 [kJ/mol]

  Special recipe for scaled SAPT0 (see Manual):
    Electrostatics sSAPT0          -3.09382316 [mEh]      -1.94140334 [kcal/mol]      -8.12283158 [kJ/mol]
    Exchange sSAPT0                 0.05090670 [mEh]       0.03194444 [kcal/mol]       0.13365553 [kJ/mol]
    Induction sSAPT0               -0.23216859 [mEh]      -0.14568799 [kcal/mol]      -0.60955855 [kJ/mol]
    Dispersion sSAPT0              -0.77146207 [mEh]      -0.48409976 [kcal/mol]      -2.02547339 [kJ/mol]
  Total sSAPT0                     -4.04654711 [mEh]      -2.53924665 [kcal/mol]     -10.62420799 [kJ/mol]
  --------------------------------------------------------------------------------------------------------

*** Psi4 exiting successfully. Buy a developer a beer!
