                               Psi4 1.4a2.dev224

  ==> Input File <==

--------------------------------------------------------------------------
#Generated by lconvert.py for sapt job

memory 20 GB

molecule  {
0 1
  C      -0.724300   -0.704940    2.283870
  H       0.335320   -0.629940    2.053180
  H      -0.951700   -1.711990    2.625650
  H      -0.969630   -0.022080    3.093760
  C      -1.614940   -0.387430    1.104070
  O      -2.837320   -0.415020    1.194130
  N      -0.953420   -0.076400   -0.040820
  H       0.053810   -0.075570   -0.036640
  C      -1.658120    0.250090   -1.258550
  H      -2.720370    0.176940   -1.046650
  H      -1.430300    1.262960   -1.588090
  H      -1.405630   -0.444330   -2.058580
--
0 1
  O       2.754440   -0.052950   -0.192740
  H       3.319410   -0.765910   -0.497950
  H       3.334190    0.711250   -0.168850
units angstrom
no_reorient
symmetry c1
}

set {
scf_type DF
basis aug-cc-pvdz
freeze_core True
guess SAD
}
energy('sapt2+')
--------------------------------------------------------------------------

  //              Dimer HF             //
    Molecular point group: c1
  Charge       = 0
  Multiplicity = 1
  Basis Set: AUG-CC-PVDZ
    Blend: AUG-CC-PVDZ
  Basis Set: (AUG-CC-PVDZ AUX)
    Blend: AUG-CC-PVDZ-JKFIT
  @DF-RHF Final Energy:  -323.08772574392663
    Total Energy =                       -323.0877257439266259
  //            Monomer A HF           //
    Molecular point group: c1
  Multiplicity = 1
  Basis Set: AUG-CC-PVDZ
    Blend: AUG-CC-PVDZ
  Basis Set: (AUG-CC-PVDZ AUX)
    Blend: AUG-CC-PVDZ-JKFIT
  @DF-RHF Final Energy:  -247.04146278361429
    Total Energy =                       -247.0414627836142927
  //            Monomer B HF           //
    Molecular point group: c1

    Geometry (in Angstrom), charge = 0, multiplicity = 1:

       Center              X                  Y                   Z               Mass
    ------------   -----------------  -----------------  -----------------  -----------------
      Gh(C)          -0.031561293176    -0.483415786968     1.807359381345    12.000000000000
      Gh(H)           1.028058706824    -0.408415786968     1.576669381345     1.007825032230
      Gh(H)          -0.258961293176    -1.490465786968     2.149139381345     1.007825032230
      Gh(H)          -0.276891293176     0.199444213032     2.617249381345     1.007825032230
      Gh(C)          -0.922201293176    -0.165905786968     0.627559381345    12.000000000000
      Gh(O)          -2.144581293176    -0.193495786968     0.717619381345    15.994914619570
      Gh(N)          -0.260681293176     0.145124213032    -0.517330618655    14.003074004430
      Gh(H)           0.746548706824     0.145954213032    -0.513150618655     1.007825032230
      Gh(C)          -0.965381293176     0.471614213032    -1.735060618655    12.000000000000
      Gh(H)          -2.027631293176     0.398464213032    -1.523160618655     1.007825032230
      Gh(H)          -0.737561293176     1.484484213032    -2.064600618655     1.007825032230
      Gh(H)          -0.712891293176    -0.222805786968    -2.535090618655     1.007825032230
         O            3.447178706824     0.168574213032    -0.669250618655    15.994914619570
         H            4.012148706824    -0.544385786968    -0.974460618655     1.007825032230
         H            4.026928706824     0.932774213032    -0.645360618655     1.007825032230

  Charge       = 0
  Multiplicity = 1
  Basis Set: AUG-CC-PVDZ
    Blend: AUG-CC-PVDZ
  Basis Set: (AUG-CC-PVDZ AUX)
    Blend: AUG-CC-PVDZ-JKFIT

    Orbital Energies [Eh]
    ---------------------

    Doubly Occupied:

       1A    -20.577858     2A     -1.355793     3A     -0.717297
       4A     -0.585968     5A     -0.509322

  @DF-RHF Final Energy:   -76.04142032303474

   => Energetics <=

    Nuclear Repulsion Energy =              9.1737267279764581
    One-Electron Energy =                -122.9378157298788352
    Two-Electron Energy =                  37.7226686788676275
    Total Energy =                        -76.0414203230347425

  Dipole Moment: [D]
     X:     1.9484      Y:     0.0871      Z:    -0.4784     Total:     2.0081

    SAPT Results
  --------------------------------------------------------------------------------------------------------
    Electrostatics                 -4.58491986 [mEh]      -2.87708065 [kcal/mol]     -12.03770544 [kJ/mol]
      Elst10,r                     -5.05608687 [mEh]      -3.17274241 [kcal/mol]     -13.27475425 [kJ/mol]
      Elst12,r                      0.47116701 [mEh]       0.29566176 [kcal/mol]       1.23704880 [kJ/mol]

    Exchange                        1.00235158 [mEh]       0.62898511 [kcal/mol]       2.63167371 [kJ/mol]
      Exch10                        0.79242475 [mEh]       0.49725404 [kcal/mol]       2.08051088 [kJ/mol]
      Exch10(S^2)                   0.79197639 [mEh]       0.49697269 [kcal/mol]       2.07933372 [kJ/mol]
      Exch11(S^2)                  -0.01685448 [mEh]      -0.01057635 [kcal/mol]      -0.04425144 [kJ/mol]
      Exch12(S^2)                   0.22678131 [mEh]       0.14230742 [kcal/mol]       0.59541426 [kJ/mol]

    Induction                      -0.59937690 [mEh]      -0.37611468 [kcal/mol]      -1.57366383 [kJ/mol]
      Ind20,r                      -0.56967093 [mEh]      -0.35747391 [kcal/mol]      -1.49567082 [kJ/mol]
      Ind22                        -0.02458059 [mEh]      -0.01542455 [kcal/mol]      -0.06453633 [kJ/mol]
      Exch-Ind20,r                  0.09684739 [mEh]       0.06077266 [kcal/mol]       0.25427280 [kJ/mol]
      Exch-Ind22                    0.00417884 [mEh]       0.00262226 [kcal/mol]       0.01097155 [kJ/mol]
      delta HF,r (2)               -0.10615162 [mEh]      -0.06661115 [kcal/mol]      -0.27870104 [kJ/mol]

    Dispersion                     -1.36491709 [mEh]      -0.85649840 [kcal/mol]      -3.58358931 [kJ/mol]
      Disp20                       -1.25427298 [mEh]      -0.78706818 [kcal/mol]      -3.29309327 [kJ/mol]
      Disp21                        0.07725478 [mEh]       0.04847811 [kcal/mol]       0.20283240 [kJ/mol]
      Disp22 (SDQ)                 -0.04506607 [mEh]      -0.02827939 [kcal/mol]      -0.11832096 [kJ/mol]
      Disp22 (T)                   -0.19669615 [mEh]      -0.12342870 [kcal/mol]      -0.51642567 [kJ/mol]
      Est. Disp22 (T)              -0.21113390 [mEh]      -0.13248852 [kcal/mol]      -0.55433198 [kJ/mol]
      Exch-Disp20                   0.06830109 [mEh]       0.04285958 [kcal/mol]       0.17932449 [kJ/mol]

  Total HF                         -4.84263728 [mEh]      -3.03880077 [kcal/mol]     -12.71434242 [kJ/mol]
  Total SAPT0                      -6.02860917 [mEh]      -3.78300937 [kcal/mol]     -15.82811120 [kJ/mol]
  Total SAPT2                      -5.36791708 [mEh]      -3.36841882 [kcal/mol]     -14.09346435 [kJ/mol]
  Total SAPT2+                     -5.54686227 [mEh]      -3.48070862 [kcal/mol]     -14.56328489 [kJ/mol]

  Special recipe for scaled SAPT0 (see Manual):
    Electrostatics sSAPT0          -5.05608687 [mEh]      -3.17274241 [kcal/mol]     -13.27475425 [kJ/mol]
    Exchange sSAPT0                 0.79242475 [mEh]       0.49725404 [kcal/mol]       2.08051088 [kJ/mol]
    Induction sSAPT0               -0.57881058 [mEh]      -0.36320912 [kcal/mol]      -1.51966696 [kJ/mol]
    Dispersion sSAPT0              -1.18585583 [mEh]      -0.74413577 [kcal/mol]      -3.11346404 [kJ/mol]
  Total sSAPT0                     -6.02832853 [mEh]      -3.78283326 [kcal/mol]     -15.82737437 [kJ/mol]
  --------------------------------------------------------------------------------------------------------

*** Psi4 exiting successfully. Buy a developer a beer!
