                               Psi4 1.4a2.dev224

  ==> Input File <==

--------------------------------------------------------------------------
#Generated by lconvert.py for sapt job

memory 20 GB

molecule  {
0 1
  C      -0.724300   -0.704940    2.283870
  H       0.335320   -0.629940    2.053180
  H      -0.951700   -1.711990    2.625650
  H      -0.969630   -0.022080    3.093760
  C      -1.614940   -0.387430    1.104070
  O      -2.837320   -0.415020    1.194130
  N      -0.953420   -0.076400   -0.040820
  H       0.053810   -0.075570   -0.036640
  C      -1.658120    0.250090   -1.258550
  H      -2.720370    0.176940   -1.046650
  H      -1.430300    1.262960   -1.588090
  H      -1.405630   -0.444330   -2.058580
--
0 1
  O       4.000840   -0.042510   -0.264790
  H       4.565810   -0.755470   -0.569990
  H       4.580590    0.721690   -0.240890
units angstrom
no_reorient
symmetry c1
}

set {
scf_type DF
basis aug-cc-pvdz
freeze_core True
guess SAD
}
energy('sapt2+')
--------------------------------------------------------------------------

  //              Dimer HF             //
    Molecular point group: c1
  Charge       = 0
  Multiplicity = 1
  Basis Set: AUG-CC-PVDZ
    Blend: AUG-CC-PVDZ
  Basis Set: (AUG-CC-PVDZ AUX)
    Blend: AUG-CC-PVDZ-JKFIT
  @DF-RHF Final Energy:  -323.08481395571209
    Total Energy =                       -323.0848139557120930
  //            Monomer A HF           //
    Molecular point group: c1
  Multiplicity = 1
  Basis Set: AUG-CC-PVDZ
    Blend: AUG-CC-PVDZ
  Basis Set: (AUG-CC-PVDZ AUX)
    Blend: AUG-CC-PVDZ-JKFIT
  @DF-RHF Final Energy:  -247.04138673715596
    Total Energy =                       -247.0413867371559604
  //            Monomer B HF           //
    Molecular point group: c1

    Geometry (in Angstrom), charge = 0, multiplicity = 1:

       Center              X                  Y                   Z               Mass
    ------------   -----------------  -----------------  -----------------  -----------------
      Gh(C)          -0.278075100475    -0.485480616997     1.821609256129    12.000000000000
      Gh(H)           0.781544899525    -0.410480616997     1.590919256129     1.007825032230
      Gh(H)          -0.505475100475    -1.492530616997     2.163389256129     1.007825032230
      Gh(H)          -0.523405100475     0.197379383003     2.631499256129     1.007825032230
      Gh(C)          -1.168715100475    -0.167970616997     0.641809256129    12.000000000000
      Gh(O)          -2.391095100475    -0.195560616997     0.731869256129    15.994914619570
      Gh(N)          -0.507195100475     0.143059383003    -0.503080743871    14.003074004430
      Gh(H)           0.500034899525     0.143889383003    -0.498900743871     1.007825032230
      Gh(C)          -1.211895100475     0.469549383003    -1.720810743871    12.000000000000
      Gh(H)          -2.274145100475     0.396399383003    -1.508910743871     1.007825032230
      Gh(H)          -0.984075100475     1.482419383003    -2.050350743871     1.007825032230
      Gh(H)          -0.959405100475    -0.224870616997    -2.520840743871     1.007825032230
         O            4.447064899525     0.176949383003    -0.727050743871    15.994914619570
         H            5.012034899525    -0.536010616997    -1.032250743871     1.007825032230
         H            5.026814899525     0.941149383003    -0.703150743871     1.007825032230

  Charge       = 0
  Multiplicity = 1
  Basis Set: AUG-CC-PVDZ
    Blend: AUG-CC-PVDZ
  Basis Set: (AUG-CC-PVDZ AUX)
    Blend: AUG-CC-PVDZ-JKFIT

    Orbital Energies [Eh]
    ---------------------

    Doubly Occupied:

       1A    -20.577854     2A     -1.355789     3A     -0.717305
       4A     -0.586002     5A     -0.509373

  @DF-RHF Final Energy:   -76.04131241413511

   => Energetics <=

    Nuclear Repulsion Energy =              9.1737402093454641
    One-Electron Energy =                -122.9374571344295077
    Two-Electron Energy =                  37.7224045109489339
    Total Energy =                        -76.0413124141351062

  Dipole Moment: [D]
     X:     1.9486      Y:     0.0871      Z:    -0.4787     Total:     2.0084

    SAPT Results
  --------------------------------------------------------------------------------------------------------
    Electrostatics                 -1.77070761 [mEh]      -1.11113580 [kcal/mol]      -4.64899220 [kJ/mol]
      Elst10,r                     -2.03779528 [mEh]      -1.27873584 [kcal/mol]      -5.35023077 [kJ/mol]
      Elst12,r                      0.26708767 [mEh]       0.16760004 [kcal/mol]       0.70123858 [kJ/mol]

    Exchange                        0.01149471 [mEh]       0.00721304 [kcal/mol]       0.03017934 [kJ/mol]
      Exch10                        0.00803097 [mEh]       0.00503951 [kcal/mol]       0.02108530 [kJ/mol]
      Exch10(S^2)                   0.00803091 [mEh]       0.00503947 [kcal/mol]       0.02108514 [kJ/mol]
      Exch11(S^2)                  -0.00042496 [mEh]      -0.00026667 [kcal/mol]      -0.00111574 [kJ/mol]
      Exch12(S^2)                   0.00388870 [mEh]       0.00244020 [kcal/mol]       0.01020978 [kJ/mol]

    Induction                      -0.08110618 [mEh]      -0.05089490 [kcal/mol]      -0.21294424 [kJ/mol]
      Ind20,r                      -0.08165225 [mEh]      -0.05123756 [kcal/mol]      -0.21437796 [kJ/mol]
      Ind22                         0.00396534 [mEh]       0.00248829 [kcal/mol]       0.01041100 [kJ/mol]
      Exch-Ind20,r                  0.00064686 [mEh]       0.00040591 [kcal/mol]       0.00169832 [kJ/mol]
      Exch-Ind22                   -0.00003141 [mEh]      -0.00001971 [kcal/mol]      -0.00008248 [kJ/mol]
      delta HF,r (2)               -0.00403471 [mEh]      -0.00253182 [kcal/mol]      -0.01059313 [kJ/mol]

    Dispersion                     -0.22682749 [mEh]      -0.14233640 [kcal/mol]      -0.59553548 [kJ/mol]
      Disp20                       -0.20791094 [mEh]      -0.13046609 [kcal/mol]      -0.54587010 [kJ/mol]
      Disp21                        0.02209064 [mEh]       0.01386209 [kcal/mol]       0.05799898 [kJ/mol]
      Disp22 (SDQ)                 -0.00675986 [mEh]      -0.00424188 [kcal/mol]      -0.01774801 [kJ/mol]
      Disp22 (T)                   -0.03369312 [mEh]      -0.02114275 [kcal/mol]      -0.08846128 [kJ/mol]
      Est. Disp22 (T)              -0.03529707 [mEh]      -0.02214925 [kcal/mol]      -0.09267246 [kJ/mol]
      Exch-Disp20                   0.00104975 [mEh]       0.00065873 [kcal/mol]       0.00275612 [kJ/mol]

  Total HF                         -2.11480442 [mEh]      -1.32705981 [kcal/mol]      -5.55241824 [kJ/mol]
  Total SAPT0                      -2.32166561 [mEh]      -1.45686717 [kcal/mol]      -6.09553223 [kJ/mol]
  Total SAPT2                      -2.04718028 [mEh]      -1.28462502 [kcal/mol]      -5.37487108 [kJ/mol]
  Total SAPT2+                     -2.06714657 [mEh]      -1.29715406 [kcal/mol]      -5.42729258 [kJ/mol]

  Special recipe for scaled SAPT0 (see Manual):
    Electrostatics sSAPT0          -2.03779528 [mEh]      -1.27873584 [kcal/mol]      -5.35023077 [kJ/mol]
    Exchange sSAPT0                 0.00803097 [mEh]       0.00503951 [kcal/mol]       0.02108530 [kJ/mol]
    Induction sSAPT0               -0.08504011 [mEh]      -0.05336347 [kcal/mol]      -0.22327277 [kJ/mol]
    Dispersion sSAPT0              -0.20686119 [mEh]      -0.12980736 [kcal/mol]      -0.54311398 [kJ/mol]
  Total sSAPT0                     -2.32166561 [mEh]      -1.45686717 [kcal/mol]      -6.09553223 [kJ/mol]
  --------------------------------------------------------------------------------------------------------

*** Psi4 exiting successfully. Buy a developer a beer!
