                               Psi4 1.4a2.dev224

  ==> Input File <==

--------------------------------------------------------------------------
#Generated by lconvert.py for sapt job

memory 20 GB

molecule  {
0 1
  C      -0.724300   -0.704940    2.283870
  H       0.335320   -0.629940    2.053180
  H      -0.951700   -1.711990    2.625650
  H      -0.969630   -0.022080    3.093760
  C      -1.614940   -0.387430    1.104070
  O      -2.837320   -0.415020    1.194130
  N      -0.953420   -0.076400   -0.040820
  H       0.053810   -0.075570   -0.036640
  C      -1.658120    0.250090   -1.258550
  H      -2.720370    0.176940   -1.046650
  H      -1.430300    1.262960   -1.588090
  H      -1.405630   -0.444330   -2.058580
--
0 1
  O       3.377640   -0.047730   -0.228770
  H       3.942610   -0.760690   -0.533970
  H       3.957390    0.716470   -0.204870
units angstrom
no_reorient
symmetry c1
}

set {
scf_type DF
basis aug-cc-pvdz
freeze_core True
guess SAD
}
energy('sapt2+')
--------------------------------------------------------------------------

  //              Dimer HF             //
    Molecular point group: c1
  Charge       = 0
  Multiplicity = 1
  Basis Set: AUG-CC-PVDZ
    Blend: AUG-CC-PVDZ
  Basis Set: (AUG-CC-PVDZ AUX)
    Blend: AUG-CC-PVDZ-JKFIT
  @DF-RHF Final Energy:  -323.08591407636823
    Total Energy =                       -323.0859140763682262
  //            Monomer A HF           //
    Molecular point group: c1
  Multiplicity = 1
  Basis Set: AUG-CC-PVDZ
    Blend: AUG-CC-PVDZ
  Basis Set: (AUG-CC-PVDZ AUX)
    Blend: AUG-CC-PVDZ-JKFIT
  @DF-RHF Final Energy:  -247.04140633815041
    Total Energy =                       -247.0414063381504093
  //            Monomer B HF           //
    Molecular point group: c1

    Geometry (in Angstrom), charge = 0, multiplicity = 1:

       Center              X                  Y                   Z               Mass
    ------------   -----------------  -----------------  -----------------  -----------------
      Gh(C)          -0.154818196826    -0.484448201982     1.814485196967    12.000000000000
      Gh(H)           0.904801803174    -0.409448201982     1.583795196967     1.007825032230
      Gh(H)          -0.382218196826    -1.491498201982     2.156265196967     1.007825032230
      Gh(H)          -0.400148196826     0.198411798018     2.624375196967     1.007825032230
      Gh(C)          -1.045458196826    -0.166938201982     0.634685196967    12.000000000000
      Gh(O)          -2.267838196826    -0.194528201982     0.724745196967    15.994914619570
      Gh(N)          -0.383938196826     0.144091798018    -0.510204803033    14.003074004430
      Gh(H)           0.623291803174     0.144921798018    -0.506024803033     1.007825032230
      Gh(C)          -1.088638196826     0.470581798018    -1.727934803033    12.000000000000
      Gh(H)          -2.150888196826     0.397431798018    -1.516034803033     1.007825032230
      Gh(H)          -0.860818196826     1.483451798018    -2.057474803033     1.007825032230
      Gh(H)          -0.836148196826    -0.223838201982    -2.527964803033     1.007825032230
         O            3.947121803174     0.172761798018    -0.698154803033    15.994914619570
         H            4.512091803174    -0.540198201982    -1.003354803033     1.007825032230
         H            4.526871803174     0.936961798018    -0.674254803033     1.007825032230

  Charge       = 0
  Multiplicity = 1
  Basis Set: AUG-CC-PVDZ
    Blend: AUG-CC-PVDZ
  Basis Set: (AUG-CC-PVDZ AUX)
    Blend: AUG-CC-PVDZ-JKFIT

    Orbital Energies [Eh]
    ---------------------

    Doubly Occupied:

       1A    -20.577867     2A     -1.355801     3A     -0.717315
       4A     -0.585998     5A     -0.509377

  @DF-RHF Final Energy:   -76.04133848315860

   => Energetics <=

    Nuclear Repulsion Energy =              9.1737402093454588
    One-Electron Energy =                -122.9374393876249627
    Two-Electron Energy =                  37.7223606951208978
    Total Energy =                        -76.0413384831586114

  Dipole Moment: [D]
     X:     1.9498      Y:     0.0872      Z:    -0.4788     Total:     2.0096

    SAPT Results
  --------------------------------------------------------------------------------------------------------
    Electrostatics                 -2.68737801 [mEh]      -1.68635516 [kcal/mol]      -7.05570998 [kJ/mol]
      Elst10,r                     -3.05139700 [mEh]      -1.91478053 [kcal/mol]      -8.01144173 [kJ/mol]
      Elst12,r                      0.36401900 [mEh]       0.22842537 [kcal/mol]       0.95573175 [kJ/mol]

    Exchange                        0.10804404 [mEh]       0.06779866 [kcal/mol]       0.28366958 [kJ/mol]
      Exch10                        0.08023669 [mEh]       0.05034929 [kcal/mol]       0.21066141 [kJ/mol]
      Exch10(S^2)                   0.08023144 [mEh]       0.05034599 [kcal/mol]       0.21064762 [kJ/mol]
      Exch11(S^2)                  -0.00294282 [mEh]      -0.00184664 [kcal/mol]      -0.00772636 [kJ/mol]
      Exch12(S^2)                   0.03075016 [mEh]       0.01929602 [kcal/mol]       0.08073453 [kJ/mol]

    Induction                      -0.19422352 [mEh]      -0.12187710 [kcal/mol]      -0.50993379 [kJ/mol]
      Ind20,r                      -0.18885429 [mEh]      -0.11850785 [kcal/mol]      -0.49583686 [kJ/mol]
      Ind22                         0.00403608 [mEh]       0.00253268 [kcal/mol]       0.01059672 [kJ/mol]
      Exch-Ind20,r                  0.00771362 [mEh]       0.00484037 [kcal/mol]       0.02025210 [kJ/mol]
      Exch-Ind22                   -0.00016485 [mEh]      -0.00010345 [kcal/mol]      -0.00043282 [kJ/mol]
      delta HF,r (2)               -0.01695408 [mEh]      -0.01063885 [kcal/mol]      -0.04451293 [kJ/mol]

    Dispersion                     -0.52318242 [mEh]      -0.32830193 [kcal/mol]      -1.37361526 [kJ/mol]
      Disp20                       -0.47435172 [mEh]      -0.29766020 [kcal/mol]      -1.24541026 [kJ/mol]
      Disp21                        0.03974673 [mEh]       0.02494145 [kcal/mol]       0.10435503 [kJ/mol]
      Disp22 (SDQ)                 -0.01642855 [mEh]      -0.01030907 [kcal/mol]      -0.04313315 [kJ/mol]
      Disp22 (T)                   -0.07711557 [mEh]      -0.04839075 [kcal/mol]      -0.20246690 [kJ/mol]
      Est. Disp22 (T)              -0.08085059 [mEh]      -0.05073451 [kcal/mol]      -0.21227320 [kJ/mol]
      Exch-Disp20                   0.00870171 [mEh]       0.00546040 [kcal/mol]       0.02284633 [kJ/mol]

  Total HF                         -3.16925506 [mEh]      -1.98873757 [kcal/mol]      -8.32087801 [kJ/mol]
  Total SAPT0                      -3.63490507 [mEh]      -2.28093737 [kcal/mol]      -9.54344195 [kJ/mol]
  Total SAPT2                      -3.23920750 [mEh]      -2.03263339 [kcal/mol]      -8.50453812 [kJ/mol]
  Total SAPT2+                     -3.29673991 [mEh]      -2.06873553 [kcal/mol]      -8.65558945 [kJ/mol]

  Special recipe for scaled SAPT0 (see Manual):
    Electrostatics sSAPT0          -3.05139700 [mEh]      -1.91478053 [kcal/mol]      -8.01144173 [kJ/mol]
    Exchange sSAPT0                 0.08023669 [mEh]       0.05034929 [kcal/mol]       0.21066141 [kJ/mol]
    Induction sSAPT0               -0.19809323 [mEh]      -0.12430538 [kcal/mol]      -0.52009371 [kJ/mol]
    Dispersion sSAPT0              -0.46564830 [mEh]      -0.29219872 [kcal/mol]      -1.22255944 [kJ/mol]
  Total sSAPT0                     -3.63490184 [mEh]      -2.28093534 [kcal/mol]      -9.54343348 [kJ/mol]
  --------------------------------------------------------------------------------------------------------

*** Psi4 exiting successfully. Buy a developer a beer!
