                               Psi4 1.4a2.dev224

  ==> Input File <==

--------------------------------------------------------------------------
#Generated by lconvert.py for sapt job

memory 20 GB

molecule  {
0 1
  N      -0.730000    0.022770    0.000920
  H       0.298420    0.074000    0.001620
  C      -1.296820   -1.240430    0.001500
  O      -0.594100   -2.253520    0.002630
  C      -2.743620   -1.262330    0.000480
  H      -3.249590   -2.211840    0.000830
  C      -3.422020   -0.095910   -0.000920
  H      -4.500900   -0.049220   -0.001750
  N      -2.774840    1.105410   -0.001420
  H      -3.283840    1.973880   -0.002490
  C      -1.391480    1.237020   -0.000520
  O      -0.839840    2.317040   -0.001000
--
0 1
  N       5.217280   -1.137330   -0.000030
  H       5.664530   -0.230750    0.000360
  C       6.073330   -2.251940   -0.001530
  O       7.282780   -2.100240   -0.002270
  C       5.359110   -3.514120   -0.002030
  H       5.925700   -4.429150   -0.003170
  C       4.008940   -3.517940   -0.001070
  H       3.431980   -4.430900   -0.001390
  N       3.270950   -2.367050    0.000380
  H       2.244620   -2.388500    0.001060
  C       3.843720   -1.122390    0.000930
  O       3.193400   -0.081170    0.002170
units angstrom
no_reorient
symmetry c1
}

set {
scf_type DF
basis aug-cc-pvdz
freeze_core True
guess SAD
}
energy('sapt2+')
--------------------------------------------------------------------------

  //              Dimer HF             //
    Molecular point group: c1
  Charge       = 0
  Multiplicity = 1
  Basis Set: AUG-CC-PVDZ
    Blend: AUG-CC-PVDZ
  Basis Set: (AUG-CC-PVDZ AUX)
    Blend: AUG-CC-PVDZ-JKFIT
  @DF-RHF Final Energy:  -825.06677196365558
    Total Energy =                       -825.0667719636555830
  //            Monomer A HF           //
    Molecular point group: c1
  Multiplicity = 1
  Basis Set: AUG-CC-PVDZ
    Blend: AUG-CC-PVDZ
  Basis Set: (AUG-CC-PVDZ AUX)
    Blend: AUG-CC-PVDZ-JKFIT
  @DF-RHF Final Energy:  -412.52815842228017
    Total Energy =                       -412.5281584222801712
  //            Monomer B HF           //
    Molecular point group: c1

    Geometry (in Angstrom), charge = 0, multiplicity = 1:

       Center              X                  Y                   Z               Mass
    ------------   -----------------  -----------------  -----------------  -----------------
      Gh(N)          -2.275019161839     1.005343322143     0.001011570641    14.003074004430
      Gh(H)          -1.246599161839     1.056573322143     0.001711570641     1.007825032230
      Gh(C)          -2.841839161839    -0.257856677857     0.001591570641    12.000000000000
      Gh(O)          -2.139119161839    -1.270946677857     0.002721570641    15.994914619570
      Gh(C)          -4.288639161839    -0.279756677857     0.000571570641    12.000000000000
      Gh(H)          -4.794609161839    -1.229266677857     0.000921570641     1.007825032230
      Gh(C)          -4.967039161839     0.886663322143    -0.000828429359    12.000000000000
      Gh(H)          -6.045919161839     0.933353322143    -0.001658429359     1.007825032230
      Gh(N)          -4.319859161839     2.087983322143    -0.001328429359    14.003074004430
      Gh(H)          -4.828859161839     2.956453322143    -0.002398429359     1.007825032230
      Gh(C)          -2.936499161839     2.219593322143    -0.000428429359    12.000000000000
      Gh(O)          -2.384859161839     3.299613322143    -0.000908429359    15.994914619570
         N            3.672260838161    -0.154756677857     0.000061570641    14.003074004430
         H            4.119510838161     0.751823322143     0.000451570641     1.007825032230
         C            4.528310838161    -1.269366677857    -0.001438429359    12.000000000000
         O            5.737760838161    -1.117666677857    -0.002178429359    15.994914619570
         C            3.814090838161    -2.531546677857    -0.001938429359    12.000000000000
         H            4.380680838161    -3.446576677857    -0.003078429359     1.007825032230
         C            2.463920838161    -2.535366677857    -0.000978429359    12.000000000000
         H            1.886960838161    -3.448326677857    -0.001298429359     1.007825032230
         N            1.725930838161    -1.384476677857     0.000471570641    14.003074004430
         H            0.699600838161    -1.405926677857     0.001151570641     1.007825032230
         C            2.298700838161    -0.139816677857     0.001021570641    12.000000000000
         O            1.648380838161     0.901403322143     0.002261570641    15.994914619570

  Charge       = 0
  Multiplicity = 1
  Basis Set: AUG-CC-PVDZ
    Blend: AUG-CC-PVDZ
  Basis Set: (AUG-CC-PVDZ AUX)
    Blend: AUG-CC-PVDZ-JKFIT

    Orbital Energies [Eh]
    ---------------------

    Doubly Occupied:

       1A    -20.554026     2A    -20.553820     3A    -15.656718
       4A    -15.634977     5A    -11.426989     6A    -11.390362
       7A    -11.349745     8A    -11.264348     9A     -1.437592
      10A     -1.402747    11A     -1.317704    12A     -1.250150
      13A     -1.093155    14A     -0.939939    15A     -0.904124
      16A     -0.809422    17A     -0.769454    18A     -0.716616
      19A     -0.679264    20A     -0.670428    21A     -0.651375
      22A     -0.616793    23A     -0.603073    24A     -0.571636
      25A     -0.524133    26A     -0.481491    27A     -0.448751
      28A     -0.434855    29A     -0.369995

  @DF-RHF Final Energy:  -412.52842534360997

   => Energetics <=

    Nuclear Repulsion Energy =            357.2281943898694294
    One-Electron Energy =               -1270.4658749177590380
    Two-Electron Energy =                 500.7092551842795842
    Total Energy =                       -412.5284253436099675

  Dipole Moment: [D]
     X:    -3.3683      Y:    -3.9655      Z:    -0.0007     Total:     5.2030

    SAPT Results
  --------------------------------------------------------------------------------------------------------
    Electrostatics                 -8.47842392 [mEh]      -5.32029133 [kcal/mol]     -22.26009892 [kJ/mol]
      Elst10,r                     -9.84817181 [mEh]      -6.17982111 [kcal/mol]     -25.85637153 [kJ/mol]
      Elst12,r                      1.36974790 [mEh]       0.85952978 [kcal/mol]       3.59627260 [kJ/mol]

    Exchange                        1.29110618 [mEh]       0.81018136 [kcal/mol]       3.38979882 [kJ/mol]
      Exch10                        0.91446158 [mEh]       0.57383330 [kcal/mol]       2.40091855 [kJ/mol]
      Exch10(S^2)                   0.91398365 [mEh]       0.57353340 [kcal/mol]       2.39966375 [kJ/mol]
      Exch11(S^2)                  -0.02890957 [mEh]      -0.01814103 [kcal/mol]      -0.07590206 [kJ/mol]
      Exch12(S^2)                   0.40555417 [mEh]       0.25448909 [kcal/mol]       1.06478233 [kJ/mol]

    Induction                      -1.32645378 [mEh]      -0.83236231 [kcal/mol]      -3.48260393 [kJ/mol]
      Ind20,r                      -1.24001535 [mEh]      -0.77812138 [kcal/mol]      -3.25565985 [kJ/mol]
      Ind22                        -0.08455271 [mEh]      -0.05305762 [kcal/mol]      -0.22199310 [kJ/mol]
      Exch-Ind20,r                  0.18458783 [mEh]       0.11583061 [kcal/mol]       0.48463529 [kJ/mol]
      Exch-Ind22                    0.01258646 [mEh]       0.00789812 [kcal/mol]       0.03304574 [kJ/mol]
      delta HF,r (2)               -0.19906002 [mEh]      -0.12491205 [kcal/mol]      -0.52263201 [kJ/mol]

    Dispersion                     -2.49237351 [mEh]      -1.56398799 [kcal/mol]      -6.54372575 [kJ/mol]
      Disp20                       -2.20685747 [mEh]      -1.38482397 [kcal/mol]      -5.79410348 [kJ/mol]
      Disp21                        0.25077299 [mEh]       0.15736243 [kcal/mol]       0.65840439 [kJ/mol]
      Disp22 (SDQ)                 -0.11306380 [mEh]      -0.07094861 [kcal/mol]      -0.29684897 [kJ/mol]
      Disp22 (T)                   -0.48376849 [mEh]      -0.30356931 [kcal/mol]      -1.27013400 [kJ/mol]
      Est. Disp22 (T)              -0.50826284 [mEh]      -0.31893974 [kcal/mol]      -1.33444389 [kJ/mol]
      Exch-Disp20                   0.08503761 [mEh]       0.05336190 [kcal/mol]       0.22326621 [kJ/mol]

  Total HF                        -10.18819777 [mEh]      -6.39319062 [kcal/mol]     -26.74910955 [kJ/mol]
  Total SAPT0                     -12.31001763 [mEh]      -7.72465268 [kcal/mol]     -32.31994682 [kJ/mol]
  Total SAPT2                     -10.63559137 [mEh]      -6.67393435 [kcal/mol]     -27.92374131 [kJ/mol]
  Total SAPT2+                    -11.00614502 [mEh]      -6.90646027 [kcal/mol]     -28.89662978 [kJ/mol]

  Special recipe for scaled SAPT0 (see Manual):
    Electrostatics sSAPT0          -9.84817181 [mEh]      -6.17982111 [kcal/mol]     -25.85637153 [kJ/mol]
    Exchange sSAPT0                 0.91446158 [mEh]       0.57383330 [kcal/mol]       2.40091855 [kJ/mol]
    Induction sSAPT0               -1.25419782 [mEh]      -0.78702101 [kcal/mol]      -3.29289592 [kJ/mol]
    Dispersion sSAPT0              -2.12168639 [mEh]      -1.33137831 [kcal/mol]      -5.57048685 [kJ/mol]
  Total sSAPT0                    -12.30959444 [mEh]      -7.72438713 [kcal/mol]     -32.31883575 [kJ/mol]
  --------------------------------------------------------------------------------------------------------

*** Psi4 exiting successfully. Buy a developer a beer!
