                               Psi4 1.4a2.dev224

  ==> Input File <==

--------------------------------------------------------------------------
#Generated by lconvert.py for sapt job

memory 20 GB

molecule  {
0 1
  N      -0.730000    0.022770    0.000920
  H       0.298420    0.074000    0.001620
  C      -1.296820   -1.240430    0.001500
  O      -0.594100   -2.253520    0.002630
  C      -2.743620   -1.262330    0.000480
  H      -3.249590   -2.211840    0.000830
  C      -3.422020   -0.095910   -0.000920
  H      -4.500900   -0.049220   -0.001750
  N      -2.774840    1.105410   -0.001420
  H      -3.283840    1.973880   -0.002490
  C      -1.391480    1.237020   -0.000520
  O      -0.839840    2.317040   -0.001000
--
0 1
  N       4.685040   -1.112180    0.000290
  H       5.132280   -0.205610    0.000680
  C       5.541080   -2.226800   -0.001210
  O       6.750540   -2.075090   -0.001960
  C       4.826860   -3.488970   -0.001710
  H       5.393450   -4.404000   -0.002850
  C       3.476690   -3.492790   -0.000750
  H       2.899730   -4.405750   -0.001070
  N       2.738700   -2.341910    0.000700
  H       1.712370   -2.363350    0.001370
  C       3.311480   -1.097240    0.001250
  O       2.661150   -0.056020    0.002480
units angstrom
no_reorient
symmetry c1
}

set {
scf_type DF
basis aug-cc-pvdz
freeze_core True
guess SAD
}
energy('sapt2+')
--------------------------------------------------------------------------

  //              Dimer HF             //
    Molecular point group: c1
  Charge       = 0
  Multiplicity = 1
  Basis Set: AUG-CC-PVDZ
    Blend: AUG-CC-PVDZ
  Basis Set: (AUG-CC-PVDZ AUX)
    Blend: AUG-CC-PVDZ-JKFIT
  @DF-RHF Final Energy:  -825.07372952347396
    Total Energy =                       -825.0737295234739577
  //            Monomer A HF           //
    Molecular point group: c1
  Multiplicity = 1
  Basis Set: AUG-CC-PVDZ
    Blend: AUG-CC-PVDZ
  Basis Set: (AUG-CC-PVDZ AUX)
    Blend: AUG-CC-PVDZ-JKFIT
  @DF-RHF Final Energy:  -412.52837146382473
    Total Energy =                       -412.5283714638247261
  //            Monomer B HF           //
    Molecular point group: c1

    Geometry (in Angstrom), charge = 0, multiplicity = 1:

       Center              X                  Y                   Z               Mass
    ------------   -----------------  -----------------  -----------------  -----------------
      Gh(N)          -2.008896036293     0.992769527693     0.000853043392    14.003074004430
      Gh(H)          -0.980476036293     1.043999527693     0.001553043392     1.007825032230
      Gh(C)          -2.575716036293    -0.270430472307     0.001433043392    12.000000000000
      Gh(O)          -1.872996036293    -1.283520472307     0.002563043392    15.994914619570
      Gh(C)          -4.022516036293    -0.292330472307     0.000413043392    12.000000000000
      Gh(H)          -4.528486036293    -1.241840472307     0.000763043392     1.007825032230
      Gh(C)          -4.700916036293     0.874089527693    -0.000986956608    12.000000000000
      Gh(H)          -5.779796036293     0.920779527693    -0.001816956608     1.007825032230
      Gh(N)          -4.053736036293     2.075409527693    -0.001486956608    14.003074004430
      Gh(H)          -4.562736036293     2.943879527693    -0.002556956608     1.007825032230
      Gh(C)          -2.670376036293     2.207019527693    -0.000586956608    12.000000000000
      Gh(O)          -2.118736036293     3.287039527693    -0.001066956608    15.994914619570
         N            3.406143963707    -0.142180472307     0.000223043392    14.003074004430
         H            3.853383963707     0.764389527693     0.000613043392     1.007825032230
         C            4.262183963707    -1.256800472307    -0.001276956608    12.000000000000
         O            5.471643963707    -1.105090472307    -0.002026956608    15.994914619570
         C            3.547963963707    -2.518970472307    -0.001776956608    12.000000000000
         H            4.114553963707    -3.434000472307    -0.002916956608     1.007825032230
         C            2.197793963707    -2.522790472307    -0.000816956608    12.000000000000
         H            1.620833963707    -3.435750472307    -0.001136956608     1.007825032230
         N            1.459803963707    -1.371910472307     0.000633043392    14.003074004430
         H            0.433473963707    -1.393350472307     0.001303043392     1.007825032230
         C            2.032583963707    -0.127240472307     0.001183043392    12.000000000000
         O            1.382253963707     0.913979527693     0.002413043392    15.994914619570

  Charge       = 0
  Multiplicity = 1
  Basis Set: AUG-CC-PVDZ
    Blend: AUG-CC-PVDZ
  Basis Set: (AUG-CC-PVDZ AUX)
    Blend: AUG-CC-PVDZ-JKFIT

    Orbital Energies [Eh]
    ---------------------

    Doubly Occupied:

       1A    -20.554021     2A    -20.553893     3A    -15.656606
       4A    -15.634974     5A    -11.426934     6A    -11.390342
       7A    -11.349680     8A    -11.264312     9A     -1.437558
      10A     -1.402720    11A     -1.317675    12A     -1.250138
      13A     -1.093141    14A     -0.939926    15A     -0.904112
      16A     -0.809424    17A     -0.769438    18A     -0.716612
      19A     -0.679252    20A     -0.670399    21A     -0.651358
      22A     -0.616781    23A     -0.603062    24A     -0.571610
      25A     -0.524104    26A     -0.481492    27A     -0.448742
      28A     -0.434828    29A     -0.369973

  @DF-RHF Final Energy:  -412.52861058122943

   => Energetics <=

    Nuclear Repulsion Energy =            357.2277626132699879
    One-Electron Energy =               -1270.4665301951090441
    Two-Electron Energy =                 500.7101570006096267
    Total Energy =                       -412.5286105812294295

  Dipole Moment: [D]
     X:    -3.3723      Y:    -3.9645      Z:    -0.0007     Total:     5.2048

    SAPT Results
  --------------------------------------------------------------------------------------------------------
    Electrostatics                -16.81082129 [mEh]     -10.54894962 [kcal/mol]     -44.13680522 [kJ/mol]
      Elst10,r                    -18.65769162 [mEh]     -11.70787825 [kcal/mol]     -48.98576260 [kJ/mol]
      Elst12,r                      1.84687033 [mEh]       1.15892863 [kcal/mol]       4.84895738 [kJ/mol]

    Exchange                        7.83346039 [mEh]       4.91557061 [kcal/mol]      20.56674741 [kJ/mol]
      Exch10                        6.08702745 [mEh]       3.81966739 [kcal/mol]      15.98148837 [kJ/mol]
      Exch10(S^2)                   6.07135812 [mEh]       3.80983474 [kcal/mol]      15.94034855 [kJ/mol]
      Exch11(S^2)                  -0.11372434 [mEh]      -0.07136310 [kcal/mol]      -0.29858322 [kJ/mol]
      Exch12(S^2)                   1.86015728 [mEh]       1.16726632 [kcal/mol]       4.88384227 [kJ/mol]

    Induction                      -4.55909129 [mEh]      -2.86087298 [kcal/mol]     -11.96989253 [kJ/mol]
      Ind20,r                      -4.33359156 [mEh]      -2.71936976 [kcal/mol]     -11.37784306 [kJ/mol]
      Ind22                        -0.54968743 [mEh]      -0.34493407 [kcal/mol]      -1.44320414 [kJ/mol]
      Exch-Ind20,r                  1.31981959 [mEh]       0.82819930 [kcal/mol]       3.46518587 [kJ/mol]
      Exch-Ind22                    0.16741039 [mEh]       0.10505160 [kcal/mol]       0.43953591 [kJ/mol]
      delta HF,r (2)               -1.16304229 [mEh]      -0.72982005 [kcal/mol]      -3.05356710 [kJ/mol]

    Dispersion                     -5.66928033 [mEh]      -3.55752712 [kcal/mol]     -14.88469346 [kJ/mol]
      Disp20                       -5.24128065 [mEh]      -3.28895326 [kcal/mol]     -13.76098044 [kJ/mol]
      Disp21                        0.50776938 [mEh]       0.31863010 [kcal/mol]       1.33314833 [kJ/mol]
      Disp22 (SDQ)                 -0.26573792 [mEh]      -0.16675306 [kcal/mol]      -0.69769481 [kJ/mol]
      Disp22 (T)                   -1.04941857 [mEh]      -0.65852009 [kcal/mol]      -2.75524806 [kJ/mol]
      Est. Disp22 (T)              -1.14235497 [mEh]      -0.71683857 [kcal/mol]      -2.99925256 [kJ/mol]
      Exch-Disp20                   0.47232383 [mEh]       0.29638768 [kcal/mol]       1.24008603 [kJ/mol]

  Total HF                        -16.74747842 [mEh]     -10.50920137 [kcal/mol]     -43.97049853 [kJ/mol]
  Total SAPT0                     -21.51643524 [mEh]     -13.50176696 [kcal/mol]     -56.49139295 [kJ/mol]
  Total SAPT2                     -18.30540902 [mEh]     -11.48681758 [kcal/mol]     -48.06084475 [kJ/mol]
  Total SAPT2+                    -19.20573253 [mEh]     -12.05177911 [kcal/mol]     -50.42464380 [kJ/mol]

  Special recipe for scaled SAPT0 (see Manual):
    Electrostatics sSAPT0         -18.65769162 [mEh]     -11.70787825 [kcal/mol]     -48.98576260 [kJ/mol]
    Exchange sSAPT0                 6.08702745 [mEh]       3.81966739 [kcal/mol]      15.98148837 [kJ/mol]
    Induction sSAPT0               -4.16656904 [mEh]      -2.61456155 [kcal/mol]     -10.93932551 [kJ/mol]
    Dispersion sSAPT0              -4.76529037 [mEh]      -2.99026485 [kcal/mol]     -12.51126814 [kJ/mol]
  Total sSAPT0                    -21.50252358 [mEh]     -13.49303726 [kcal/mol]     -56.45486789 [kJ/mol]
  --------------------------------------------------------------------------------------------------------

*** Psi4 exiting successfully. Buy a developer a beer!
