                               Psi4 1.4a2.dev224

  ==> Input File <==

--------------------------------------------------------------------------
#Generated by lconvert.py for sapt job

memory 20 GB

molecule  {
0 1
  N      -0.730000    0.022770    0.000920
  H       0.298420    0.074000    0.001620
  C      -1.296820   -1.240430    0.001500
  O      -0.594100   -2.253520    0.002630
  C      -2.743620   -1.262330    0.000480
  H      -3.249590   -2.211840    0.000830
  C      -3.422020   -0.095910   -0.000920
  H      -4.500900   -0.049220   -0.001750
  N      -2.774840    1.105410   -0.001420
  H      -3.283840    1.973880   -0.002490
  C      -1.391480    1.237020   -0.000520
  O      -0.839840    2.317040   -0.001000
--
0 1
  N       5.749530   -1.162470   -0.000340
  H       6.196770   -0.255900    0.000050
  C       6.605580   -2.277090   -0.001840
  O       7.815030   -2.125390   -0.002590
  C       5.891360   -3.539260   -0.002340
  H       6.457940   -4.454290   -0.003480
  C       4.541190   -3.543080   -0.001380
  H       3.964230   -4.456050   -0.001700
  N       3.803200   -2.392200    0.000070
  H       2.776860   -2.413640    0.000740
  C       4.375970   -1.147530    0.000620
  O       3.725650   -0.106320    0.001850
units angstrom
no_reorient
symmetry c1
}

set {
scf_type DF
basis aug-cc-pvdz
freeze_core True
guess SAD
}
energy('sapt2+')
--------------------------------------------------------------------------

  //              Dimer HF             //
    Molecular point group: c1
  Charge       = 0
  Multiplicity = 1
  Basis Set: AUG-CC-PVDZ
    Blend: AUG-CC-PVDZ
  Basis Set: (AUG-CC-PVDZ AUX)
    Blend: AUG-CC-PVDZ-JKFIT
  @DF-RHF Final Energy:  -825.06252591130453
    Total Energy =                       -825.0625259113044194
  //            Monomer A HF           //
    Molecular point group: c1
  Multiplicity = 1
  Basis Set: AUG-CC-PVDZ
    Blend: AUG-CC-PVDZ
  Basis Set: (AUG-CC-PVDZ AUX)
    Blend: AUG-CC-PVDZ-JKFIT
  @DF-RHF Final Energy:  -412.52805807836688
    Total Energy =                       -412.5280580783668825
  //            Monomer B HF           //
    Molecular point group: c1

    Geometry (in Angstrom), charge = 0, multiplicity = 1:

       Center              X                  Y                   Z               Mass
    ------------   -----------------  -----------------  -----------------  -----------------
      Gh(N)          -2.541144026896     1.017916000444     0.001168043392    14.003074004430
      Gh(H)          -1.512724026896     1.069146000444     0.001868043392     1.007825032230
      Gh(C)          -3.107964026896    -0.245283999556     0.001748043392    12.000000000000
      Gh(O)          -2.405244026896    -1.258373999556     0.002878043392    15.994914619570
      Gh(C)          -4.554764026896    -0.267183999556     0.000728043392    12.000000000000
      Gh(H)          -5.060734026896    -1.216693999556     0.001078043392     1.007825032230
      Gh(C)          -5.233164026896     0.899236000444    -0.000671956608    12.000000000000
      Gh(H)          -6.312044026896     0.945926000444    -0.001501956608     1.007825032230
      Gh(N)          -4.585984026896     2.100556000444    -0.001171956608    14.003074004430
      Gh(H)          -5.094984026896     2.969026000444    -0.002241956608     1.007825032230
      Gh(C)          -3.202624026896     2.232166000444    -0.000271956608    12.000000000000
      Gh(O)          -2.650984026896     3.312186000444    -0.000751956608    15.994914619570
         N            3.938385973104    -0.167323999556    -0.000091956608    14.003074004430
         H            4.385625973104     0.739246000444     0.000298043392     1.007825032230
         C            4.794435973104    -1.281943999556    -0.001591956608    12.000000000000
         O            6.003885973104    -1.130243999556    -0.002341956608    15.994914619570
         C            4.080215973104    -2.544113999556    -0.002091956608    12.000000000000
         H            4.646795973104    -3.459143999556    -0.003231956608     1.007825032230
         C            2.730045973104    -2.547933999556    -0.001131956608    12.000000000000
         H            2.153085973104    -3.460903999556    -0.001451956608     1.007825032230
         N            1.992055973104    -1.397053999556     0.000318043392    14.003074004430
         H            0.965715973104    -1.418493999556     0.000988043392     1.007825032230
         C            2.564825973104    -0.152383999556     0.000868043392    12.000000000000
         O            1.914505973104     0.888826000444     0.002098043392    15.994914619570

  Charge       = 0
  Multiplicity = 1
  Basis Set: AUG-CC-PVDZ
    Blend: AUG-CC-PVDZ
  Basis Set: (AUG-CC-PVDZ AUX)
    Blend: AUG-CC-PVDZ-JKFIT

    Orbital Energies [Eh]
    ---------------------

    Doubly Occupied:

       1A    -20.554027     2A    -20.553798     3A    -15.656791
       4A    -15.634976     5A    -11.427007     6A    -11.390370
       7A    -11.349789     8A    -11.264366     9A     -1.437603
      10A     -1.402755    11A     -1.317716    12A     -1.250156
      13A     -1.093162    14A     -0.939943    15A     -0.904127
      16A     -0.809422    17A     -0.769459    18A     -0.716622
      19A     -0.679268    20A     -0.670438    21A     -0.651381
      22A     -0.616796    23A     -0.603080    24A     -0.571644
      25A     -0.524146    26A     -0.481495    27A     -0.448756
      28A     -0.434864    29A     -0.370002

  @DF-RHF Final Energy:  -412.52833524554251

   => Energetics <=

    Nuclear Repulsion Energy =            357.2284025134933927
    One-Electron Energy =               -1270.4655538082347448
    Two-Electron Energy =                 500.7088160491988447
    Total Energy =                       -412.5283352455425074

  Dipole Moment: [D]
     X:    -3.3668      Y:    -3.9658      Z:    -0.0007     Total:     5.2022

    SAPT Results
  --------------------------------------------------------------------------------------------------------
    Electrostatics                 -4.84656285 [mEh]      -3.04126410 [kcal/mol]     -12.72464900 [kJ/mol]
      Elst10,r                     -5.79804466 [mEh]      -3.63832795 [kcal/mol]     -15.22276416 [kJ/mol]
      Elst12,r                      0.95148182 [mEh]       0.59706385 [kcal/mol]       2.49811517 [kJ/mol]

    Exchange                        0.21228406 [mEh]       0.13321026 [kcal/mol]       0.55735171 [kJ/mol]
      Exch10                        0.13705351 [mEh]       0.08600238 [kcal/mol]       0.35983395 [kJ/mol]
      Exch10(S^2)                   0.13703901 [mEh]       0.08599328 [kcal/mol]       0.35979588 [kJ/mol]
      Exch11(S^2)                  -0.00628430 [mEh]      -0.00394346 [kcal/mol]      -0.01649943 [kJ/mol]
      Exch12(S^2)                   0.08151484 [mEh]       0.05115134 [kcal/mol]       0.21401719 [kJ/mol]

    Induction                      -0.47468903 [mEh]      -0.29787186 [kcal/mol]      -1.24629587 [kJ/mol]
      Ind20,r                      -0.45535635 [mEh]      -0.28574042 [kcal/mol]      -1.19553794 [kJ/mol]
      Ind22                        -0.00327875 [mEh]      -0.00205745 [kcal/mol]      -0.00860836 [kJ/mol]
      Exch-Ind20,r                  0.02582790 [mEh]       0.01620725 [kcal/mol]       0.06781114 [kJ/mol]
      Exch-Ind22                    0.00018597 [mEh]       0.00011670 [kcal/mol]       0.00048827 [kJ/mol]
      delta HF,r (2)               -0.04206779 [mEh]      -0.02639794 [kcal/mol]      -0.11044898 [kJ/mol]

    Dispersion                     -1.20077474 [mEh]      -0.75349753 [kcal/mol]      -3.15263365 [kJ/mol]
      Disp20                       -1.06052619 [mEh]      -0.66549023 [kcal/mol]      -2.78441112 [kJ/mol]
      Disp21                        0.14708950 [mEh]       0.09230005 [kcal/mol]       0.38618342 [kJ/mol]
      Disp22 (SDQ)                 -0.05069385 [mEh]      -0.03181087 [kcal/mol]      -0.13309669 [kJ/mol]
      Disp22 (T)                   -0.24314608 [mEh]      -0.15257647 [kcal/mol]      -0.63837995 [kJ/mol]
      Est. Disp22 (T)              -0.25195180 [mEh]      -0.15810214 [kcal/mol]      -0.66149937 [kJ/mol]
      Exch-Disp20                   0.01530760 [mEh]       0.00960567 [kcal/mol]       0.04019011 [kJ/mol]

  Total HF                         -6.13258740 [mEh]      -3.84825669 [kcal/mol]     -16.10110599 [kJ/mol]
  Total SAPT0                      -7.17780598 [mEh]      -4.50414125 [kcal/mol]     -18.84532700 [kJ/mol]
  Total SAPT2                      -6.15418640 [mEh]      -3.86181027 [kcal/mol]     -16.15781417 [kJ/mol]
  Total SAPT2+                     -6.30974256 [mEh]      -3.95942323 [kcal/mol]     -16.56622680 [kJ/mol]

  Special recipe for scaled SAPT0 (see Manual):
    Electrostatics sSAPT0          -5.79804466 [mEh]      -3.63832795 [kcal/mol]     -15.22276416 [kJ/mol]
    Exchange sSAPT0                 0.13705351 [mEh]       0.08600238 [kcal/mol]       0.35983395 [kJ/mol]
    Induction sSAPT0               -0.47158805 [mEh]      -0.29592597 [kcal/mol]      -1.23815425 [kJ/mol]
    Dispersion sSAPT0              -1.04521373 [mEh]      -0.65588151 [kcal/mol]      -2.74420826 [kJ/mol]
  Total sSAPT0                     -7.17779292 [mEh]      -4.50413306 [kcal/mol]     -18.84529272 [kJ/mol]
  --------------------------------------------------------------------------------------------------------

*** Psi4 exiting successfully. Buy a developer a beer!
