                               Psi4 1.4a2.dev224

  ==> Input File <==

--------------------------------------------------------------------------
#Generated by lconvert.py for sapt job

memory 20 GB

molecule  {
0 1
  O      -0.552830   -0.101700   -0.000500
  H      -0.871760    0.801790    0.000140
  H       0.412660   -0.001830   -0.000250
--
0 1
  N       3.003640    0.128900    0.000280
  C       3.699550    0.094920    1.145030
  H       3.114870    0.118540    2.055890
  C       5.088570    0.029740    1.195020
  H       5.594480    0.004890    2.149350
  C       5.799730   -0.003380    0.000110
  H       6.879570   -0.055160    0.000030
  C       5.088420    0.029670   -1.194690
  H       5.594220    0.004800   -2.149090
  C       3.699390    0.094870   -1.144540
  H       3.114630    0.118470   -2.055340
units angstrom
no_reorient
symmetry c1
}

set {
scf_type DF
basis aug-cc-pvdz
freeze_core True
guess SAD
}
energy('sapt2+')
--------------------------------------------------------------------------

  //              Dimer HF             //
    Molecular point group: c1
  Charge       = 0
  Multiplicity = 1
  Basis Set: AUG-CC-PVDZ
    Blend: AUG-CC-PVDZ
  Basis Set: (AUG-CC-PVDZ AUX)
    Blend: AUG-CC-PVDZ-JKFIT
  @DF-RHF Final Energy:  -322.77071883805468
    Total Energy =                       -322.7707188380546768
  //            Monomer A HF           //
    Molecular point group: c1
  Multiplicity = 1
  Basis Set: AUG-CC-PVDZ
    Blend: AUG-CC-PVDZ
  Basis Set: (AUG-CC-PVDZ AUX)
    Blend: AUG-CC-PVDZ-JKFIT
  @DF-RHF Final Energy:   -76.04088404707386
    Total Energy =                        -76.0408840470738596
  //            Monomer B HF           //
    Molecular point group: c1

    Geometry (in Angstrom), charge = 0, multiplicity = 1:

       Center              X                  Y                   Z               Mass
    ------------   -----------------  -----------------  -----------------  -----------------
      Gh(O)          -4.032904544172    -0.144227505432    -0.000580565616    15.994914619570
      Gh(H)          -4.351834544172     0.759262494568     0.000059434384     1.007825032230
      Gh(H)          -3.067414544172    -0.044357505432    -0.000330565616     1.007825032230
         N           -0.476434544172     0.086372494568     0.000199434384    14.003074004430
         C            0.219475455828     0.052392494568     1.144949434384    12.000000000000
         H           -0.365204544172     0.076012494568     2.055809434384     1.007825032230
         C            1.608495455828    -0.012787505432     1.194939434384    12.000000000000
         H            2.114405455828    -0.037637505432     2.149269434384     1.007825032230
         C            2.319655455828    -0.045907505432     0.000029434384    12.000000000000
         H            3.399495455828    -0.097687505432    -0.000050565616     1.007825032230
         C            1.608345455828    -0.012857505432    -1.194770565616    12.000000000000
         H            2.114145455828    -0.037727505432    -2.149170565616     1.007825032230
         C            0.219315455828     0.052342494568    -1.144620565616    12.000000000000
         H           -0.365444544172     0.075942494568    -2.055420565616     1.007825032230

  Charge       = 0
  Multiplicity = 1
  Basis Set: AUG-CC-PVDZ
    Blend: AUG-CC-PVDZ
  Basis Set: (AUG-CC-PVDZ AUX)
    Blend: AUG-CC-PVDZ-JKFIT

    Orbital Energies [Eh]
    ---------------------

    Doubly Occupied:

       1A    -15.575113     2A    -11.281771     3A    -11.281752
       4A    -11.266505     5A    -11.248676     6A    -11.248625
       7A     -1.259938     8A     -1.092462     9A     -1.037252
      10A     -0.861352    11A     -0.858398    12A     -0.723241
      13A     -0.661729    14A     -0.655457    15A     -0.600138
      16A     -0.577577    17A     -0.541002    18A     -0.520911
      19A     -0.418241    20A     -0.383339    21A     -0.348197

  @DF-RHF Final Energy:  -246.72402723901496

   => Energetics <=

    Nuclear Repulsion Energy =            206.2856001935228960
    One-Electron Energy =                -741.1359070936750868
    Two-Electron Energy =                 288.1262796611372323
    Total Energy =                       -246.7240272390149585

  Dipole Moment: [D]
     X:     2.3216      Y:    -0.1182      Z:    -0.0002     Total:     2.3246

    SAPT Results
  --------------------------------------------------------------------------------------------------------
    Electrostatics                 -6.68206290 [mEh]      -4.19305777 [kcal/mol]     -17.54375372 [kJ/mol]
      Elst10,r                     -6.66040146 [mEh]      -4.17946501 [kcal/mol]     -17.48688162 [kJ/mol]
      Elst12,r                     -0.02166144 [mEh]      -0.01359276 [kcal/mol]      -0.05687211 [kJ/mol]

    Exchange                        2.51403389 [mEh]       1.57758009 [kcal/mol]       6.60059508 [kJ/mol]
      Exch10                        1.96428206 [mEh]       1.23260560 [kcal/mol]       5.15722183 [kJ/mol]
      Exch10(S^2)                   1.96091418 [mEh]       1.23049222 [kcal/mol]       5.14837946 [kJ/mol]
      Exch11(S^2)                   0.00352362 [mEh]       0.00221111 [kcal/mol]       0.00925127 [kJ/mol]
      Exch12(S^2)                   0.54622821 [mEh]       0.34276338 [kcal/mol]       1.43412198 [kJ/mol]

    Induction                      -1.23909495 [mEh]      -0.77754382 [kcal/mol]      -3.25324334 [kJ/mol]
      Ind20,r                      -1.25602295 [mEh]      -0.78816630 [kcal/mol]      -3.29768781 [kJ/mol]
      Ind22                        -0.19592826 [mEh]      -0.12294684 [kcal/mol]      -0.51440956 [kJ/mol]
      Exch-Ind20,r                  0.43762706 [mEh]       0.27461513 [kcal/mol]       1.14898969 [kJ/mol]
      Exch-Ind22                    0.06826588 [mEh]       0.04283748 [kcal/mol]       0.17923203 [kJ/mol]
      delta HF,r (2)               -0.29303668 [mEh]      -0.18388329 [kcal/mol]      -0.76936768 [kJ/mol]

    Dispersion                     -1.84399939 [mEh]      -1.15712709 [kcal/mol]      -4.84141974 [kJ/mol]
      Disp20                       -1.72401617 [mEh]      -1.08183648 [kcal/mol]      -4.52640384 [kJ/mol]
      Disp21                        0.16050538 [mEh]       0.10071865 [kcal/mol]       0.42140682 [kJ/mol]
      Disp22 (SDQ)                 -0.10027892 [mEh]      -0.06292597 [kcal/mol]      -0.26328226 [kJ/mol]
      Disp22 (T)                   -0.30696216 [mEh]      -0.19262166 [kcal/mol]      -0.80592905 [kJ/mol]
      Est. Disp22 (T)              -0.34152550 [mEh]      -0.21431049 [kcal/mol]      -0.89667507 [kJ/mol]
      Exch-Disp20                   0.16131581 [mEh]       0.10122720 [kcal/mol]       0.42353461 [kJ/mol]

  Total HF                         -5.80755197 [mEh]      -3.64429388 [kcal/mol]     -15.24772559 [kJ/mol]
  Total SAPT0                      -7.37025232 [mEh]      -4.62490316 [kcal/mol]     -19.35059481 [kJ/mol]
  Total SAPT2                      -6.96982431 [mEh]      -4.37363079 [kcal/mol]     -18.29927121 [kJ/mol]
  Total SAPT2+                     -7.25112334 [mEh]      -4.55014859 [kcal/mol]     -19.03782172 [kJ/mol]

  Special recipe for scaled SAPT0 (see Manual):
    Electrostatics sSAPT0          -6.66040146 [mEh]      -4.17946501 [kcal/mol]     -17.48688162 [kJ/mol]
    Exchange sSAPT0                 1.96428206 [mEh]       1.23260560 [kcal/mol]       5.15722183 [kJ/mol]
    Induction sSAPT0               -1.10917381 [mEh]      -0.69601707 [kcal/mol]      -2.91213544 [kJ/mol]
    Dispersion sSAPT0              -1.56186775 [mEh]      -0.98008681 [kcal/mol]      -4.10068321 [kJ/mol]
  Total sSAPT0                     -7.36716096 [mEh]      -4.62296330 [kcal/mol]     -19.34247843 [kJ/mol]
  --------------------------------------------------------------------------------------------------------

*** Psi4 exiting successfully. Buy a developer a beer!
