                               Psi4 1.4a2.dev224

  ==> Input File <==

--------------------------------------------------------------------------
#Generated by lconvert.py for sapt job

memory 20 GB

molecule  {
0 1
  O      -0.552830   -0.101700   -0.000500
  H      -0.871760    0.801790    0.000140
  H       0.412660   -0.001830   -0.000250
--
0 1
  N       4.199430    0.189230    0.000520
  C       4.895330    0.155260    1.145270
  H       4.310660    0.178870    2.056140
  C       6.284360    0.090080    1.195270
  H       6.790260    0.065220    2.149600
  C       6.995520    0.056950    0.000360
  H       8.075360    0.005180    0.000280
  C       6.284210    0.090010   -1.194440
  H       6.790010    0.065140   -2.148840
  C       4.895180    0.155210   -1.144300
  H       4.310410    0.178810   -2.055090
units angstrom
no_reorient
symmetry c1
}

set {
scf_type DF
basis aug-cc-pvdz
freeze_core True
guess SAD
}
energy('sapt2+')
--------------------------------------------------------------------------

  //              Dimer HF             //
    Molecular point group: c1
  Charge       = 0
  Multiplicity = 1
  Basis Set: AUG-CC-PVDZ
    Blend: AUG-CC-PVDZ
  Basis Set: (AUG-CC-PVDZ AUX)
    Blend: AUG-CC-PVDZ-JKFIT
  @DF-RHF Final Energy:  -322.76682597498274
    Total Energy =                       -322.7668259749827371
  //            Monomer A HF           //
    Molecular point group: c1
  Multiplicity = 1
  Basis Set: AUG-CC-PVDZ
    Blend: AUG-CC-PVDZ
  Basis Set: (AUG-CC-PVDZ AUX)
    Blend: AUG-CC-PVDZ-JKFIT
  @DF-RHF Final Energy:   -76.04080453774432
    Total Energy =                        -76.0408045377443216
  //            Monomer B HF           //
    Molecular point group: c1

    Geometry (in Angstrom), charge = 0, multiplicity = 1:

       Center              X                  Y                   Z               Mass
    ------------   -----------------  -----------------  -----------------  -----------------
      Gh(O)          -5.006784395035    -0.193367024197    -0.000780256158    15.994914619570
      Gh(H)          -5.325714395035     0.710122975803    -0.000140256158     1.007825032230
      Gh(H)          -4.041294395035    -0.093497024197    -0.000530256158     1.007825032230
         N           -0.254524395035     0.097562975803     0.000239743842    14.003074004430
         C            0.441375604965     0.063592975803     1.144989743842    12.000000000000
         H           -0.143294395035     0.087202975803     2.055859743842     1.007825032230
         C            1.830405604965    -0.001587024197     1.194989743842    12.000000000000
         H            2.336305604965    -0.026447024197     2.149319743842     1.007825032230
         C            2.541565604965    -0.034717024197     0.000079743842    12.000000000000
         H            3.621405604965    -0.086487024197    -0.000000256158     1.007825032230
         C            1.830255604965    -0.001657024197    -1.194720256158    12.000000000000
         H            2.336055604965    -0.026527024197    -2.149120256158     1.007825032230
         C            0.441225604965     0.063542975803    -1.144580256158    12.000000000000
         H           -0.143544395035     0.087142975803    -2.055370256158     1.007825032230

  Charge       = 0
  Multiplicity = 1
  Basis Set: AUG-CC-PVDZ
    Blend: AUG-CC-PVDZ
  Basis Set: (AUG-CC-PVDZ AUX)
    Blend: AUG-CC-PVDZ-JKFIT

    Orbital Energies [Eh]
    ---------------------

    Doubly Occupied:

       1A    -15.575097     2A    -11.281784     3A    -11.281765
       4A    -11.266514     5A    -11.248695     6A    -11.248644
       7A     -1.259955     8A     -1.092468     9A     -1.037262
      10A     -0.861360    11A     -0.858409    12A     -0.723247
      13A     -0.661740    14A     -0.655462    15A     -0.600148
      16A     -0.577584    17A     -0.541013    18A     -0.520923
      19A     -0.418230    20A     -0.383352    21A     -0.348201

  @DF-RHF Final Energy:  -246.72396136267781

   => Energetics <=

    Nuclear Repulsion Energy =            206.2855300523885091
    One-Electron Energy =                -741.1352811243523320
    Two-Electron Energy =                 288.1257897092860389
    Total Energy =                       -246.7239613626778123

  Dipole Moment: [D]
     X:     2.3242      Y:    -0.1177      Z:    -0.0002     Total:     2.3271

    SAPT Results
  --------------------------------------------------------------------------------------------------------
    Electrostatics                 -1.93692886 [mEh]      -1.21544121 [kcal/mol]      -5.08540602 [kJ/mol]
      Elst10,r                     -1.98771583 [mEh]      -1.24731051 [kcal/mol]      -5.21874719 [kJ/mol]
      Elst12,r                      0.05078697 [mEh]       0.03186930 [kcal/mol]       0.13334117 [kJ/mol]

    Exchange                        0.04835083 [mEh]       0.03034060 [kcal/mol]       0.12694508 [kJ/mol]
      Exch10                        0.03175738 [mEh]       0.01992806 [kcal/mol]       0.08337899 [kJ/mol]
      Exch10(S^2)                   0.03175607 [mEh]       0.01992724 [kcal/mol]       0.08337555 [kJ/mol]
      Exch11(S^2)                  -0.00052374 [mEh]      -0.00032865 [kcal/mol]      -0.00137507 [kJ/mol]
      Exch12(S^2)                   0.01711718 [mEh]       0.01074119 [kcal/mol]       0.04494115 [kJ/mol]

    Induction                      -0.10956906 [mEh]      -0.06875562 [kcal/mol]      -0.28767353 [kJ/mol]
      Ind20,r                      -0.10354037 [mEh]      -0.06497256 [kcal/mol]      -0.27184520 [kJ/mol]
      Ind22                        -0.00580501 [mEh]      -0.00364270 [kcal/mol]      -0.01524106 [kJ/mol]
      Exch-Ind20,r                  0.00627960 [mEh]       0.00394051 [kcal/mol]       0.01648708 [kJ/mol]
      Exch-Ind22                    0.00035207 [mEh]       0.00022093 [kcal/mol]       0.00092435 [kJ/mol]
      delta HF,r (2)               -0.00685534 [mEh]      -0.00430179 [kcal/mol]      -0.01799869 [kJ/mol]

    Dispersion                     -0.29900385 [mEh]      -0.18762775 [kcal/mol]      -0.78503451 [kJ/mol]
      Disp20                       -0.26946674 [mEh]      -0.16909293 [kcal/mol]      -0.70748484 [kJ/mol]
      Disp21                        0.03871713 [mEh]       0.02429537 [kcal/mol]       0.10165182 [kJ/mol]
      Disp22 (SDQ)                 -0.01537668 [mEh]      -0.00964901 [kcal/mol]      -0.04037146 [kJ/mol]
      Disp22 (T)                   -0.05350613 [mEh]      -0.03357561 [kcal/mol]      -0.14048033 [kJ/mol]
      Est. Disp22 (T)              -0.05640497 [mEh]      -0.03539465 [kcal/mol]      -0.14809123 [kJ/mol]
      Exch-Disp20                   0.00352741 [mEh]       0.00221348 [kcal/mol]       0.00926121 [kJ/mol]

  Total HF                         -2.06007456 [mEh]      -1.29271630 [kcal/mol]      -5.40872501 [kJ/mol]
  Total SAPT0                      -2.32601390 [mEh]      -1.45959576 [kcal/mol]      -6.10694865 [kJ/mol]
  Total SAPT2                      -2.26408643 [mEh]      -1.42073568 [kcal/mol]      -5.94435810 [kJ/mol]
  Total SAPT2+                     -2.29715095 [mEh]      -1.44148398 [kcal/mol]      -6.03116898 [kJ/mol]

  Special recipe for scaled SAPT0 (see Manual):
    Electrostatics sSAPT0          -1.98771583 [mEh]      -1.24731051 [kcal/mol]      -5.21874719 [kJ/mol]
    Exchange sSAPT0                 0.03175738 [mEh]       0.01992806 [kcal/mol]       0.08337899 [kJ/mol]
    Induction sSAPT0               -0.10411534 [mEh]      -0.06533336 [kcal/mol]      -0.27335478 [kJ/mol]
    Dispersion sSAPT0              -0.26593890 [mEh]      -0.16687918 [kcal/mol]      -0.69822249 [kJ/mol]
  Total sSAPT0                     -2.32601268 [mEh]      -1.45959500 [kcal/mol]      -6.10694546 [kJ/mol]
  --------------------------------------------------------------------------------------------------------

*** Psi4 exiting successfully. Buy a developer a beer!
