                               Psi4 1.4a2.dev224

  ==> Input File <==

--------------------------------------------------------------------------
#Generated by lconvert.py for sapt job

memory 20 GB

molecule  {
0 1
  O      -0.552830   -0.101700   -0.000500
  H      -0.871760    0.801790    0.000140
  H       0.412660   -0.001830   -0.000250
--
0 1
  N       3.601530    0.159060    0.000400
  C       4.297440    0.125090    1.145150
  H       3.712770    0.148700    2.056020
  C       5.686460    0.059910    1.195140
  H       6.192370    0.035060    2.149470
  C       6.397630    0.026780    0.000230
  H       7.477470   -0.024990    0.000150
  C       5.686320    0.059840   -1.194570
  H       6.192120    0.034970   -2.148970
  C       4.297290    0.125040   -1.144420
  H       3.712520    0.148640   -2.055210
units angstrom
no_reorient
symmetry c1
}

set {
scf_type DF
basis aug-cc-pvdz
freeze_core True
guess SAD
}
energy('sapt2+')
--------------------------------------------------------------------------

  //              Dimer HF             //
    Molecular point group: c1
  Charge       = 0
  Multiplicity = 1
  Basis Set: AUG-CC-PVDZ
    Blend: AUG-CC-PVDZ
  Basis Set: (AUG-CC-PVDZ AUX)
    Blend: AUG-CC-PVDZ-JKFIT
  @DF-RHF Final Energy:  -322.76824960312206
    Total Energy =                       -322.7682496031220580
  //            Monomer A HF           //
    Molecular point group: c1
  Multiplicity = 1
  Basis Set: AUG-CC-PVDZ
    Blend: AUG-CC-PVDZ
  Basis Set: (AUG-CC-PVDZ AUX)
    Blend: AUG-CC-PVDZ-JKFIT
  @DF-RHF Final Energy:   -76.04082696590150
    Total Energy =                        -76.0408269659015161
  //            Monomer B HF           //
    Molecular point group: c1

    Geometry (in Angstrom), charge = 0, multiplicity = 1:

       Center              X                  Y                   Z               Mass
    ------------   -----------------  -----------------  -----------------  -----------------
      Gh(O)          -4.519845140394    -0.168795925179    -0.000678504304    15.994914619570
      Gh(H)          -4.838775140394     0.734694074821    -0.000038504304     1.007825032230
      Gh(H)          -3.554355140394    -0.068925925179    -0.000428504304     1.007825032230
         N           -0.365485140394     0.091964074821     0.000221495696    14.003074004430
         C            0.330424859606     0.057994074821     1.144971495696    12.000000000000
         H           -0.254245140394     0.081604074821     2.055841495696     1.007825032230
         C            1.719444859606    -0.007185925179     1.194961495696    12.000000000000
         H            2.225354859606    -0.032035925179     2.149291495696     1.007825032230
         C            2.430614859606    -0.040315925179     0.000051495696    12.000000000000
         H            3.510454859606    -0.092085925179    -0.000028504304     1.007825032230
         C            1.719304859606    -0.007255925179    -1.194748504304    12.000000000000
         H            2.225104859606    -0.032125925179    -2.149148504304     1.007825032230
         C            0.330274859606     0.057944074821    -1.144598504304    12.000000000000
         H           -0.254495140394     0.081544074821    -2.055388504304     1.007825032230

  Charge       = 0
  Multiplicity = 1
  Basis Set: AUG-CC-PVDZ
    Blend: AUG-CC-PVDZ
  Basis Set: (AUG-CC-PVDZ AUX)
    Blend: AUG-CC-PVDZ-JKFIT

    Orbital Energies [Eh]
    ---------------------

    Doubly Occupied:

       1A    -15.575099     2A    -11.281777     3A    -11.281758
       4A    -11.266512     5A    -11.248686     6A    -11.248634
       7A     -1.259951     8A     -1.092467     9A     -1.037260
      10A     -0.861360    11A     -0.858406    12A     -0.723246
      13A     -0.661740    14A     -0.655461    15A     -0.600146
      16A     -0.577584    17A     -0.541012    18A     -0.520919
      19A     -0.418236    20A     -0.383350    21A     -0.348202

  @DF-RHF Final Energy:  -246.72398740843948

   => Energetics <=

    Nuclear Repulsion Energy =            206.2853821170691901
    One-Electron Energy =                -741.1351272578641556
    Two-Electron Energy =                 288.1257577323555097
    Total Energy =                       -246.7239874084394842

  Dipole Moment: [D]
     X:     2.3236      Y:    -0.1178      Z:    -0.0002     Total:     2.3266

    SAPT Results
  --------------------------------------------------------------------------------------------------------
    Electrostatics                 -3.33064143 [mEh]      -2.09000905 [kcal/mol]      -8.74459787 [kJ/mol]
      Elst10,r                     -3.38663109 [mEh]      -2.12514309 [kcal/mol]      -8.89159870 [kJ/mol]
      Elst12,r                      0.05598966 [mEh]       0.03513404 [kcal/mol]       0.14700082 [kJ/mol]

    Exchange                        0.35172938 [mEh]       0.22071352 [kcal/mol]       0.92346537 [kJ/mol]
      Exch10                        0.25197051 [mEh]       0.15811388 [kcal/mol]       0.66154847 [kJ/mol]
      Exch10(S^2)                   0.25190252 [mEh]       0.15807122 [kcal/mol]       0.66136999 [kJ/mol]
      Exch11(S^2)                  -0.00179815 [mEh]      -0.00112836 [kcal/mol]      -0.00472104 [kJ/mol]
      Exch12(S^2)                   0.10155703 [mEh]       0.06372800 [kcal/mol]       0.26663794 [kJ/mol]

    Induction                      -0.32911411 [mEh]      -0.20652222 [kcal/mol]      -0.86408897 [kJ/mol]
      Ind20,r                      -0.30953939 [mEh]      -0.19423890 [kcal/mol]      -0.81269555 [kJ/mol]
      Ind22                        -0.03431744 [mEh]      -0.02153452 [kcal/mol]      -0.09010044 [kJ/mol]
      Exch-Ind20,r                  0.05205860 [mEh]       0.03266727 [kcal/mol]       0.13667984 [kJ/mol]
      Exch-Ind22                    0.00577154 [mEh]       0.00362169 [kcal/mol]       0.01515317 [kJ/mol]
      delta HF,r (2)               -0.04308741 [mEh]      -0.02703776 [kcal/mol]      -0.11312599 [kJ/mol]

    Dispersion                     -0.70267294 [mEh]      -0.44093393 [kcal/mol]      -1.84486755 [kJ/mol]
      Disp20                       -0.63084763 [mEh]      -0.39586287 [kcal/mol]      -1.65629023 [kJ/mol]
      Disp21                        0.07222930 [mEh]       0.04532457 [kcal/mol]       0.18963800 [kJ/mol]
      Disp22 (SDQ)                 -0.03794563 [mEh]      -0.02381124 [kcal/mol]      -0.09962623 [kJ/mol]
      Disp22 (T)                   -0.12145851 [mEh]      -0.07621637 [kcal/mol]      -0.31888928 [kJ/mol]
      Est. Disp22 (T)              -0.13000600 [mEh]      -0.08158000 [kcal/mol]      -0.34133072 [kJ/mol]
      Exch-Disp20                   0.02389702 [mEh]       0.01499561 [kcal/mol]       0.06274163 [kJ/mol]

  Total HF                         -3.43522878 [mEh]      -2.15563860 [kcal/mol]      -9.01919192 [kJ/mol]
  Total SAPT0                      -4.04217939 [mEh]      -2.53650586 [kcal/mol]     -10.61274052 [kJ/mol]
  Total SAPT2                      -3.91497676 [mEh]      -2.45668501 [kcal/mol]     -10.27877007 [kJ/mol]
  Total SAPT2+                     -4.01069909 [mEh]      -2.51675168 [kcal/mol]     -10.53008902 [kJ/mol]

  Special recipe for scaled SAPT0 (see Manual):
    Electrostatics sSAPT0          -3.38663109 [mEh]      -2.12514309 [kcal/mol]      -8.89159870 [kJ/mol]
    Exchange sSAPT0                 0.25197051 [mEh]       0.15811388 [kcal/mol]       0.66154847 [kJ/mol]
    Induction sSAPT0               -0.30052604 [mEh]      -0.18858294 [kcal/mol]      -0.78903101 [kJ/mol]
    Dispersion sSAPT0              -0.60693125 [mEh]      -0.38085511 [kcal/mol]      -1.59349779 [kJ/mol]
  Total sSAPT0                     -4.04211788 [mEh]      -2.53646726 [kcal/mol]     -10.61257902 [kJ/mol]
  --------------------------------------------------------------------------------------------------------

*** Psi4 exiting successfully. Buy a developer a beer!
