                               Psi4 1.4a2.dev224

  ==> Input File <==

--------------------------------------------------------------------------
#Generated by lconvert.py for sapt job

memory 20 GB

molecule  {
0 1
  O      -0.627650    0.087470    0.001470
  H       0.343600    0.122300   -0.000600
  C      -0.977930   -1.278560    0.001240
  H      -2.063390   -1.342040    0.005010
  H      -0.614880   -1.806380   -0.885380
  H      -0.608640   -1.808240    0.884170
--
0 1
  N       4.048420   -0.081060   -0.002570
  C       4.744790   -0.105500   -1.147290
  H       4.160310   -0.082270   -2.058270
  C       6.134430   -0.155240   -1.195980
  H       6.641780   -0.172530   -2.149760
  C       6.844800   -0.180950   -0.000370
  H       7.925140   -0.218710    0.000480
  C       6.132550   -0.155930    1.194170
  H       6.638350   -0.173750    2.148660
  C       4.743000   -0.106180    1.143220
  H       4.156990   -0.083500    2.053340
units angstrom
no_reorient
symmetry c1
}

set {
scf_type DF
basis aug-cc-pvdz
freeze_core True
guess SAD
}
energy('sapt2+')
--------------------------------------------------------------------------

  //              Dimer HF             //
    Molecular point group: c1
  Charge       = 0
  Multiplicity = 1
  Basis Set: AUG-CC-PVDZ
    Blend: AUG-CC-PVDZ
  Basis Set: (AUG-CC-PVDZ AUX)
    Blend: AUG-CC-PVDZ-JKFIT
  @DF-RHF Final Energy:  -361.78692911325658
    Total Energy =                       -361.7869291132565763
  //            Monomer A HF           //
    Molecular point group: c1
  Multiplicity = 1
  Basis Set: AUG-CC-PVDZ
    Blend: AUG-CC-PVDZ
  Basis Set: (AUG-CC-PVDZ AUX)
    Blend: AUG-CC-PVDZ-JKFIT
  @DF-RHF Final Energy:  -115.06077358233794
    Total Energy =                       -115.0607735823379443
  //            Monomer B HF           //
    Molecular point group: c1

    Geometry (in Angstrom), charge = 0, multiplicity = 1:

       Center              X                  Y                   Z               Mass
    ------------   -----------------  -----------------  -----------------  -----------------
      Gh(O)          -4.273133229638     0.349767805593     0.002144933241    15.994914619570
      Gh(H)          -3.301883229638     0.384597805593     0.000074933241     1.007825032230
      Gh(C)          -4.623413229638    -1.016262194407     0.001914933241    12.000000000000
      Gh(H)          -5.708873229638    -1.079742194407     0.005684933241     1.007825032230
      Gh(H)          -4.260363229638    -1.544082194407    -0.884705066759     1.007825032230
      Gh(H)          -4.254123229638    -1.545942194407     0.884844933241     1.007825032230
         N            0.402936770362     0.181237805593    -0.001895066759    14.003074004430
         C            1.099306770362     0.156797805593    -1.146615066759    12.000000000000
         H            0.514826770362     0.180027805593    -2.057595066759     1.007825032230
         C            2.488946770362     0.107057805593    -1.195305066759    12.000000000000
         H            2.996296770362     0.089767805593    -2.149085066759     1.007825032230
         C            3.199316770362     0.081347805593     0.000304933241    12.000000000000
         H            4.279656770362     0.043587805593     0.001154933241     1.007825032230
         C            2.487066770362     0.106367805593     1.194844933241    12.000000000000
         H            2.992866770362     0.088547805593     2.149334933241     1.007825032230
         C            1.097516770362     0.156117805593     1.143894933241    12.000000000000
         H            0.511506770362     0.178797805593     2.054014933241     1.007825032230

  Charge       = 0
  Multiplicity = 1
  Basis Set: AUG-CC-PVDZ
    Blend: AUG-CC-PVDZ
  Basis Set: (AUG-CC-PVDZ AUX)
    Blend: AUG-CC-PVDZ-JKFIT

    Orbital Energies [Eh]
    ---------------------

    Doubly Occupied:

       1A    -15.575037     2A    -11.281786     3A    -11.281766
       4A    -11.266483     5A    -11.248694     6A    -11.248642
       7A     -1.259892     8A     -1.092371     9A     -1.037327
      10A     -0.861320    11A     -0.858427    12A     -0.723246
      13A     -0.661728    14A     -0.655480    15A     -0.600268
      16A     -0.577516    17A     -0.540988    18A     -0.520990
      19A     -0.418069    20A     -0.383277    21A     -0.348244

  @DF-RHF Final Energy:  -246.72397777924115

   => Energetics <=

    Nuclear Repulsion Energy =            206.2843073755037722
    One-Electron Energy =                -741.1334740017135800
    Two-Electron Energy =                 288.1251888469686264
    Total Energy =                       -246.7239777792411815

  Dipole Moment: [D]
     X:     2.3231      Y:    -0.0794      Z:     0.0017     Total:     2.3244

    SAPT Results
  --------------------------------------------------------------------------------------------------------
    Electrostatics                 -2.04219785 [mEh]      -1.28149850 [kcal/mol]      -5.36178971 [kJ/mol]
      Elst10,r                     -2.08901697 [mEh]      -1.31087794 [kcal/mol]      -5.48471329 [kJ/mol]
      Elst12,r                      0.04681912 [mEh]       0.02937944 [kcal/mol]       0.12292358 [kJ/mol]

    Exchange                        0.06635072 [mEh]       0.04163571 [kcal/mol]       0.17420380 [kJ/mol]
      Exch10                        0.04358574 [mEh]       0.02735047 [kcal/mol]       0.11443436 [kJ/mol]
      Exch10(S^2)                   0.04358334 [mEh]       0.02734896 [kcal/mol]       0.11442803 [kJ/mol]
      Exch11(S^2)                  -0.00110898 [mEh]      -0.00069589 [kcal/mol]      -0.00291162 [kJ/mol]
      Exch12(S^2)                   0.02387396 [mEh]       0.01498113 [kcal/mol]       0.06268106 [kJ/mol]

    Induction                      -0.14069601 [mEh]      -0.08828808 [kcal/mol]      -0.36939732 [kJ/mol]
      Ind20,r                      -0.13139380 [mEh]      -0.08245085 [kcal/mol]      -0.34497436 [kJ/mol]
      Ind22                        -0.00901847 [mEh]      -0.00565917 [kcal/mol]      -0.02367798 [kJ/mol]
      Exch-Ind20,r                  0.00936682 [mEh]       0.00587777 [kcal/mol]       0.02459258 [kJ/mol]
      Exch-Ind22                    0.00064291 [mEh]       0.00040343 [kcal/mol]       0.00168796 [kJ/mol]
      delta HF,r (2)               -0.01029348 [mEh]      -0.00645925 [kcal/mol]      -0.02702552 [kJ/mol]

    Dispersion                     -0.47326063 [mEh]      -0.29697553 [kcal/mol]      -1.24254561 [kJ/mol]
      Disp20                       -0.44230559 [mEh]      -0.27755095 [kcal/mol]      -1.16127317 [kJ/mol]
      Disp21                        0.07297838 [mEh]       0.04579462 [kcal/mol]       0.19160470 [kJ/mol]
      Disp22 (SDQ)                 -0.01893956 [mEh]      -0.01188475 [kcal/mol]      -0.04972580 [kJ/mol]
      Disp22 (T)                   -0.08708366 [mEh]      -0.05464582 [kcal/mol]      -0.22863813 [kJ/mol]
      Est. Disp22 (T)              -0.09053855 [mEh]      -0.05681380 [kcal/mol]      -0.23770893 [kJ/mol]
      Exch-Disp20                   0.00554469 [mEh]       0.00347935 [kcal/mol]       0.01455758 [kJ/mol]

  Total HF                         -2.17775168 [mEh]      -1.36655981 [kcal/mol]      -5.71768624 [kJ/mol]
  Total SAPT0                      -2.61451258 [mEh]      -1.64063141 [kcal/mol]      -6.86440183 [kJ/mol]
  Total SAPT2                      -2.55330403 [mEh]      -1.60222247 [kcal/mol]      -6.70369882 [kJ/mol]
  Total SAPT2+                     -2.58980376 [mEh]      -1.62512640 [kcal/mol]      -6.79952885 [kJ/mol]

  Special recipe for scaled SAPT0 (see Manual):
    Electrostatics sSAPT0          -2.08901697 [mEh]      -1.31087794 [kcal/mol]      -5.48471329 [kJ/mol]
    Exchange sSAPT0                 0.04358574 [mEh]       0.02735047 [kcal/mol]       0.11443436 [kJ/mol]
    Induction sSAPT0               -0.13231890 [mEh]      -0.08303136 [kcal/mol]      -0.34740323 [kJ/mol]
    Dispersion sSAPT0              -0.43675998 [mEh]      -0.27407103 [kcal/mol]      -1.14671317 [kJ/mol]
  Total sSAPT0                     -2.61451010 [mEh]      -1.64062986 [kcal/mol]      -6.86439533 [kJ/mol]
  --------------------------------------------------------------------------------------------------------

*** Psi4 exiting successfully. Buy a developer a beer!
