                               Psi4 1.4a2.dev224

  ==> Input File <==

--------------------------------------------------------------------------
#Generated by lconvert.py for sapt job

memory 20 GB

molecule  {
0 1
  O      -0.627650    0.087470    0.001470
  H       0.343600    0.122300   -0.000600
  C      -0.977930   -1.278560    0.001240
  H      -2.063390   -1.342040    0.005010
  H      -0.614880   -1.806380   -0.885380
  H      -0.608640   -1.808240    0.884170
--
0 1
  N       3.463470   -0.048950   -0.002260
  C       4.159840   -0.073390   -1.146980
  H       3.575360   -0.050160   -2.057960
  C       5.549470   -0.123130   -1.195670
  H       6.056820   -0.140420   -2.149450
  C       6.259850   -0.148840   -0.000050
  H       7.340180   -0.186610    0.000800
  C       5.547600   -0.123820    1.194490
  H       6.053400   -0.141640    2.148970
  C       4.158050   -0.074070    1.143530
  H       3.572040   -0.051400    2.053650
units angstrom
no_reorient
symmetry c1
}

set {
scf_type DF
basis aug-cc-pvdz
freeze_core True
guess SAD
}
energy('sapt2+')
--------------------------------------------------------------------------

  //              Dimer HF             //
    Molecular point group: c1
  Charge       = 0
  Multiplicity = 1
  Basis Set: AUG-CC-PVDZ
    Blend: AUG-CC-PVDZ
  Basis Set: (AUG-CC-PVDZ AUX)
    Blend: AUG-CC-PVDZ-JKFIT
  @DF-RHF Final Energy:  -361.78843115590854
    Total Energy =                       -361.7884311559085404
  //            Monomer A HF           //
    Molecular point group: c1
  Multiplicity = 1
  Basis Set: AUG-CC-PVDZ
    Blend: AUG-CC-PVDZ
  Basis Set: (AUG-CC-PVDZ AUX)
    Blend: AUG-CC-PVDZ-JKFIT
  @DF-RHF Final Energy:  -115.06080349161915
    Total Energy =                       -115.0608034916191542
  //            Monomer B HF           //
    Molecular point group: c1

    Geometry (in Angstrom), charge = 0, multiplicity = 1:

       Center              X                  Y                   Z               Mass
    ------------   -----------------  -----------------  -----------------  -----------------
      Gh(O)          -3.856850391619     0.326916800800     0.001922069160    15.994914619570
      Gh(H)          -2.885600391619     0.361746800800    -0.000147930840     1.007825032230
      Gh(C)          -4.207130391619    -1.039113199200     0.001692069160    12.000000000000
      Gh(H)          -5.292590391619    -1.102593199200     0.005462069160     1.007825032230
      Gh(H)          -3.844080391619    -1.566933199200    -0.884927930840     1.007825032230
      Gh(H)          -3.837840391619    -1.568793199200     0.884622069160     1.007825032230
         N            0.234269608381     0.190496800800    -0.001807930840    14.003074004430
         C            0.930639608381     0.166056800800    -1.146527930840    12.000000000000
         H            0.346159608381     0.189286800800    -2.057507930840     1.007825032230
         C            2.320269608381     0.116316800800    -1.195217930840    12.000000000000
         H            2.827619608381     0.099026800800    -2.148997930840     1.007825032230
         C            3.030649608381     0.090606800800     0.000402069160    12.000000000000
         H            4.110979608381     0.052836800800     0.001252069160     1.007825032230
         C            2.318399608381     0.115626800800     1.194942069160    12.000000000000
         H            2.824199608381     0.097806800800     2.149422069160     1.007825032230
         C            0.928849608381     0.165376800800     1.143982069160    12.000000000000
         H            0.342839608381     0.188046800800     2.054102069160     1.007825032230

  Charge       = 0
  Multiplicity = 1
  Basis Set: AUG-CC-PVDZ
    Blend: AUG-CC-PVDZ
  Basis Set: (AUG-CC-PVDZ AUX)
    Blend: AUG-CC-PVDZ-JKFIT

    Orbital Energies [Eh]
    ---------------------

    Doubly Occupied:

       1A    -15.575040     2A    -11.281776     3A    -11.281756
       4A    -11.266480     5A    -11.248682     6A    -11.248630
       7A     -1.259888     8A     -1.092369     9A     -1.037325
      10A     -0.861319    11A     -0.858424    12A     -0.723245
      13A     -0.661727    14A     -0.655480    15A     -0.600267
      16A     -0.577516    17A     -0.540986    18A     -0.520986
      19A     -0.418073    20A     -0.383274    21A     -0.348244

  @DF-RHF Final Energy:  -246.72401339964628

   => Energetics <=

    Nuclear Repulsion Energy =            206.2843155171908052
    One-Electron Energy =                -741.1336851874755212
    Two-Electron Energy =                 288.1253562706383491
    Total Energy =                       -246.7240133996463101

  Dipole Moment: [D]
     X:     2.3223      Y:    -0.0792      Z:     0.0018     Total:     2.3237

    SAPT Results
  --------------------------------------------------------------------------------------------------------
    Electrostatics                 -3.52677490 [mEh]      -2.21308466 [kcal/mol]      -9.25954623 [kJ/mol]
      Elst10,r                     -3.56989807 [mEh]      -2.24014486 [kcal/mol]      -9.37276610 [kJ/mol]
      Elst12,r                      0.04312317 [mEh]       0.02706020 [kcal/mol]       0.11321988 [kJ/mol]

    Exchange                        0.46141900 [mEh]       0.28954480 [kcal/mol]       1.21145543 [kJ/mol]
      Exch10                        0.33012511 [mEh]       0.20715663 [kcal/mol]       0.86674335 [kJ/mol]
      Exch10(S^2)                   0.33001101 [mEh]       0.20708503 [kcal/mol]       0.86644378 [kJ/mol]
      Exch11(S^2)                  -0.00437292 [mEh]      -0.00274405 [kcal/mol]      -0.01148110 [kJ/mol]
      Exch12(S^2)                   0.13566682 [mEh]       0.08513221 [kcal/mol]       0.35619318 [kJ/mol]

    Induction                      -0.41439679 [mEh]      -0.26003791 [kcal/mol]      -1.08799862 [kJ/mol]
      Ind20,r                      -0.38927043 [mEh]      -0.24427088 [kcal/mol]      -1.02202936 [kJ/mol]
      Ind22                        -0.04927206 [mEh]      -0.03091868 [kcal/mol]      -0.12936377 [kJ/mol]
      Exch-Ind20,r                  0.07400289 [mEh]       0.04643752 [kcal/mol]       0.19429457 [kJ/mol]
      Exch-Ind22                    0.00936695 [mEh]       0.00587785 [kcal/mol]       0.02459291 [kJ/mol]
      delta HF,r (2)               -0.05922414 [mEh]      -0.03716371 [kcal/mol]      -0.15549296 [kJ/mol]

    Dispersion                     -1.04807010 [mEh]      -0.65767392 [kcal/mol]      -2.75170768 [kJ/mol]
      Disp20                       -0.97167512 [mEh]      -0.60973534 [kcal/mol]      -2.55113268 [kJ/mol]
      Disp21                        0.13193263 [mEh]       0.08278898 [kcal/mol]       0.34638908 [kJ/mol]
      Disp22 (SDQ)                 -0.04671008 [mEh]      -0.02931102 [kcal/mol]      -0.12263729 [kJ/mol]
      Disp22 (T)                   -0.18539901 [mEh]      -0.11633964 [kcal/mol]      -0.48676504 [kJ/mol]
      Est. Disp22 (T)              -0.19700917 [mEh]      -0.12362512 [kcal/mol]      -0.51724750 [kJ/mol]
      Exch-Disp20                   0.03539163 [mEh]       0.02220858 [kcal/mol]       0.09292072 [kJ/mol]

  Total HF                         -3.61426464 [mEh]      -2.26798530 [kcal/mol]      -9.48925051 [kJ/mol]
  Total SAPT0                      -4.55054813 [mEh]      -2.85551206 [kcal/mol]     -11.94746247 [kJ/mol]
  Total SAPT2                      -4.41603617 [mEh]      -2.77110454 [kcal/mol]     -11.59430138 [kJ/mol]
  Total SAPT2+                     -4.52782279 [mEh]      -2.84125170 [kcal/mol]     -11.88779709 [kJ/mol]

  Special recipe for scaled SAPT0 (see Manual):
    Electrostatics sSAPT0          -3.56989807 [mEh]      -2.24014486 [kcal/mol]      -9.37276610 [kJ/mol]
    Exchange sSAPT0                 0.33012511 [mEh]       0.20715663 [kcal/mol]       0.86674335 [kJ/mol]
    Induction sSAPT0               -0.37441489 [mEh]      -0.23494889 [kcal/mol]      -0.98302616 [kJ/mol]
    Dispersion sSAPT0              -0.93624677 [mEh]      -0.58750372 [kcal/mol]      -2.45811555 [kJ/mol]
  Total sSAPT0                     -4.55043463 [mEh]      -2.85544084 [kcal/mol]     -11.94716446 [kJ/mol]
  --------------------------------------------------------------------------------------------------------

*** Psi4 exiting successfully. Buy a developer a beer!
