                               Psi4 1.4a2.dev224

  ==> Input File <==

--------------------------------------------------------------------------
#Generated by lconvert.py for sapt job

memory 20 GB

molecule  {
0 1
  O      -0.627650    0.087470    0.001470
  H       0.343600    0.122300   -0.000600
  C      -0.977930   -1.278560    0.001240
  H      -2.063390   -1.342040    0.005010
  H      -0.614880   -1.806380   -0.885380
  H      -0.608640   -1.808240    0.884170
--
0 1
  N       2.878510   -0.016840   -0.001950
  C       3.574880   -0.041280   -1.146670
  H       2.990400   -0.018050   -2.057640
  C       4.964520   -0.091020   -1.195350
  H       5.471870   -0.108310   -2.149140
  C       5.674890   -0.116730    0.000260
  H       6.755230   -0.154500    0.001110
  C       4.962640   -0.091710    1.194800
  H       5.468440   -0.109540    2.149280
  C       3.573090   -0.041960    1.143840
  H       2.987080   -0.019290    2.053960
units angstrom
no_reorient
symmetry c1
}

set {
scf_type DF
basis aug-cc-pvdz
freeze_core True
guess SAD
}
energy('sapt2+')
--------------------------------------------------------------------------

  //              Dimer HF             //
    Molecular point group: c1
  Charge       = 0
  Multiplicity = 1
  Basis Set: AUG-CC-PVDZ
    Blend: AUG-CC-PVDZ
  Basis Set: (AUG-CC-PVDZ AUX)
    Blend: AUG-CC-PVDZ-JKFIT
  @DF-RHF Final Energy:  -361.79092785123458
    Total Energy =                       -361.7909278512345850
  //            Monomer A HF           //
    Molecular point group: c1
  Multiplicity = 1
  Basis Set: AUG-CC-PVDZ
    Blend: AUG-CC-PVDZ
  Basis Set: (AUG-CC-PVDZ AUX)
    Blend: AUG-CC-PVDZ-JKFIT
  @DF-RHF Final Energy:  -115.06086797650207
    Total Energy =                       -115.0608679765020668
  //            Monomer B HF           //
    Molecular point group: c1

    Geometry (in Angstrom), charge = 0, multiplicity = 1:

       Center              X                  Y                   Z               Mass
    ------------   -----------------  -----------------  -----------------  -----------------
      Gh(O)          -3.440562960854     0.304065705268     0.001700285494    15.994914619570
      Gh(H)          -2.469312960854     0.338895705268    -0.000369714506     1.007825032230
      Gh(C)          -3.790842960854    -1.061964294732     0.001470285494    12.000000000000
      Gh(H)          -4.876302960854    -1.125444294732     0.005240285494     1.007825032230
      Gh(H)          -3.427792960854    -1.589784294732    -0.885149714506     1.007825032230
      Gh(H)          -3.421552960854    -1.591644294732     0.884400285494     1.007825032230
         N            0.065597039146     0.199755705268    -0.001719714506    14.003074004430
         C            0.761967039146     0.175315705268    -1.146439714506    12.000000000000
         H            0.177487039146     0.198545705268    -2.057409714506     1.007825032230
         C            2.151607039146     0.125575705268    -1.195119714506    12.000000000000
         H            2.658957039146     0.108285705268    -2.148909714506     1.007825032230
         C            2.861977039146     0.099865705268     0.000490285494    12.000000000000
         H            3.942317039146     0.062095705268     0.001340285494     1.007825032230
         C            2.149727039146     0.124885705268     1.195030285494    12.000000000000
         H            2.655527039146     0.107055705268     2.149510285494     1.007825032230
         C            0.760177039146     0.174635705268     1.144070285494    12.000000000000
         H            0.174167039146     0.197305705268     2.054190285494     1.007825032230

  Charge       = 0
  Multiplicity = 1
  Basis Set: AUG-CC-PVDZ
    Blend: AUG-CC-PVDZ
  Basis Set: (AUG-CC-PVDZ AUX)
    Blend: AUG-CC-PVDZ-JKFIT

    Orbital Energies [Eh]
    ---------------------

    Doubly Occupied:

       1A    -15.575054     2A    -11.281760     3A    -11.281741
       4A    -11.266471     5A    -11.248672     6A    -11.248620
       7A     -1.259870     8A     -1.092363     9A     -1.037313
      10A     -0.861308    11A     -0.858415    12A     -0.723240
      13A     -0.661714    14A     -0.655475    15A     -0.600256
      16A     -0.577508    17A     -0.540974    18A     -0.520977
      19A     -0.418078    20A     -0.383262    21A     -0.348238

  @DF-RHF Final Energy:  -246.72406839392465

   => Energetics <=

    Nuclear Repulsion Energy =            206.2843469486970491
    One-Electron Energy =                -741.1342095235544321
    Two-Electron Energy =                 288.1257941809327576
    Total Energy =                       -246.7240683939246537

  Dipole Moment: [D]
     X:     2.3203      Y:    -0.0791      Z:     0.0017     Total:     2.3216

    SAPT Results
  --------------------------------------------------------------------------------------------------------
    Electrostatics                 -7.17842885 [mEh]      -4.50453211 [kcal/mol]     -18.84696235 [kJ/mol]
      Elst10,r                     -7.09736940 [mEh]      -4.45366654 [kcal/mol]     -18.63414079 [kJ/mol]
      Elst12,r                     -0.08105945 [mEh]      -0.05086557 [kcal/mol]      -0.21282155 [kJ/mol]

    Exchange                        3.14787912 [mEh]       1.97532397 [kcal/mol]       8.26475549 [kJ/mol]
      Exch10                        2.45402535 [mEh]       1.53992416 [kcal/mol]       6.44304268 [kJ/mol]
      Exch10(S^2)                   2.44888323 [mEh]       1.53669743 [kcal/mol]       6.42954205 [kJ/mol]
      Exch11(S^2)                  -0.00542555 [mEh]      -0.00340458 [kcal/mol]      -0.01424477 [kJ/mol]
      Exch12(S^2)                   0.69927931 [mEh]       0.43880439 [kcal/mol]       1.83595758 [kJ/mol]

    Induction                      -1.51580457 [mEh]      -0.95118173 [kcal/mol]      -3.97974436 [kJ/mol]
      Ind20,r                      -1.56058426 [mEh]      -0.97928141 [kcal/mol]      -4.09731340 [kJ/mol]
      Ind22                        -0.27043862 [mEh]      -0.16970280 [kcal/mol]      -0.71003651 [kJ/mol]
      Exch-Ind20,r                  0.59304588 [mEh]       0.37214191 [kcal/mol]       1.55704174 [kJ/mol]
      Exch-Ind22                    0.10277081 [mEh]       0.06448966 [kcal/mol]       0.26982473 [kJ/mol]
      delta HF,r (2)               -0.38059838 [mEh]      -0.23882909 [kcal/mol]      -0.99926092 [kJ/mol]

    Dispersion                     -2.56907059 [mEh]      -1.61211614 [kcal/mol]      -6.74509391 [kJ/mol]
      Disp20                       -2.46189985 [mEh]      -1.54486548 [kcal/mol]      -6.46371716 [kJ/mol]
      Disp21                        0.27786566 [mEh]       0.17436334 [kcal/mol]       0.72953620 [kJ/mol]
      Disp22 (SDQ)                 -0.12249154 [mEh]      -0.07686460 [kcal/mol]      -0.32160148 [kJ/mol]
      Disp22 (T)                   -0.44298615 [mEh]      -0.27797801 [kcal/mol]      -1.16305999 [kJ/mol]
      Est. Disp22 (T)              -0.48476845 [mEh]      -0.30419680 [kcal/mol]      -1.27275940 [kJ/mol]
      Exch-Disp20                   0.22222358 [mEh]       0.13944740 [kcal/mol]       0.58344793 [kJ/mol]

  Total HF                         -5.99148081 [mEh]      -3.75971097 [kcal/mol]     -15.73063069 [kJ/mol]
  Total SAPT0                      -8.23115707 [mEh]      -5.16512904 [kcal/mol]     -21.61089992 [kJ/mol]
  Total SAPT2                      -7.78603057 [mEh]      -4.88580795 [kcal/mol]     -20.44222044 [kJ/mol]
  Total SAPT2+                     -8.11542489 [mEh]      -5.09250601 [kcal/mol]     -21.30704513 [kJ/mol]

  Special recipe for scaled SAPT0 (see Manual):
    Electrostatics sSAPT0          -7.09736940 [mEh]      -4.45366654 [kcal/mol]     -18.63414079 [kJ/mol]
    Exchange sSAPT0                 2.45402535 [mEh]       1.53992416 [kcal/mol]       6.44304268 [kJ/mol]
    Induction sSAPT0               -1.34439311 [mEh]      -0.84361941 [kcal/mol]      -3.52970363 [kJ/mol]
    Dispersion sSAPT0              -2.23827346 [mEh]      -1.40453780 [kcal/mol]      -5.87658616 [kJ/mol]
  Total sSAPT0                     -8.22601062 [mEh]      -5.16189960 [kcal/mol]     -21.59738791 [kJ/mol]
  --------------------------------------------------------------------------------------------------------

*** Psi4 exiting successfully. Buy a developer a beer!
