                               Psi4 1.4a2.dev224

  ==> Input File <==

--------------------------------------------------------------------------
#Generated by lconvert.py for sapt job

memory 20 GB

molecule  {
0 1
  C      -1.061710    1.297140    0.292060
  O      -0.358160    2.270460    0.531810
  O      -0.589300    0.094920    0.003790
  H       0.404440    0.127720    0.018410
  C      -2.558430    1.342550    0.296260
  H      -2.896000    2.347460    0.518320
  H      -2.932890    1.022390   -0.673000
  H      -2.937210    0.644910    1.039560
--
0 1
  C       4.322020    1.115250    0.282810
  O       3.618410    0.141930    0.043030
  O       3.849600    2.317680    0.570590
  H       2.855810    2.284780    0.556190
  C       5.818740    1.069340    0.280850
  H       6.156320    0.068020    0.043320
  H       6.200240    1.779700   -0.448620
  H       6.190250    1.372040    1.256900
units angstrom
no_reorient
symmetry c1
}

set {
scf_type DF
basis aug-cc-pvdz
freeze_core True
guess SAD
}
energy('sapt2+')
--------------------------------------------------------------------------

  //              Dimer HF             //
    Molecular point group: c1
  Charge       = 0
  Multiplicity = 1
  Basis Set: AUG-CC-PVDZ
    Blend: AUG-CC-PVDZ
  Basis Set: (AUG-CC-PVDZ AUX)
    Blend: AUG-CC-PVDZ-JKFIT
  @DF-RHF Final Energy:  -455.69938291291982
    Total Energy =                       -455.6993829129198161
  //            Monomer A HF           //
    Molecular point group: c1
  Multiplicity = 1
  Basis Set: AUG-CC-PVDZ
    Blend: AUG-CC-PVDZ
  Basis Set: (AUG-CC-PVDZ AUX)
    Blend: AUG-CC-PVDZ-JKFIT
  @DF-RHF Final Energy:  -227.84632278522008
    Total Energy =                       -227.8463227852200816
  //            Monomer B HF           //
    Molecular point group: c1

    Geometry (in Angstrom), charge = 0, multiplicity = 1:

       Center              X                  Y                   Z               Mass
    ------------   -----------------  -----------------  -----------------  -----------------
      Gh(C)          -2.691853322154     0.090988325938     0.004372976962    12.000000000000
      Gh(O)          -1.988303322154     1.064308325938     0.244122976962    15.994914619570
      Gh(O)          -2.219443322154    -1.111231674062    -0.283897023038    15.994914619570
      Gh(H)          -1.225703322154    -1.078431674062    -0.269277023038     1.007825032230
      Gh(C)          -4.188573322154     0.136398325938     0.008572976962    12.000000000000
      Gh(H)          -4.526143322154     1.141308325938     0.230632976962     1.007825032230
      Gh(H)          -4.563033322154    -0.183761674062    -0.960687023038     1.007825032230
      Gh(H)          -4.567353322154    -0.561241674062     0.751872976962     1.007825032230
         C            2.691876677846    -0.090901674062    -0.004877023038    12.000000000000
         O            1.988266677846    -1.064221674062    -0.244657023038    15.994914619570
         O            2.219456677846     1.111528325938     0.282902976962    15.994914619570
         H            1.225666677846     1.078628325938     0.268502976962     1.007825032230
         C            4.188596677846    -0.136811674062    -0.006837023038    12.000000000000
         H            4.526176677846    -1.138131674062    -0.244367023038     1.007825032230
         H            4.570096677846     0.573548325938    -0.736307023038     1.007825032230
         H            4.560106677846     0.165888325938     0.969212976962     1.007825032230

  Charge       = 0
  Multiplicity = 1
  Basis Set: AUG-CC-PVDZ
    Blend: AUG-CC-PVDZ
  Basis Set: (AUG-CC-PVDZ AUX)
    Blend: AUG-CC-PVDZ-JKFIT

    Orbital Energies [Eh]
    ---------------------

    Doubly Occupied:

       1A    -20.633614     2A    -20.555988     3A    -11.398528
       4A    -11.250879     5A     -1.476086     6A     -1.359282
       7A     -1.030250     8A     -0.835765     9A     -0.707140
      10A     -0.683225    11A     -0.656055    12A     -0.580015
      13A     -0.572823    14A     -0.564090    15A     -0.477429
      16A     -0.451698

  @DF-RHF Final Energy:  -227.84631525263322

   => Energetics <=

    Nuclear Repulsion Energy =            121.3504364814108385
    One-Electron Energy =                -551.9277677894433509
    Two-Electron Energy =                 202.7310160553992944
    Total Energy =                       -227.8463152526332181

  Dipole Moment: [D]
     X:     1.1143      Y:     1.8723      Z:     0.4589     Total:     2.2266

    SAPT Results
  --------------------------------------------------------------------------------------------------------
    Electrostatics                 -5.56899977 [mEh]      -3.49460011 [kcal/mol]     -14.62140688 [kJ/mol]
      Elst10,r                     -6.51081723 [mEh]      -4.08559949 [kcal/mol]     -17.09414828 [kJ/mol]
      Elst12,r                      0.94181746 [mEh]       0.59099938 [kcal/mol]       2.47274141 [kJ/mol]

    Exchange                        0.40568600 [mEh]       0.25457181 [kcal/mol]       1.06512845 [kJ/mol]
      Exch10                        0.26160755 [mEh]       0.16416122 [kcal/mol]       0.68685054 [kJ/mol]
      Exch10(S^2)                   0.26154618 [mEh]       0.16412270 [kcal/mol]       0.68668939 [kJ/mol]
      Exch11(S^2)                  -0.00454026 [mEh]      -0.00284905 [kcal/mol]      -0.01192044 [kJ/mol]
      Exch12(S^2)                   0.14861871 [mEh]       0.09325965 [kcal/mol]       0.39019836 [kJ/mol]

    Induction                      -0.53782980 [mEh]      -0.33749330 [kcal/mol]      -1.41207195 [kJ/mol]
      Ind20,r                      -0.49148868 [mEh]      -0.30841380 [kcal/mol]      -1.29040335 [kJ/mol]
      Ind22                        -0.04739344 [mEh]      -0.02973983 [kcal/mol]      -0.12443147 [kJ/mol]
      Exch-Ind20,r                  0.05422711 [mEh]       0.03402803 [kcal/mol]       0.14237326 [kJ/mol]
      Exch-Ind22                    0.00522903 [mEh]       0.00328127 [kcal/mol]       0.01372882 [kJ/mol]
      delta HF,r (2)               -0.05840382 [mEh]      -0.03664895 [kcal/mol]      -0.15333921 [kJ/mol]

    Dispersion                     -1.10320144 [mEh]      -0.69226936 [kcal/mol]      -2.89645499 [kJ/mol]
      Disp20                       -0.92989963 [mEh]      -0.58352082 [kcal/mol]      -2.44145113 [kJ/mol]
      Disp21                        0.07578093 [mEh]       0.04755325 [kcal/mol]       0.19896281 [kJ/mol]
      Disp22 (SDQ)                 -0.07307963 [mEh]      -0.04585816 [kcal/mol]      -0.19187054 [kJ/mol]
      Disp22 (T)                   -0.19243275 [mEh]      -0.12075337 [kcal/mol]      -0.50523211 [kJ/mol]
      Est. Disp22 (T)              -0.20222540 [mEh]      -0.12689836 [kcal/mol]      -0.53094272 [kJ/mol]
      Exch-Disp20                   0.02622228 [mEh]       0.01645473 [kcal/mol]       0.06884660 [kJ/mol]

  Total HF                         -6.74487507 [mEh]      -4.23247300 [kcal/mol]     -17.70866705 [kJ/mol]
  Total SAPT0                      -7.64855241 [mEh]      -4.79953910 [kcal/mol]     -20.08127158 [kJ/mol]
  Total SAPT2                      -6.60482091 [mEh]      -4.14458769 [kcal/mol]     -17.34095491 [kJ/mol]
  Total SAPT2+                     -6.80434501 [mEh]      -4.26979096 [kcal/mol]     -17.86480537 [kJ/mol]

  Special recipe for scaled SAPT0 (see Manual):
    Electrostatics sSAPT0          -6.51081723 [mEh]      -4.08559949 [kcal/mol]     -17.09414828 [kJ/mol]
    Exchange sSAPT0                 0.26160755 [mEh]       0.16416122 [kcal/mol]       0.68685054 [kJ/mol]
    Induction sSAPT0               -0.49562720 [mEh]      -0.31101077 [kcal/mol]      -1.30126905 [kJ/mol]
    Dispersion sSAPT0              -0.90365888 [mEh]      -0.56705451 [kcal/mol]      -2.37255605 [kJ/mol]
  Total sSAPT0                     -7.64849576 [mEh]      -4.79950355 [kcal/mol]     -20.08112285 [kJ/mol]
  --------------------------------------------------------------------------------------------------------

*** Psi4 exiting successfully. Buy a developer a beer!
