                               Psi4 1.4a2.dev224

  ==> Input File <==

--------------------------------------------------------------------------
#Generated by lconvert.py for sapt job

memory 20 GB

molecule  {
0 1
  C      -1.061710    1.297140    0.292060
  O      -0.358160    2.270460    0.531810
  O      -0.589300    0.094920    0.003790
  H       0.404440    0.127720    0.018410
  C      -2.558430    1.342550    0.296260
  H      -2.896000    2.347460    0.518320
  H      -2.932890    1.022390   -0.673000
  H      -2.937210    0.644910    1.039560
--
0 1
  C       3.307120    1.110720    0.275120
  O       2.603500    0.137410    0.035330
  O       2.834690    2.313160    0.562900
  H       1.840900    2.280260    0.548500
  C       4.803830    1.064820    0.273160
  H       5.141410    0.063500    0.035630
  H       5.185330    1.775170   -0.456310
  H       5.175350    1.367510    1.249210
units angstrom
no_reorient
symmetry c1
}

set {
scf_type DF
basis aug-cc-pvdz
freeze_core True
guess SAD
}
energy('sapt2+')
--------------------------------------------------------------------------

  //              Dimer HF             //
    Molecular point group: c1
  Charge       = 0
  Multiplicity = 1
  Basis Set: AUG-CC-PVDZ
    Blend: AUG-CC-PVDZ
  Basis Set: (AUG-CC-PVDZ AUX)
    Blend: AUG-CC-PVDZ-JKFIT
  @DF-RHF Final Energy:  -455.71219903863403
    Total Energy =                       -455.7121990386340258
  //            Monomer A HF           //
    Molecular point group: c1
  Multiplicity = 1
  Basis Set: AUG-CC-PVDZ
    Blend: AUG-CC-PVDZ
  Basis Set: (AUG-CC-PVDZ AUX)
    Blend: AUG-CC-PVDZ-JKFIT
  @DF-RHF Final Energy:  -227.84652652424873
    Total Energy =                       -227.8465265242487305
  //            Monomer B HF           //
    Molecular point group: c1

    Geometry (in Angstrom), charge = 0, multiplicity = 1:

       Center              X                  Y                   Z               Mass
    ------------   -----------------  -----------------  -----------------  -----------------
      Gh(C)          -2.184399405758     0.093249493498     0.008219309402    12.000000000000
      Gh(O)          -1.480849405758     1.066569493498     0.247969309402    15.994914619570
      Gh(O)          -1.711989405758    -1.108970506502    -0.280050690598    15.994914619570
      Gh(H)          -0.718249405758    -1.076170506502    -0.265430690598     1.007825032230
      Gh(C)          -3.681119405758     0.138659493498     0.012419309402    12.000000000000
      Gh(H)          -4.018689405758     1.143569493498     0.234479309402     1.007825032230
      Gh(H)          -4.055579405758    -0.181500506502    -0.956840690598     1.007825032230
      Gh(H)          -4.059899405758    -0.558980506502     0.755719309402     1.007825032230
         C            2.184430594242    -0.093170506502    -0.008720690598    12.000000000000
         O            1.480810594242    -1.066480506502    -0.248510690598    15.994914619570
         O            1.712000594242     1.109269493498     0.279059309402    15.994914619570
         H            0.718210594242     1.076369493498     0.264659309402     1.007825032230
         C            3.681140594242    -0.139070506502    -0.010680690598    12.000000000000
         H            4.018720594242    -1.140390506502    -0.248210690598     1.007825032230
         H            4.062640594242     0.571279493498    -0.740150690598     1.007825032230
         H            4.052660594242     0.163619493498     0.965369309402     1.007825032230

  Charge       = 0
  Multiplicity = 1
  Basis Set: AUG-CC-PVDZ
    Blend: AUG-CC-PVDZ
  Basis Set: (AUG-CC-PVDZ AUX)
    Blend: AUG-CC-PVDZ-JKFIT

    Orbital Energies [Eh]
    ---------------------

    Doubly Occupied:

       1A    -20.633561     2A    -20.556072     3A    -11.398430
       4A    -11.250807     5A     -1.475991     6A     -1.359183
       7A     -1.030216     8A     -0.835702     9A     -0.707075
      10A     -0.683180    11A     -0.655980    12A     -0.579979
      13A     -0.572793    14A     -0.564045    15A     -0.477316
      16A     -0.451677

  @DF-RHF Final Energy:  -227.84651926624161

   => Energetics <=

    Nuclear Repulsion Energy =            121.3503348148357333
    One-Electron Energy =                -551.9296956211943552
    Two-Electron Energy =                 202.7328415401170219
    Total Energy =                       -227.8465192662416143

  Dipole Moment: [D]
     X:     1.1084      Y:     1.8718      Z:     0.4588     Total:     2.2232

    SAPT Results
  --------------------------------------------------------------------------------------------------------
    Electrostatics                -20.70063638 [mEh]     -12.98984544 [kcal/mol]     -54.34951332 [kJ/mol]
      Elst10,r                    -22.49497127 [mEh]     -14.11580758 [kcal/mol]     -59.06053893 [kJ/mol]
      Elst12,r                      1.79433489 [mEh]       1.12596214 [kcal/mol]       4.71102560 [kJ/mol]

    Exchange                       11.82391028 [mEh]       7.41961572 [kcal/mol]      31.04367216 [kJ/mol]
      Exch10                        9.07704655 [mEh]       5.69593270 [kcal/mol]      23.83178244 [kJ/mol]
      Exch10(S^2)                   9.03984240 [mEh]       5.67258675 [kcal/mol]      23.73410294 [kJ/mol]
      Exch11(S^2)                  -0.06078114 [mEh]      -0.03814074 [kcal/mol]      -0.15958085 [kJ/mol]
      Exch12(S^2)                   2.80764486 [mEh]       1.76182375 [kcal/mol]       7.37147058 [kJ/mol]

    Induction                      -6.42150629 [mEh]      -4.02955603 [kcal/mol]     -16.85966244 [kJ/mol]
      Ind20,r                      -6.20352693 [mEh]      -3.89277192 [kcal/mol]     -16.28735770 [kJ/mol]
      Ind22                        -1.08884520 [mEh]      -0.68326068 [kcal/mol]      -2.85876268 [kJ/mol]
      Exch-Ind20,r                  2.29410634 [mEh]       1.43957346 [kcal/mol]       6.02317536 [kJ/mol]
      Exch-Ind22                    0.40266234 [mEh]       0.25267443 [kcal/mol]       1.05718983 [kJ/mol]
      delta HF,r (2)               -1.82590284 [mEh]      -1.14577133 [kcal/mol]      -4.79390724 [kJ/mol]

    Dispersion                     -5.82403900 [mEh]      -3.65463965 [kcal/mol]     -15.29101229 [kJ/mol]
      Disp20                       -5.33034922 [mEh]      -3.34484463 [kcal/mol]     -13.99482995 [kJ/mol]
      Disp21                        0.34927719 [mEh]       0.21917474 [kcal/mol]       0.91702713 [kJ/mol]
      Disp22 (SDQ)                 -0.41208313 [mEh]      -0.25858607 [kcal/mol]      -1.08192411 [kJ/mol]
      Disp22 (T)                   -0.98151189 [mEh]      -0.61590801 [kcal/mol]      -2.57695911 [kJ/mol]
      Est. Disp22 (T)              -1.09005695 [mEh]      -0.68402106 [kcal/mol]      -2.86194413 [kJ/mol]
      Exch-Disp20                   0.65917312 [mEh]       0.41363738 [kcal/mol]       1.73065878 [kJ/mol]

  Total HF                        -19.15324814 [mEh]     -12.01884466 [kcal/mol]     -50.28684607 [kJ/mol]
  Total SAPT0                     -23.82442425 [mEh]     -14.95005192 [kcal/mol]     -62.55101724 [kJ/mol]
  Total SAPT2                     -19.96940849 [mEh]     -12.53099301 [kcal/mol]     -52.42967477 [kJ/mol]
  Total SAPT2+                    -21.12227139 [mEh]     -13.25442540 [kcal/mol]     -55.45651588 [kJ/mol]

  Special recipe for scaled SAPT0 (see Manual):
    Electrostatics sSAPT0         -22.49497127 [mEh]     -14.11580758 [kcal/mol]     -59.06053893 [kJ/mol]
    Exchange sSAPT0                 9.07704655 [mEh]       5.69593270 [kcal/mol]      23.83178244 [kJ/mol]
    Induction sSAPT0               -5.70688199 [mEh]      -3.58112252 [kcal/mol]     -14.98341661 [kJ/mol]
    Dispersion sSAPT0              -4.66300393 [mEh]      -2.92607914 [kcal/mol]     -12.24271514 [kJ/mol]
  Total sSAPT0                    -23.78781064 [mEh]     -14.92707654 [kcal/mol]     -62.45488823 [kJ/mol]
  --------------------------------------------------------------------------------------------------------

*** Psi4 exiting successfully. Buy a developer a beer!
