                               Psi4 1.4a2.dev224

  ==> Input File <==

--------------------------------------------------------------------------
#Generated by lconvert.py for sapt job

memory 20 GB

molecule  {
0 1
  C      -1.061710    1.297140    0.292060
  O      -0.358160    2.270460    0.531810
  O      -0.589300    0.094920    0.003790
  H       0.404440    0.127720    0.018410
  C      -2.558430    1.342550    0.296260
  H      -2.896000    2.347460    0.518320
  H      -2.932890    1.022390   -0.673000
  H      -2.937210    0.644910    1.039560
--
0 1
  C       3.814570    1.112980    0.278970
  O       3.110950    0.139670    0.039180
  O       3.342140    2.315420    0.566750
  H       2.348360    2.282520    0.552340
  C       5.311280    1.067080    0.277000
  H       5.648860    0.065760    0.039480
  H       5.692780    1.777430   -0.452470
  H       5.682800    1.369770    1.253060
units angstrom
no_reorient
symmetry c1
}

set {
scf_type DF
basis aug-cc-pvdz
freeze_core True
guess SAD
}
energy('sapt2+')
--------------------------------------------------------------------------

  //              Dimer HF             //
    Molecular point group: c1
  Charge       = 0
  Multiplicity = 1
  Basis Set: AUG-CC-PVDZ
    Blend: AUG-CC-PVDZ
  Basis Set: (AUG-CC-PVDZ AUX)
    Blend: AUG-CC-PVDZ-JKFIT
  @DF-RHF Final Energy:  -455.70421840377622
    Total Energy =                       -455.7042184037762809
  //            Monomer A HF           //
    Molecular point group: c1
  Multiplicity = 1
  Basis Set: AUG-CC-PVDZ
    Blend: AUG-CC-PVDZ
  Basis Set: (AUG-CC-PVDZ AUX)
    Blend: AUG-CC-PVDZ-JKFIT
  @DF-RHF Final Energy:  -227.84638771733069
    Total Energy =                       -227.8463877173306855
  //            Monomer B HF           //
    Molecular point group: c1

    Geometry (in Angstrom), charge = 0, multiplicity = 1:

       Center              X                  Y                   Z               Mass
    ------------   -----------------  -----------------  -----------------  -----------------
      Gh(C)          -2.438124489713     0.092119493498     0.006295476962    12.000000000000
      Gh(O)          -1.734574489713     1.065439493498     0.246045476962    15.994914619570
      Gh(O)          -1.965714489713    -1.110100506502    -0.281974523038    15.994914619570
      Gh(H)          -0.971974489713    -1.077300506502    -0.267354523038     1.007825032230
      Gh(C)          -3.934844489713     0.137529493498     0.010495476962    12.000000000000
      Gh(H)          -4.272414489713     1.142439493498     0.232555476962     1.007825032230
      Gh(H)          -4.309304489713    -0.182630506502    -0.958764523038     1.007825032230
      Gh(H)          -4.313624489713    -0.560110506502     0.753795476962     1.007825032230
         C            2.438155510287    -0.092040506502    -0.006794523038    12.000000000000
         O            1.734535510287    -1.065350506502    -0.246584523038    15.994914619570
         O            1.965725510287     1.110399493498     0.280985476962    15.994914619570
         H            0.971945510287     1.077499493498     0.266575476962     1.007825032230
         C            3.934865510287    -0.137940506502    -0.008764523038    12.000000000000
         H            4.272445510287    -1.139260506502    -0.246284523038     1.007825032230
         H            4.316365510287     0.572409493498    -0.738234523038     1.007825032230
         H            4.306385510287     0.164749493498     0.967295476962     1.007825032230

  Charge       = 0
  Multiplicity = 1
  Basis Set: AUG-CC-PVDZ
    Blend: AUG-CC-PVDZ
  Basis Set: (AUG-CC-PVDZ AUX)
    Blend: AUG-CC-PVDZ-JKFIT

    Orbital Energies [Eh]
    ---------------------

    Doubly Occupied:

       1A    -20.633596     2A    -20.556014     3A    -11.398502
       4A    -11.250856     5A     -1.476055     6A     -1.359252
       7A     -1.030242     8A     -0.835745     9A     -0.707121
      10A     -0.683211    11A     -0.656032    12A     -0.580003
      13A     -0.572817    14A     -0.564077    15A     -0.477395
      16A     -0.451698

  @DF-RHF Final Energy:  -227.84638131009854

   => Energetics <=

    Nuclear Repulsion Energy =            121.3503659619536279
    One-Electron Energy =                -551.9282651607003345
    Two-Electron Energy =                 202.7315178886481704
    Total Energy =                       -227.8463813100985362

  Dipole Moment: [D]
     X:     1.1122      Y:     1.8721      Z:     0.4588     Total:     2.2254

    SAPT Results
  --------------------------------------------------------------------------------------------------------
    Electrostatics                -10.06739085 [mEh]      -6.31738314 [kcal/mol]     -26.43193104 [kJ/mol]
      Elst10,r                    -11.43504256 [mEh]      -7.17559754 [kcal/mol]     -30.02270010 [kJ/mol]
      Elst12,r                      1.36765171 [mEh]       0.85821440 [kcal/mol]       3.59076906 [kJ/mol]

    Exchange                        2.18284549 [mEh]       1.36975623 [kcal/mol]       5.73106005 [kJ/mol]
      Exch10                        1.53198751 [mEh]       0.96133667 [kcal/mol]       4.02223264 [kJ/mol]
      Exch10(S^2)                   1.53047052 [mEh]       0.96038475 [kcal/mol]       4.01824979 [kJ/mol]
      Exch11(S^2)                  -0.01671579 [mEh]      -0.01048932 [kcal/mol]      -0.04388730 [kJ/mol]
      Exch12(S^2)                   0.66757377 [mEh]       0.41890887 [kcal/mol]       1.75271470 [kJ/mol]

    Induction                      -1.72332646 [mEh]      -1.08140368 [kcal/mol]      -4.52459300 [kJ/mol]
      Ind20,r                      -1.58651647 [mEh]      -0.99555411 [kcal/mol]      -4.16539841 [kJ/mol]
      Ind22                        -0.22762262 [mEh]      -0.14283535 [kcal/mol]      -0.59762311 [kJ/mol]
      Exch-Ind20,r                  0.35280072 [mEh]       0.22138579 [kcal/mol]       0.92627816 [kJ/mol]
      Exch-Ind22                    0.05061745 [mEh]       0.03176293 [kcal/mol]       0.13289611 [kJ/mol]
      delta HF,r (2)               -0.31260555 [mEh]      -0.19616294 [kcal/mol]      -0.82074575 [kJ/mol]

    Dispersion                     -2.44487033 [mEh]      -1.53417929 [kcal/mol]      -6.41900616 [kJ/mol]
      Disp20                       -2.09747633 [mEh]      -1.31618627 [kcal/mol]      -5.50692335 [kJ/mol]
      Disp21                        0.13962210 [mEh]       0.08761419 [kcal/mol]       0.36657779 [kJ/mol]
      Disp22 (SDQ)                 -0.16952563 [mEh]      -0.10637894 [kcal/mol]      -0.44508947 [kJ/mol]
      Disp22 (T)                   -0.41709511 [mEh]      -0.26173113 [kcal/mol]      -1.09508305 [kJ/mol]
      Est. Disp22 (T)              -0.44891908 [mEh]      -0.28170098 [kcal/mol]      -1.17863689 [kJ/mol]
      Exch-Disp20                   0.13142860 [mEh]       0.08247269 [kcal/mol]       0.34506575 [kJ/mol]

  Total HF                        -11.44937635 [mEh]      -7.18459213 [kcal/mol]     -30.06033346 [kJ/mol]
  Total SAPT0                     -13.41542407 [mEh]      -8.41830570 [kcal/mol]     -35.22219105 [kJ/mol]
  Total SAPT2                     -11.57391955 [mEh]      -7.26274416 [kcal/mol]     -30.38732158 [kJ/mol]
  Total SAPT2+                    -12.05274215 [mEh]      -7.56320988 [kcal/mol]     -31.64447015 [kJ/mol]

  Special recipe for scaled SAPT0 (see Manual):
    Electrostatics sSAPT0         -11.43504256 [mEh]      -7.17559754 [kcal/mol]     -30.02270010 [kJ/mol]
    Exchange sSAPT0                 1.53198751 [mEh]       0.96133667 [kcal/mol]       4.02223264 [kJ/mol]
    Induction sSAPT0               -1.54527118 [mEh]      -0.96967230 [kcal/mol]      -4.05710891 [kJ/mol]
    Dispersion sSAPT0              -1.96565653 [mEh]      -1.23346809 [kcal/mol]      -5.16083050 [kJ/mol]
  Total sSAPT0                    -13.41398275 [mEh]      -8.41740126 [kcal/mol]     -35.21840687 [kJ/mol]
  --------------------------------------------------------------------------------------------------------

*** Psi4 exiting successfully. Buy a developer a beer!
