                               Psi4 1.4a2.dev224

  ==> Input File <==

--------------------------------------------------------------------------
#Generated by lconvert.py for sapt job

memory 20 GB

molecule  {
0 1
  C      -1.309750    1.180180   -0.025170
  O      -0.725300    2.155150    0.452710
  N      -0.665620    0.095060   -0.491990
  H       0.354580    0.051450   -0.459310
  H      -1.183630   -0.673600   -0.870760
  C      -2.816720    1.156000   -0.110610
  H      -3.220630    1.262540    0.893080
  H      -3.209430    0.248630   -0.561900
  H      -3.143160    2.016600   -0.688890
--
0 1
  C       3.906910    1.087390    0.204210
  O       3.322490    0.113360   -0.275520
  N       3.262830    2.172130    0.672050
  H       2.242720    2.216570    0.637750
  H       3.780850    2.940090    1.052170
  C       5.413910    1.111670    0.289430
  H       5.805780    2.011320    0.756620
  H       5.817470    1.024120   -0.716350
  H       5.741690    0.241100    0.851610
units angstrom
no_reorient
symmetry c1
}

set {
scf_type DF
basis aug-cc-pvdz
freeze_core True
guess SAD
}
energy('sapt2+')
--------------------------------------------------------------------------

  //              Dimer HF             //
    Molecular point group: c1
  Charge       = 0
  Multiplicity = 1
  Basis Set: AUG-CC-PVDZ
    Blend: AUG-CC-PVDZ
  Basis Set: (AUG-CC-PVDZ AUX)
    Blend: AUG-CC-PVDZ-JKFIT
  @DF-RHF Final Energy:  -416.03145517203995
    Total Energy =                       -416.0314551720399550
  //            Monomer A HF           //
    Molecular point group: c1
  Multiplicity = 1
  Basis Set: AUG-CC-PVDZ
    Blend: AUG-CC-PVDZ
  Basis Set: (AUG-CC-PVDZ AUX)
    Blend: AUG-CC-PVDZ-JKFIT
  @DF-RHF Final Energy:  -208.01070090687858
    Total Energy =                       -208.0107009068785828
  //            Monomer B HF           //
    Molecular point group: c1

    Geometry (in Angstrom), charge = 0, multiplicity = 1:

       Center              X                  Y                   Z               Mass
    ------------   -----------------  -----------------  -----------------  -----------------
      Gh(C)          -2.608346798282     0.046294286727    -0.114527926612    12.000000000000
      Gh(O)          -2.023896798282     1.021264286727     0.363352073388    15.994914619570
      Gh(N)          -1.964216798282    -1.038825713273    -0.581347926612    14.003074004430
      Gh(H)          -0.944016798282    -1.082435713273    -0.548667926612     1.007825032230
      Gh(H)          -2.482226798282    -1.807485713273    -0.960117926612     1.007825032230
      Gh(C)          -4.115316798282     0.022114286727    -0.199967926612    12.000000000000
      Gh(H)          -4.519226798282     0.128654286727     0.803722073388     1.007825032230
      Gh(H)          -4.508026798282    -0.885255713273    -0.651257926612     1.007825032230
      Gh(H)          -4.441756798282     0.882714286727    -0.778247926612     1.007825032230
         C            2.608313201718    -0.046495713273     0.114852073388    12.000000000000
         O            2.023893201718    -1.020525713273    -0.364877926612    15.994914619570
         N            1.964233201718     1.038244286727     0.582692073388    14.003074004430
         H            0.944123201718     1.082684286727     0.548392073388     1.007825032230
         H            2.482253201718     1.806204286727     0.962812073388     1.007825032230
         C            4.115313201718    -0.022215713273     0.200072073388    12.000000000000
         H            4.507183201718     0.877434286727     0.667262073388     1.007825032230
         H            4.518873201718    -0.109765713273    -0.805707926612     1.007825032230
         H            4.443093201718    -0.892785713273     0.762252073388     1.007825032230

  Charge       = 0
  Multiplicity = 1
  Basis Set: AUG-CC-PVDZ
    Blend: AUG-CC-PVDZ
  Basis Set: (AUG-CC-PVDZ AUX)
    Blend: AUG-CC-PVDZ-JKFIT

    Orbital Energies [Eh]
    ---------------------

    Doubly Occupied:

       1A    -20.521891     2A    -15.601145     3A    -11.361275
       4A    -11.244711     5A     -1.373848     6A     -1.221590
       7A     -1.007163     8A     -0.806588     9A     -0.731748
      10A     -0.664304    11A     -0.615275    12A     -0.580165
      13A     -0.563945    14A     -0.523735    15A     -0.420647
      16A     -0.413142

  @DF-RHF Final Energy:  -208.01070527815051

   => Energetics <=

    Nuclear Repulsion Energy =            121.8556341281213804
    One-Electron Energy =                -524.4303406900618256
    Two-Electron Energy =                 194.5640012837899349
    Total Energy =                       -208.0107052781505104

  Dipole Moment: [D]
     X:     1.4786      Y:     3.7611      Z:     1.8019     Total:     4.4248

    SAPT Results
  --------------------------------------------------------------------------------------------------------
    Electrostatics                 -8.74188667 [mEh]      -5.48561671 [kcal/mol]     -22.95182030 [kJ/mol]
      Elst10,r                     -9.78095916 [mEh]      -6.13764453 [kcal/mol]     -25.67990473 [kJ/mol]
      Elst12,r                      1.03907248 [mEh]       0.65202783 [kcal/mol]       2.72808443 [kJ/mol]

    Exchange                        1.14140427 [mEh]       0.71624199 [kcal/mol]       2.99675650 [kJ/mol]
      Exch10                        0.79395895 [mEh]       0.49821677 [kcal/mol]       2.08453895 [kJ/mol]
      Exch10(S^2)                   0.79356315 [mEh]       0.49796839 [kcal/mol]       2.08349975 [kJ/mol]
      Exch11(S^2)                  -0.01818557 [mEh]      -0.01141162 [kcal/mol]      -0.04774622 [kJ/mol]
      Exch12(S^2)                   0.36563089 [mEh]       0.22943685 [kcal/mol]       0.95996377 [kJ/mol]

    Induction                      -1.13938317 [mEh]      -0.71497374 [kcal/mol]      -2.99145011 [kJ/mol]
      Ind20,r                      -1.06080331 [mEh]      -0.66566413 [kcal/mol]      -2.78513872 [kJ/mol]
      Ind22                        -0.09096699 [mEh]      -0.05708265 [kcal/mol]      -0.23883379 [kJ/mol]
      Exch-Ind20,r                  0.15825257 [mEh]       0.09930499 [kcal/mol]       0.41549207 [kJ/mol]
      Exch-Ind22                    0.01357062 [mEh]       0.00851569 [kcal/mol]       0.03562966 [kJ/mol]
      delta HF,r (2)               -0.15943607 [mEh]      -0.10004764 [kcal/mol]      -0.41859934 [kJ/mol]

    Dispersion                     -1.85403063 [mEh]      -1.16342178 [kcal/mol]      -4.86775674 [kJ/mol]
      Disp20                       -1.61701782 [mEh]      -1.01469400 [kcal/mol]      -4.24547970 [kJ/mol]
      Disp21                        0.10072106 [mEh]       0.06320342 [kcal/mol]       0.26444309 [kJ/mol]
      Disp22 (SDQ)                 -0.08542637 [mEh]      -0.05360586 [kcal/mol]      -0.22428691 [kJ/mol]
      Disp22 (T)                   -0.30950504 [mEh]      -0.19421735 [kcal/mol]      -0.81260538 [kJ/mol]
      Est. Disp22 (T)              -0.32923670 [mEh]      -0.20659915 [kcal/mol]      -0.86441085 [kJ/mol]
      Exch-Disp20                   0.07692921 [mEh]       0.04827381 [kcal/mol]       0.20197762 [kJ/mol]

  Total HF                        -10.04898701 [mEh]      -6.30583455 [kcal/mol]     -26.38361176 [kJ/mol]
  Total SAPT0                     -11.58907561 [mEh]      -7.27225474 [kcal/mol]     -30.42711383 [kJ/mol]
  Total SAPT2                     -10.27995418 [mEh]      -6.45076864 [kcal/mol]     -26.99001598 [kJ/mol]
  Total SAPT2+                    -10.59389620 [mEh]      -6.64777023 [kcal/mol]     -27.81427065 [kJ/mol]

  Special recipe for scaled SAPT0 (see Manual):
    Electrostatics sSAPT0          -9.78095916 [mEh]      -6.13764453 [kcal/mol]     -25.67990473 [kJ/mol]
    Exchange sSAPT0                 0.79395895 [mEh]       0.49821677 [kcal/mol]       2.08453895 [kJ/mol]
    Induction sSAPT0               -1.06174989 [mEh]      -0.66625812 [kcal/mol]      -2.78762396 [kJ/mol]
    Dispersion sSAPT0              -1.53997344 [mEh]      -0.96634792 [kcal/mol]      -4.04319970 [kJ/mol]
  Total sSAPT0                    -11.58872353 [mEh]      -7.27203381 [kcal/mol]     -30.42618944 [kJ/mol]
  --------------------------------------------------------------------------------------------------------

*** Psi4 exiting successfully. Buy a developer a beer!
