                               Psi4 1.4a2.dev224

  ==> Input File <==

--------------------------------------------------------------------------
#Generated by lconvert.py for sapt job

memory 20 GB

molecule  {
0 1
  C      -1.309750    1.180180   -0.025170
  O      -0.725300    2.155150    0.452710
  N      -0.665620    0.095060   -0.491990
  H       0.354580    0.051450   -0.459310
  H      -1.183630   -0.673600   -0.870760
  C      -2.816720    1.156000   -0.110610
  H      -3.220630    1.262540    0.893080
  H      -3.209430    0.248630   -0.561900
  H      -3.143160    2.016600   -0.688890
--
0 1
  C       3.350450    1.075770    0.169760
  O       2.766030    0.101750   -0.309970
  N       2.706360    2.160520    0.637610
  H       1.686260    2.204950    0.603310
  H       3.224390    2.928480    1.017730
  C       4.857450    1.100060    0.254990
  H       5.249320    1.999710    0.722170
  H       5.261000    1.012510   -0.750790
  H       5.185230    0.229480    0.817170
units angstrom
no_reorient
symmetry c1
}

set {
scf_type DF
basis aug-cc-pvdz
freeze_core True
guess SAD
}
energy('sapt2+')
--------------------------------------------------------------------------

  //              Dimer HF             //
    Molecular point group: c1
  Charge       = 0
  Multiplicity = 1
  Basis Set: AUG-CC-PVDZ
    Blend: AUG-CC-PVDZ
  Basis Set: (AUG-CC-PVDZ AUX)
    Blend: AUG-CC-PVDZ-JKFIT
  @DF-RHF Final Energy:  -416.03782780755353
    Total Energy =                       -416.0378278075535263
  //            Monomer A HF           //
    Molecular point group: c1
  Multiplicity = 1
  Basis Set: AUG-CC-PVDZ
    Blend: AUG-CC-PVDZ
  Basis Set: (AUG-CC-PVDZ AUX)
    Blend: AUG-CC-PVDZ-JKFIT
  @DF-RHF Final Energy:  -208.01083259503912
    Total Energy =                       -208.0108325950391190
  //            Monomer B HF           //
    Molecular point group: c1

    Geometry (in Angstrom), charge = 0, multiplicity = 1:

       Center              X                  Y                   Z               Mass
    ------------   -----------------  -----------------  -----------------  -----------------
      Gh(C)          -2.330115526971     0.052100473747    -0.097305470298    12.000000000000
      Gh(O)          -1.745665526971     1.027070473747     0.380574529702    15.994914619570
      Gh(N)          -1.685985526971    -1.033019526253    -0.564125470298    14.003074004430
      Gh(H)          -0.665785526971    -1.076629526253    -0.531445470298     1.007825032230
      Gh(H)          -2.203995526971    -1.801679526253    -0.942895470298     1.007825032230
      Gh(C)          -3.837085526971     0.027920473747    -0.182745470298    12.000000000000
      Gh(H)          -4.240995526971     0.134460473747     0.820944529702     1.007825032230
      Gh(H)          -4.229795526971    -0.879449526253    -0.634035470298     1.007825032230
      Gh(H)          -4.163525526971     0.888520473747    -0.761025470298     1.007825032230
         C            2.330084473029    -0.052309526253     0.097624529702    12.000000000000
         O            1.745664473029    -1.026329526253    -0.382105470298    15.994914619570
         N            1.685994473029     1.032440473747     0.565474529702    14.003074004430
         H            0.665894473029     1.076870473747     0.531174529702     1.007825032230
         H            2.204024473029     1.800400473747     0.945594529702     1.007825032230
         C            3.837084473029    -0.028019526253     0.182854529702    12.000000000000
         H            4.228954473029     0.871630473747     0.650034529702     1.007825032230
         H            4.240634473029    -0.115569526253    -0.822925470298     1.007825032230
         H            4.164864473029    -0.898599526253     0.745034529702     1.007825032230

  Charge       = 0
  Multiplicity = 1
  Basis Set: AUG-CC-PVDZ
    Blend: AUG-CC-PVDZ
  Basis Set: (AUG-CC-PVDZ AUX)
    Blend: AUG-CC-PVDZ-JKFIT

    Orbital Energies [Eh]
    ---------------------

    Doubly Occupied:

       1A    -20.521937     2A    -15.601054     3A    -11.361215
       4A    -11.244688     5A     -1.373813     6A     -1.221556
       7A     -1.007157     8A     -0.806561     9A     -0.731747
      10A     -0.664299    11A     -0.615255    12A     -0.580146
      13A     -0.563950    14A     -0.523704    15A     -0.420648
      16A     -0.413098

  @DF-RHF Final Energy:  -208.01083823374063

   => Energetics <=

    Nuclear Repulsion Energy =            121.8554949684611870
    One-Electron Energy =                -524.4310096942118662
    Two-Electron Energy =                 194.5646764920100509
    Total Energy =                       -208.0108382337406283

  Dipole Moment: [D]
     X:     1.4745      Y:     3.7600      Z:     1.8012     Total:     4.4222

    SAPT Results
  --------------------------------------------------------------------------------------------------------
    Electrostatics                -16.67055504 [mEh]     -10.46093122 [kcal/mol]     -43.76853624 [kJ/mol]
      Elst10,r                    -17.96297093 [mEh]     -11.27193444 [kcal/mol]     -47.16177368 [kJ/mol]
      Elst12,r                      1.29241589 [mEh]       0.81100321 [kcal/mol]       3.39323744 [kJ/mol]

    Exchange                        7.03746448 [mEh]       4.41607563 [kcal/mol]      18.47686043 [kJ/mol]
      Exch10                        5.38002319 [mEh]       3.37601552 [kcal/mol]      14.12524894 [kJ/mol]
      Exch10(S^2)                   5.36693787 [mEh]       3.36780436 [kcal/mol]      14.09089343 [kJ/mol]
      Exch11(S^2)                  -0.07431644 [mEh]      -0.04663427 [kcal/mol]      -0.19511779 [kJ/mol]
      Exch12(S^2)                   1.73175773 [mEh]       1.08669438 [kcal/mol]       4.54672929 [kJ/mol]

    Induction                      -3.94883188 [mEh]      -2.47792942 [kcal/mol]     -10.36765667 [kJ/mol]
      Ind20,r                      -3.76774681 [mEh]      -2.36429682 [kcal/mol]      -9.89221789 [kJ/mol]
      Ind22                        -0.54236487 [mEh]      -0.34033909 [kcal/mol]      -1.42397877 [kJ/mol]
      Exch-Ind20,r                  1.16404815 [mEh]       0.73045124 [kcal/mol]       3.05620800 [kJ/mol]
      Exch-Ind22                    0.16756403 [mEh]       0.10514801 [kcal/mol]       0.43993929 [kJ/mol]
      delta HF,r (2)               -0.97033238 [mEh]      -0.60889276 [kcal/mol]      -2.54760731 [kJ/mol]

    Dispersion                     -4.55668996 [mEh]      -2.85936612 [kcal/mol]     -11.96358783 [kJ/mol]
      Disp20                       -4.18893507 [mEh]      -2.62859644 [kcal/mol]     -10.99804752 [kJ/mol]
      Disp21                        0.23142229 [mEh]       0.14521968 [kcal/mol]       0.60759914 [kJ/mol]
      Disp22 (SDQ)                 -0.21737288 [mEh]      -0.13640354 [kcal/mol]      -0.57071242 [kJ/mol]
      Disp22 (T)                   -0.73629331 [mEh]      -0.46203103 [kcal/mol]      -1.93313782 [kJ/mol]
      Est. Disp22 (T)              -0.81966175 [mEh]      -0.51434551 [kcal/mol]      -2.15202162 [kJ/mol]
      Exch-Disp20                   0.43785745 [mEh]       0.27475970 [kcal/mol]       1.14959458 [kJ/mol]

  Total HF                        -16.15697877 [mEh]     -10.13865725 [kcal/mol]     -42.42014193 [kJ/mol]
  Total SAPT0                     -19.90805639 [mEh]     -12.49249399 [kcal/mol]     -52.26859486 [kJ/mol]
  Total SAPT2                     -17.33300007 [mEh]     -10.87662175 [kcal/mol]     -45.50778541 [kJ/mol]
  Total SAPT2+                    -18.13861240 [mEh]     -11.38215113 [kcal/mol]     -47.62292031 [kJ/mol]

  Special recipe for scaled SAPT0 (see Manual):
    Electrostatics sSAPT0         -17.96297093 [mEh]     -11.27193444 [kcal/mol]     -47.16177368 [kJ/mol]
    Exchange sSAPT0                 5.38002319 [mEh]       3.37601552 [kcal/mol]      14.12524894 [kJ/mol]
    Induction sSAPT0               -3.56549594 [mEh]      -2.23738248 [kcal/mol]      -9.36120830 [kJ/mol]
    Dispersion sSAPT0              -3.74786714 [mEh]      -2.35182213 [kcal/mol]      -9.84002381 [kJ/mol]
  Total sSAPT0                    -19.89631081 [mEh]     -12.48512353 [kcal/mol]     -52.23775684 [kJ/mol]
  --------------------------------------------------------------------------------------------------------

*** Psi4 exiting successfully. Buy a developer a beer!
