                               Psi4 1.4a2.dev224

  ==> Input File <==

--------------------------------------------------------------------------
#Generated by lconvert.py for sapt job

memory 20 GB

molecule  {
0 1
  C      -1.309750    1.180180   -0.025170
  O      -0.725300    2.155150    0.452710
  N      -0.665620    0.095060   -0.491990
  H       0.354580    0.051450   -0.459310
  H      -1.183630   -0.673600   -0.870760
  C      -2.816720    1.156000   -0.110610
  H      -3.220630    1.262540    0.893080
  H      -3.209430    0.248630   -0.561900
  H      -3.143160    2.016600   -0.688890
--
0 1
  C       4.463380    1.099000    0.238650
  O       3.878950    0.124980   -0.241080
  N       3.819290    2.183740    0.706500
  H       2.799180    2.228180    0.672200
  H       4.337310    2.951700    1.086620
  C       5.970380    1.123280    0.323880
  H       6.362250    2.022930    0.791060
  H       6.373930    1.035740   -0.681900
  H       6.298160    0.252710    0.886060
units angstrom
no_reorient
symmetry c1
}

set {
scf_type DF
basis aug-cc-pvdz
freeze_core True
guess SAD
}
energy('sapt2+')
--------------------------------------------------------------------------

  //              Dimer HF             //
    Molecular point group: c1
  Charge       = 0
  Multiplicity = 1
  Basis Set: AUG-CC-PVDZ
    Blend: AUG-CC-PVDZ
  Basis Set: (AUG-CC-PVDZ AUX)
    Blend: AUG-CC-PVDZ-JKFIT
  @DF-RHF Final Energy:  -416.02754965364574
    Total Energy =                       -416.0275496536457354
  //            Monomer A HF           //
    Molecular point group: c1
  Multiplicity = 1
  Basis Set: AUG-CC-PVDZ
    Blend: AUG-CC-PVDZ
  Basis Set: (AUG-CC-PVDZ AUX)
    Blend: AUG-CC-PVDZ-JKFIT
  @DF-RHF Final Energy:  -208.01063407843833
    Total Energy =                       -208.0106340784383292
  //            Monomer B HF           //
    Molecular point group: c1

    Geometry (in Angstrom), charge = 0, multiplicity = 1:

       Center              X                  Y                   Z               Mass
    ------------   -----------------  -----------------  -----------------  -----------------
      Gh(C)          -2.886579001612     0.040487846723    -0.131750470298    12.000000000000
      Gh(O)          -2.302129001612     1.015457846723     0.346129529702    15.994914619570
      Gh(N)          -2.242449001612    -1.044632153277    -0.598570470298    14.003074004430
      Gh(H)          -1.222249001612    -1.088242153277    -0.565890470298     1.007825032230
      Gh(H)          -2.760459001612    -1.813292153277    -0.977340470298     1.007825032230
      Gh(C)          -4.393549001612     0.016307846723    -0.217190470298    12.000000000000
      Gh(H)          -4.797459001612     0.122847846723     0.786499529702     1.007825032230
      Gh(H)          -4.786259001612    -0.891062153277    -0.668480470298     1.007825032230
      Gh(H)          -4.719989001612     0.876907846723    -0.795470470298     1.007825032230
         C            2.886550998388    -0.040692153277     0.132069529702    12.000000000000
         O            2.302120998388    -1.014712153277    -0.347660470298    15.994914619570
         N            2.242460998388     1.044047846723     0.599919529702    14.003074004430
         H            1.222350998388     1.088487846723     0.565619529702     1.007825032230
         H            2.760480998388     1.812007846723     0.980039529702     1.007825032230
         C            4.393550998388    -0.016412153277     0.217299529702    12.000000000000
         H            4.785420998388     0.883237846723     0.684479529702     1.007825032230
         H            4.797100998388    -0.103952153277    -0.788480470298     1.007825032230
         H            4.721330998388    -0.886982153277     0.779479529702     1.007825032230

  Charge       = 0
  Multiplicity = 1
  Basis Set: AUG-CC-PVDZ
    Blend: AUG-CC-PVDZ
  Basis Set: (AUG-CC-PVDZ AUX)
    Blend: AUG-CC-PVDZ-JKFIT

    Orbital Energies [Eh]
    ---------------------

    Doubly Occupied:

       1A    -20.521869     2A    -15.601189     3A    -11.361291
       4A    -11.244717     5A     -1.373858     6A     -1.221597
       7A     -1.007167     8A     -0.806591     9A     -0.731741
      10A     -0.664308    11A     -0.615280    12A     -0.580169
      13A     -0.563945    14A     -0.523743    15A     -0.420652
      16A     -0.413152

  @DF-RHF Final Energy:  -208.01063888491581

   => Energetics <=

    Nuclear Repulsion Energy =            121.8555494175170111
    One-Electron Energy =                -524.4298395546859410
    Two-Electron Energy =                 194.5636512522531234
    Total Energy =                       -208.0106388849158066

  Dipole Moment: [D]
     X:     1.4801      Y:     3.7615      Z:     1.8022     Total:     4.4257

    SAPT Results
  --------------------------------------------------------------------------------------------------------
    Electrostatics                 -5.25832434 [mEh]      -3.29964834 [kcal/mol]     -13.80572864 [kJ/mol]
      Elst10,r                     -6.00073301 [mEh]      -3.76551682 [kcal/mol]     -15.75492236 [kJ/mol]
      Elst12,r                      0.74240868 [mEh]       0.46586848 [kcal/mol]       1.94919371 [kJ/mol]

    Exchange                        0.18576223 [mEh]       0.11656756 [kcal/mol]       0.48771866 [kJ/mol]
      Exch10                        0.11760778 [mEh]       0.07380000 [kcal/mol]       0.30877919 [kJ/mol]
      Exch10(S^2)                   0.11759584 [mEh]       0.07379250 [kcal/mol]       0.30874783 [kJ/mol]
      Exch11(S^2)                  -0.00373454 [mEh]      -0.00234346 [kcal/mol]      -0.00980503 [kJ/mol]
      Exch12(S^2)                   0.07188899 [mEh]       0.04511102 [kcal/mol]       0.18874451 [kJ/mol]

    Induction                      -0.40353250 [mEh]      -0.25322047 [kcal/mol]      -1.05947443 [kJ/mol]
      Ind20,r                      -0.38209609 [mEh]      -0.23976891 [kcal/mol]      -1.00319314 [kJ/mol]
      Ind22                        -0.01057205 [mEh]      -0.00663406 [kcal/mol]      -0.02775692 [kJ/mol]
      Exch-Ind20,r                  0.02185193 [mEh]       0.01371229 [kcal/mol]       0.05737222 [kJ/mol]
      Exch-Ind22                    0.00060461 [mEh]       0.00037940 [kcal/mol]       0.00158741 [kJ/mol]
      delta HF,r (2)               -0.03332090 [mEh]      -0.02090918 [kcal/mol]      -0.08748400 [kJ/mol]

    Dispersion                     -0.82276639 [mEh]      -0.51629370 [kcal/mol]      -2.16017285 [kJ/mol]
      Disp20                       -0.71271946 [mEh]      -0.44723822 [kcal/mol]      -1.87124469 [kJ/mol]
      Disp21                        0.05728947 [mEh]       0.03594968 [kcal/mol]       0.15041348 [kJ/mol]
      Disp22 (SDQ)                 -0.03423455 [mEh]      -0.02148250 [kcal/mol]      -0.08988279 [kJ/mol]
      Disp22 (T)                   -0.14003902 [mEh]      -0.08787581 [kcal/mol]      -0.36767240 [kJ/mol]
      Est. Disp22 (T)              -0.14675381 [mEh]      -0.09208941 [kcal/mol]      -0.38530208 [kJ/mol]
      Exch-Disp20                   0.01365196 [mEh]       0.00856674 [kcal/mol]       0.03584323 [kJ/mol]

  Total HF                         -6.27669029 [mEh]      -3.93868262 [kcal/mol]     -16.47944809 [kJ/mol]
  Total SAPT0                      -6.97575779 [mEh]      -4.37735410 [kcal/mol]     -18.31484956 [kJ/mol]
  Total SAPT2                      -6.17516211 [mEh]      -3.87497272 [kcal/mol]     -16.21288588 [kJ/mol]
  Total SAPT2+                     -6.29886100 [mEh]      -3.95259495 [kcal/mol]     -16.53765727 [kJ/mol]

  Special recipe for scaled SAPT0 (see Manual):
    Electrostatics sSAPT0          -6.00073301 [mEh]      -3.76551682 [kcal/mol]     -15.75492236 [kJ/mol]
    Exchange sSAPT0                 0.11760778 [mEh]       0.07380000 [kcal/mol]       0.30877919 [kJ/mol]
    Induction sSAPT0               -0.39355840 [mEh]      -0.24696163 [kcal/mol]      -1.03328744 [kJ/mol]
    Dispersion sSAPT0              -0.69906334 [mEh]      -0.43866887 [kcal/mol]      -1.83539054 [kJ/mol]
  Total sSAPT0                     -6.97574697 [mEh]      -4.37734731 [kcal/mol]     -18.31482116 [kJ/mol]
  --------------------------------------------------------------------------------------------------------

*** Psi4 exiting successfully. Buy a developer a beer!
