                               Psi4 1.4a2.dev224

  ==> Input File <==

--------------------------------------------------------------------------
#Generated by lconvert.py for sapt job

memory 20 GB

molecule  {
0 1
  C      -1.113630    1.327020    0.275170
  O      -0.467080    2.349390    0.461540
  O      -0.578090    0.136920    0.049620
  H       0.413320    0.203260    0.055490
  C      -2.611430    1.286190    0.277360
  H      -3.006650    2.276890    0.465790
  H      -2.964260    0.915260   -0.682000
  H      -2.953110    0.591800    1.041240
--
0 1
  N       4.708210    1.084880    0.178360
  H       5.101420    0.169490    0.006640
  C       5.629740    2.132990    0.359810
  O       6.826880    1.914700    0.306930
  C       4.990670    3.412460    0.600420
  H       5.610210    4.279380    0.751900
  C       3.643590    3.492450    0.629800
  H       3.120750    4.420890    0.805100
  N       2.839860    2.401770    0.439390
  H       1.815800    2.471710    0.463190
  C       3.339790    1.151540    0.205220
  O       2.627760    0.162040    0.031750
units angstrom
no_reorient
symmetry c1
}

set {
scf_type DF
basis aug-cc-pvdz
freeze_core True
guess SAD
}
energy('sapt2+')
--------------------------------------------------------------------------

  //              Dimer HF             //
    Molecular point group: c1
  Charge       = 0
  Multiplicity = 1
  Basis Set: AUG-CC-PVDZ
    Blend: AUG-CC-PVDZ
  Basis Set: (AUG-CC-PVDZ AUX)
    Blend: AUG-CC-PVDZ-JKFIT
  @DF-RHF Final Energy:  -640.39501757759342
    Total Energy =                       -640.3950175775934213
  //            Monomer A HF           //
    Molecular point group: c1
  Multiplicity = 1
  Basis Set: AUG-CC-PVDZ
    Blend: AUG-CC-PVDZ
  Basis Set: (AUG-CC-PVDZ AUX)
    Blend: AUG-CC-PVDZ-JKFIT
  @DF-RHF Final Energy:  -227.84658121981252
    Total Energy =                       -227.8465812198125207
  //            Monomer B HF           //
    Molecular point group: c1

    Geometry (in Angstrom), charge = 0, multiplicity = 1:

       Center              X                  Y                   Z               Mass
    ------------   -----------------  -----------------  -----------------  -----------------
      Gh(C)          -3.519598391623    -0.363724169335    -0.034899580552    12.000000000000
      Gh(O)          -2.873048391623     0.658645830665     0.151470419448    15.994914619570
      Gh(O)          -2.984058391623    -1.553824169335    -0.260449580552    15.994914619570
      Gh(H)          -1.992648391623    -1.487484169335    -0.254579580552     1.007825032230
      Gh(C)          -5.017398391623    -0.404554169335    -0.032709580552    12.000000000000
      Gh(H)          -5.412618391623     0.586145830665     0.155720419448     1.007825032230
      Gh(H)          -5.370228391623    -0.775484169335    -0.992069580552     1.007825032230
      Gh(H)          -5.359078391623    -1.098944169335     0.731170419448     1.007825032230
         N            2.302241608377    -0.605864169335    -0.131709580552    14.003074004430
         H            2.695451608377    -1.521254169335    -0.303429580552     1.007825032230
         C            3.223771608377     0.442245830665     0.049740419448    12.000000000000
         O            4.420911608377     0.223955830665    -0.003139580552    15.994914619570
         C            2.584701608377     1.721715830665     0.290350419448    12.000000000000
         H            3.204241608377     2.588635830665     0.441830419448     1.007825032230
         C            1.237621608377     1.801705830665     0.319730419448    12.000000000000
         H            0.714781608377     2.730145830665     0.495030419448     1.007825032230
         N            0.433891608377     0.711025830665     0.129320419448    14.003074004430
         H           -0.590168391623     0.780965830665     0.153120419448     1.007825032230
         C            0.933821608377    -0.539204169335    -0.104849580552    12.000000000000
         O            0.221791608377    -1.528704169335    -0.278319580552    15.994914619570

  Charge       = 0
  Multiplicity = 1
  Basis Set: AUG-CC-PVDZ
    Blend: AUG-CC-PVDZ
  Basis Set: (AUG-CC-PVDZ AUX)
    Blend: AUG-CC-PVDZ-JKFIT

    Orbital Energies [Eh]
    ---------------------

    Doubly Occupied:

       1A    -20.554737     2A    -20.552245     3A    -15.656788
       4A    -15.635008     5A    -11.425986     6A    -11.390837
       7A    -11.350206     8A    -11.264962     9A     -1.436577
      10A     -1.402993    11A     -1.316964    12A     -1.250494
      13A     -1.093897    14A     -0.940483    15A     -0.904177
      16A     -0.809952    17A     -0.769842    18A     -0.717038
      19A     -0.679452    20A     -0.670586    21A     -0.650172
      22A     -0.617269    23A     -0.603151    24A     -0.571836
      25A     -0.523377    26A     -0.480617    27A     -0.448772
      28A     -0.434526    29A     -0.370503

  @DF-RHF Final Energy:  -412.52830161813358

   => Energetics <=

    Nuclear Repulsion Energy =            357.3026617034680044
    One-Electron Energy =               -1270.6150349686531627
    Two-Electron Energy =                 500.7840716470516327
    Total Energy =                       -412.5283016181335825

  Dipole Moment: [D]
     X:    -3.0783      Y:     4.1326      Z:     0.7889     Total:     5.2131

    SAPT Results
  --------------------------------------------------------------------------------------------------------
    Electrostatics                -20.46156700 [mEh]     -12.83982714 [kcal/mol]     -53.72183676 [kJ/mol]
      Elst10,r                    -22.70368814 [mEh]     -14.24677940 [kcal/mol]     -59.60852500 [kJ/mol]
      Elst12,r                      2.24212114 [mEh]       1.40695225 [kcal/mol]       5.88668823 [kJ/mol]

    Exchange                       10.16936372 [mEh]       6.38137208 [kcal/mol]      26.69966078 [kJ/mol]
      Exch10                        7.90779744 [mEh]       4.96221781 [kcal/mol]      20.76191931 [kJ/mol]
      Exch10(S^2)                   7.88112419 [mEh]       4.94548010 [kcal/mol]      20.69188872 [kJ/mol]
      Exch11(S^2)                  -0.08852206 [mEh]      -0.05554843 [kcal/mol]      -0.23241464 [kJ/mol]
      Exch12(S^2)                   2.35008835 [mEh]       1.47470270 [kcal/mol]       6.17015611 [kJ/mol]

    Induction                      -5.88743781 [mEh]      -3.69442300 [kcal/mol]     -15.45746583 [kJ/mol]
      Ind20,r                      -5.61692838 [mEh]      -3.52467577 [kcal/mol]     -14.74724344 [kJ/mol]
      Ind22                        -0.82185810 [mEh]      -0.51572374 [kcal/mol]      -2.15778813 [kJ/mol]
      Exch-Ind20,r                  1.86763836 [mEh]       1.17196077 [kcal/mol]       4.90348384 [kJ/mol]
      Exch-Ind22                    0.27326923 [mEh]       0.17147903 [kcal/mol]       0.71746827 [kJ/mol]
      delta HF,r (2)               -1.58955892 [mEh]      -0.99746328 [kcal/mol]      -4.17338638 [kJ/mol]

    Dispersion                     -5.80330413 [mEh]      -3.64162832 [kcal/mol]     -15.23657288 [kJ/mol]
      Disp20                       -5.34764622 [mEh]      -3.35569867 [kcal/mol]     -14.04024322 [kJ/mol]
      Disp21                        0.41252062 [mEh]       0.25886060 [kcal/mol]       1.08307274 [kJ/mol]
      Disp22 (SDQ)                 -0.33717882 [mEh]      -0.21158290 [kcal/mol]      -0.88526287 [kJ/mol]
      Disp22 (T)                   -1.01314237 [mEh]      -0.63575644 [kcal/mol]      -2.66000493 [kJ/mol]
      Est. Disp22 (T)              -1.11564506 [mEh]      -0.70007785 [kcal/mol]      -2.92912571 [kJ/mol]
      Exch-Disp20                   0.58464536 [mEh]       0.36687050 [kcal/mol]       1.53498618 [kJ/mol]

  Total HF                        -20.13473965 [mEh]     -12.63473988 [kcal/mol]     -52.86375166 [kJ/mol]
  Total SAPT0                     -24.89774051 [mEh]     -15.62356805 [kcal/mol]     -65.36900871 [kJ/mol]
  Total SAPT2                     -20.94264195 [mEh]     -13.14170623 [kcal/mol]     -54.98489887 [kJ/mol]
  Total SAPT2+                    -21.98294521 [mEh]     -13.79450638 [kcal/mol]     -57.71621470 [kJ/mol]

  Special recipe for scaled SAPT0 (see Manual):
    Electrostatics sSAPT0         -22.70368814 [mEh]     -14.24677940 [kcal/mol]     -59.60852500 [kJ/mol]
    Exchange sSAPT0                 7.90779744 [mEh]       4.96221781 [kcal/mol]      20.76191931 [kJ/mol]
    Induction sSAPT0               -5.31982193 [mEh]      -3.33823866 [kcal/mol]     -13.96719055 [kJ/mol]
    Dispersion sSAPT0              -4.75704465 [mEh]      -2.98509058 [kcal/mol]     -12.48961901 [kJ/mol]
  Total sSAPT0                    -24.87275728 [mEh]     -15.60789083 [kcal/mol]     -65.30341524 [kJ/mol]
  --------------------------------------------------------------------------------------------------------

*** Psi4 exiting successfully. Buy a developer a beer!
