                               Psi4 1.4a2.dev224

  ==> Input File <==

--------------------------------------------------------------------------
#Generated by lconvert.py for sapt job

memory 20 GB

molecule  {
0 1
  C      -1.113630    1.327020    0.275170
  O      -0.467080    2.349390    0.461540
  O      -0.578090    0.136920    0.049620
  H       0.413320    0.203260    0.055490
  C      -2.611430    1.286190    0.277360
  H      -3.006650    2.276890    0.465790
  H      -2.964260    0.915260   -0.682000
  H      -2.953110    0.591800    1.041240
--
0 1
  N       5.730130    1.062110    0.166810
  H       6.123330    0.146720   -0.004900
  C       6.651660    2.110230    0.348270
  O       7.848800    1.891930    0.295390
  C       6.012590    3.389690    0.588880
  H       6.632130    4.256620    0.740350
  C       4.665510    3.469680    0.618260
  H       4.142670    4.398130    0.793560
  N       3.861780    2.379000    0.427850
  H       2.837720    2.448950    0.451640
  C       4.361710    1.128780    0.193680
  O       3.649680    0.139270    0.020210
units angstrom
no_reorient
symmetry c1
}

set {
scf_type DF
basis aug-cc-pvdz
freeze_core True
guess SAD
}
energy('sapt2+')
--------------------------------------------------------------------------

  //              Dimer HF             //
    Molecular point group: c1
  Charge       = 0
  Multiplicity = 1
  Basis Set: AUG-CC-PVDZ
    Blend: AUG-CC-PVDZ
  Basis Set: (AUG-CC-PVDZ AUX)
    Blend: AUG-CC-PVDZ-JKFIT
  @DF-RHF Final Energy:  -640.38216662103571
    Total Energy =                       -640.3821666210357080
  //            Monomer A HF           //
    Molecular point group: c1
  Multiplicity = 1
  Basis Set: AUG-CC-PVDZ
    Blend: AUG-CC-PVDZ
  Basis Set: (AUG-CC-PVDZ AUX)
    Blend: AUG-CC-PVDZ-JKFIT
  @DF-RHF Final Energy:  -227.84634388789485
    Total Energy =                       -227.8463438878948466
  //            Monomer B HF           //
    Molecular point group: c1

    Geometry (in Angstrom), charge = 0, multiplicity = 1:

       Center              X                  Y                   Z               Mass
    ------------   -----------------  -----------------  -----------------  -----------------
      Gh(C)          -4.185009408119    -0.348899324866    -0.027384515503    12.000000000000
      Gh(O)          -3.538459408119     0.673470675134     0.158985484497    15.994914619570
      Gh(O)          -3.649469408119    -1.538999324866    -0.252934515503    15.994914619570
      Gh(H)          -2.658059408119    -1.472659324866    -0.247064515503     1.007825032230
      Gh(C)          -5.682809408119    -0.389729324866    -0.025194515503    12.000000000000
      Gh(H)          -6.078029408119     0.600970675134     0.163235484497     1.007825032230
      Gh(H)          -6.035639408119    -0.760659324866    -0.984554515503     1.007825032230
      Gh(H)          -6.024489408119    -1.084119324866     0.738685484497     1.007825032230
         N            2.658750591881    -0.613809324866    -0.135744515503    14.003074004430
         H            3.051950591881    -1.529199324866    -0.307454515503     1.007825032230
         C            3.580280591881     0.434310675134     0.045715484497    12.000000000000
         O            4.777420591881     0.216010675134    -0.007164515503    15.994914619570
         C            2.941210591881     1.713770675134     0.286325484497    12.000000000000
         H            3.560750591881     2.580700675134     0.437795484497     1.007825032230
         C            1.594130591881     1.793760675134     0.315705484497    12.000000000000
         H            1.071290591881     2.722210675134     0.491005484497     1.007825032230
         N            0.790400591881     0.703080675134     0.125295484497    14.003074004430
         H           -0.233659408119     0.773030675134     0.149085484497     1.007825032230
         C            1.290330591881    -0.547139324866    -0.108874515503    12.000000000000
         O            0.578300591881    -1.536649324866    -0.282344515503    15.994914619570

  Charge       = 0
  Multiplicity = 1
  Basis Set: AUG-CC-PVDZ
    Blend: AUG-CC-PVDZ
  Basis Set: (AUG-CC-PVDZ AUX)
    Blend: AUG-CC-PVDZ-JKFIT

    Orbital Energies [Eh]
    ---------------------

    Doubly Occupied:

       1A    -20.554743     2A    -20.552152     3A    -15.656972
       4A    -15.635011     5A    -11.426049     6A    -11.390866
       7A    -11.350312     8A    -11.265020     9A     -1.436612
      10A     -1.403019    11A     -1.317004    12A     -1.250514
      13A     -1.093922    14A     -0.940505    15A     -0.904193
      16A     -0.809954    17A     -0.769865    18A     -0.717053
      19A     -0.679466    20A     -0.670621    21A     -0.650190
      22A     -0.617283    23A     -0.603168    24A     -0.571866
      25A     -0.523415    26A     -0.480624    27A     -0.448786
      28A     -0.434560    29A     -0.370533

  @DF-RHF Final Energy:  -412.52805200683554

   => Energetics <=

    Nuclear Repulsion Energy =            357.3025732799810612
    One-Electron Energy =               -1270.6126901295774587
    Two-Electron Energy =                 500.7820648427608603
    Total Energy =                       -412.5280520068355372

  Dipole Moment: [D]
     X:    -3.0727      Y:     4.1336      Z:     0.7891     Total:     5.2107

    SAPT Results
  --------------------------------------------------------------------------------------------------------
    Electrostatics                 -6.19175805 [mEh]      -3.88538684 [kcal/mol]     -16.25645852 [kJ/mol]
      Elst10,r                     -7.41851798 [mEh]      -4.65519032 [kcal/mol]     -19.47731629 [kJ/mol]
      Elst12,r                      1.22675994 [mEh]       0.76980348 [kcal/mol]       3.22085777 [kJ/mol]

    Exchange                        0.32982988 [mEh]       0.20697138 [kcal/mol]       0.86596824 [kJ/mol]
      Exch10                        0.21587199 [mEh]       0.13546172 [kcal/mol]       0.56677183 [kJ/mol]
      Exch10(S^2)                   0.21583455 [mEh]       0.13543823 [kcal/mol]       0.56667355 [kJ/mol]
      Exch11(S^2)                  -0.00601329 [mEh]      -0.00377340 [kcal/mol]      -0.01578790 [kJ/mol]
      Exch12(S^2)                   0.11997119 [mEh]       0.07528306 [kcal/mol]       0.31498430 [kJ/mol]

    Induction                      -0.59268130 [mEh]      -0.37191313 [kcal/mol]      -1.55608454 [kJ/mol]
      Ind20,r                      -0.55381991 [mEh]      -0.34752724 [kcal/mol]      -1.45405398 [kJ/mol]
      Ind22                        -0.02672929 [mEh]      -0.01677288 [kcal/mol]      -0.07017773 [kJ/mol]
      Exch-Ind20,r                  0.04409740 [mEh]       0.02767154 [kcal/mol]       0.11577772 [kJ/mol]
      Exch-Ind22                    0.00212829 [mEh]       0.00133553 [kcal/mol]       0.00558784 [kJ/mol]
      delta HF,r (2)               -0.05835780 [mEh]      -0.03662007 [kcal/mol]      -0.15321839 [kJ/mol]

    Dispersion                     -1.17698267 [mEh]      -0.73856778 [kcal/mol]      -3.09016758 [kJ/mol]
      Disp20                       -1.01372086 [mEh]      -0.63611945 [kcal/mol]      -2.66152376 [kJ/mol]
      Disp21                        0.10546546 [mEh]       0.06618058 [kcal/mol]       0.27689953 [kJ/mol]
      Disp22 (SDQ)                 -0.06326294 [mEh]      -0.03969809 [kcal/mol]      -0.16609681 [kJ/mol]
      Disp22 (T)                   -0.21769408 [mEh]      -0.13660510 [kcal/mol]      -0.57155574 [kJ/mol]
      Est. Disp22 (T)              -0.22760160 [mEh]      -0.14282216 [kcal/mol]      -0.59756792 [kJ/mol]
      Exch-Disp20                   0.02213727 [mEh]       0.01389134 [kcal/mol]       0.05812138 [kJ/mol]

  Total HF                         -7.77072631 [mEh]      -4.87620437 [kcal/mol]     -20.40203910 [kJ/mol]
  Total SAPT0                      -8.76230990 [mEh]      -5.49843248 [kcal/mol]     -23.00544148 [kJ/mol]
  Total SAPT2                      -7.44619307 [mEh]      -4.67255669 [kcal/mol]     -19.54997720 [kJ/mol]
  Total SAPT2+                     -7.63159214 [mEh]      -4.78889637 [kcal/mol]     -20.03674241 [kJ/mol]

  Special recipe for scaled SAPT0 (see Manual):
    Electrostatics sSAPT0          -7.41851798 [mEh]      -4.65519032 [kcal/mol]     -19.47731629 [kJ/mol]
    Exchange sSAPT0                 0.21587199 [mEh]       0.13546172 [kcal/mol]       0.56677183 [kJ/mol]
    Induction sSAPT0               -0.56805736 [mEh]      -0.35646138 [kcal/mol]      -1.49143440 [kJ/mol]
    Dispersion sSAPT0              -0.99157208 [mEh]      -0.62222087 [kcal/mol]      -2.60337213 [kJ/mol]
  Total sSAPT0                     -8.76227543 [mEh]      -5.49841085 [kcal/mol]     -23.00535098 [kJ/mol]
  --------------------------------------------------------------------------------------------------------

*** Psi4 exiting successfully. Buy a developer a beer!
