                               Psi4 1.4a2.dev224

  ==> Input File <==

--------------------------------------------------------------------------
#Generated by lconvert.py for sapt job

memory 20 GB

molecule  {
0 1
  C      -1.113630    1.327020    0.275170
  O      -0.467080    2.349390    0.461540
  O      -0.578090    0.136920    0.049620
  H       0.413320    0.203260    0.055490
  C      -2.611430    1.286190    0.277360
  H      -3.006650    2.276890    0.465790
  H      -2.964260    0.915260   -0.682000
  H      -2.953110    0.591800    1.041240
--
0 1
  N       5.219170    1.073500    0.172590
  H       5.612380    0.158110    0.000870
  C       6.140700    2.121610    0.354040
  O       7.337840    1.903320    0.301160
  C       5.501630    3.401070    0.594650
  H       6.121170    4.268000    0.746130
  C       4.154550    3.481070    0.624030
  H       3.631710    4.409510    0.799330
  N       3.350820    2.390380    0.433620
  H       2.326760    2.460330    0.457410
  C       3.850750    1.140160    0.199450
  O       3.138720    0.150660    0.025980
units angstrom
no_reorient
symmetry c1
}

set {
scf_type DF
basis aug-cc-pvdz
freeze_core True
guess SAD
}
energy('sapt2+')
--------------------------------------------------------------------------

  //              Dimer HF             //
    Molecular point group: c1
  Charge       = 0
  Multiplicity = 1
  Basis Set: AUG-CC-PVDZ
    Blend: AUG-CC-PVDZ
  Basis Set: (AUG-CC-PVDZ AUX)
    Blend: AUG-CC-PVDZ-JKFIT
  @DF-RHF Final Energy:  -640.38712097345024
    Total Energy =                       -640.3871209734502372
  //            Monomer A HF           //
    Molecular point group: c1
  Multiplicity = 1
  Basis Set: AUG-CC-PVDZ
    Blend: AUG-CC-PVDZ
  Basis Set: (AUG-CC-PVDZ AUX)
    Blend: AUG-CC-PVDZ-JKFIT
  @DF-RHF Final Energy:  -227.84641460915617
    Total Energy =                       -227.8464146091561702
  //            Monomer B HF           //
    Molecular point group: c1

    Geometry (in Angstrom), charge = 0, multiplicity = 1:

       Center              X                  Y                   Z               Mass
    ------------   -----------------  -----------------  -----------------  -----------------
      Gh(C)          -3.852303929160    -0.356312706065    -0.031142454979    12.000000000000
      Gh(O)          -3.205753929160     0.666057293935     0.155227545021    15.994914619570
      Gh(O)          -3.316763929160    -1.546412706065    -0.256692454979    15.994914619570
      Gh(H)          -2.325353929160    -1.480072706065    -0.250822454979     1.007825032230
      Gh(C)          -5.350103929160    -0.397142706065    -0.028952454979    12.000000000000
      Gh(H)          -5.745323929160     0.593557293935     0.159477545021     1.007825032230
      Gh(H)          -5.702933929160    -0.768072706065    -0.988312454979     1.007825032230
      Gh(H)          -5.691783929160    -1.091532706065     0.734927545021     1.007825032230
         N            2.480496070840    -0.609832706065    -0.133722454979    14.003074004430
         H            2.873706070840    -1.525222706065    -0.305442454979     1.007825032230
         C            3.402026070840     0.438277293935     0.047727545021    12.000000000000
         O            4.599166070840     0.219987293935    -0.005152454979    15.994914619570
         C            2.762956070840     1.717737293935     0.288337545021    12.000000000000
         H            3.382496070840     2.584667293935     0.439817545021     1.007825032230
         C            1.415876070840     1.797737293935     0.317717545021    12.000000000000
         H            0.893036070840     2.726177293935     0.493017545021     1.007825032230
         N            0.612146070840     0.707047293935     0.127307545021    14.003074004430
         H           -0.411913929160     0.776997293935     0.151097545021     1.007825032230
         C            1.112076070840    -0.543172706065    -0.106862454979    12.000000000000
         O            0.400046070840    -1.532672706065    -0.280332454979    15.994914619570

  Charge       = 0
  Multiplicity = 1
  Basis Set: AUG-CC-PVDZ
    Blend: AUG-CC-PVDZ
  Basis Set: (AUG-CC-PVDZ AUX)
    Blend: AUG-CC-PVDZ-JKFIT

    Orbital Energies [Eh]
    ---------------------

    Doubly Occupied:

       1A    -20.554741     2A    -20.552182     3A    -15.656893
       4A    -15.635011     5A    -11.426030     6A    -11.390856
       7A    -11.350268     8A    -11.264997     9A     -1.436606
      10A     -1.403013    11A     -1.316991    12A     -1.250507
      13A     -1.093913    14A     -0.940498    15A     -0.904190
      16A     -0.809952    17A     -0.769859    18A     -0.717047
      19A     -0.679463    20A     -0.670612    21A     -0.650186
      22A     -0.617280    23A     -0.603161    24A     -0.571857
      25A     -0.523403    26A     -0.480624    27A     -0.448782
      28A     -0.434552    29A     -0.370523

  @DF-RHF Final Energy:  -412.52814160590174

   => Energetics <=

    Nuclear Repulsion Energy =            357.3029065010414342
    One-Electron Energy =               -1270.6141045182912421
    Two-Electron Energy =                 500.7830564113480705
    Total Energy =                       -412.5281416059017374

  Dipole Moment: [D]
     X:    -3.0747      Y:     4.1334      Z:     0.7890     Total:     5.2117

    SAPT Results
  --------------------------------------------------------------------------------------------------------
    Electrostatics                -10.57900114 [mEh]      -6.63842344 [kcal/mol]     -27.77516368 [kJ/mol]
      Elst10,r                    -12.28751228 [mEh]      -7.71053036 [kcal/mol]     -32.26085904 [kJ/mol]
      Elst12,r                      1.70851113 [mEh]       1.07210692 [kcal/mol]       4.48569536 [kJ/mol]

    Exchange                        1.82943268 [mEh]       1.14798634 [kcal/mol]       4.80317485 [kJ/mol]
      Exch10                        1.30311260 [mEh]       0.81771550 [kcal/mol]       3.42132165 [kJ/mol]
      Exch10(S^2)                   1.30211032 [mEh]       0.81708656 [kcal/mol]       3.41869019 [kJ/mol]
      Exch11(S^2)                  -0.02446810 [mEh]      -0.01535397 [kcal/mol]      -0.06424100 [kJ/mol]
      Exch12(S^2)                   0.55078819 [mEh]       0.34562481 [kcal/mol]       1.44609419 [kJ/mol]

    Induction                      -1.71156139 [mEh]      -1.07402099 [kcal/mol]      -4.49370382 [kJ/mol]
      Ind20,r                      -1.58244535 [mEh]      -0.99299945 [kcal/mol]      -4.15470971 [kJ/mol]
      Ind22                        -0.16012768 [mEh]      -0.10048164 [kcal/mol]      -0.42041516 [kJ/mol]
      Exch-Ind20,r                  0.28584831 [mEh]       0.17937252 [kcal/mol]       0.75049464 [kJ/mol]
      Exch-Ind22                    0.02892500 [mEh]       0.01815071 [kcal/mol]       0.07594257 [kJ/mol]
      delta HF,r (2)               -0.28376167 [mEh]      -0.17806314 [kcal/mol]      -0.74501616 [kJ/mol]

    Dispersion                     -2.51302437 [mEh]      -1.57694660 [kcal/mol]      -6.59794458 [kJ/mol]
      Disp20                       -2.18913841 [mEh]      -1.37370509 [kcal/mol]      -5.74758211 [kJ/mol]
      Disp21                        0.18484163 [mEh]       0.11598987 [kcal/mol]       0.48530163 [kJ/mol]
      Disp22 (SDQ)                 -0.14253563 [mEh]      -0.08944246 [kcal/mol]      -0.37422725 [kJ/mol]
      Disp22 (T)                   -0.45080212 [mEh]      -0.28288260 [kcal/mol]      -1.18358080 [kJ/mol]
      Est. Disp22 (T)              -0.48011904 [mEh]      -0.30127925 [kcal/mol]      -1.26055236 [kJ/mol]
      Exch-Disp20                   0.11392708 [mEh]       0.07149032 [kcal/mol]       0.29911552 [kJ/mol]

  Total HF                        -12.56475839 [mEh]      -7.88450493 [kcal/mol]     -32.98876861 [kJ/mol]
  Total SAPT0                     -14.63996972 [mEh]      -9.18671970 [kcal/mol]     -38.43723521 [kJ/mol]
  Total SAPT2                     -12.53634119 [mEh]      -7.86667286 [kcal/mol]     -32.91415925 [kJ/mol]
  Total SAPT2+                    -12.97415423 [mEh]      -8.14140469 [kcal/mol]     -34.06363723 [kJ/mol]

  Special recipe for scaled SAPT0 (see Manual):
    Electrostatics sSAPT0         -12.28751228 [mEh]      -7.71053036 [kcal/mol]     -32.26085904 [kJ/mol]
    Exchange sSAPT0                 1.30311260 [mEh]       0.81771550 [kcal/mol]       3.42132165 [kJ/mol]
    Induction sSAPT0               -1.57969813 [mEh]      -0.99127554 [kcal/mol]      -4.14749686 [kJ/mol]
    Dispersion sSAPT0              -2.07494805 [mEh]      -1.30204956 [kcal/mol]      -5.44777535 [kJ/mol]
  Total sSAPT0                    -14.63904586 [mEh]      -9.18613996 [kcal/mol]     -38.43480960 [kJ/mol]
  --------------------------------------------------------------------------------------------------------

*** Psi4 exiting successfully. Buy a developer a beer!
