                               Psi4 1.4a2.dev224

  ==> Input File <==

--------------------------------------------------------------------------
#Generated by lconvert.py for sapt job

memory 20 GB

molecule  {
0 1
  C      -1.232730    1.211640   -0.141620
  O      -0.571280    2.242020    0.025620
  N      -0.670580    0.003890   -0.314280
  H       0.343850   -0.090560   -0.308330
  H      -1.244210   -0.806320   -0.446680
  C      -2.738250    1.266760   -0.155890
  H      -3.077970    1.646610    0.804500
  H      -3.202120    0.302860   -0.346210
  H      -3.049990    1.975490   -0.918600
--
0 1
  N       5.242320    1.115450   -0.113560
  H       5.732350    0.239490   -0.231500
  C       6.045950    2.258290    0.036920
  O       7.261510    2.162670    0.021740
  C       5.273350    3.473610    0.200060
  H       5.795120    4.406800    0.323100
  C       3.924190    3.411930    0.194390
  H       3.303790    4.288290    0.312060
  N       3.239110    2.239650    0.039820
  H       2.206320    2.230590    0.038980
  C       3.870000    1.035180   -0.122440
  O       3.272810   -0.028740   -0.264250
units angstrom
no_reorient
symmetry c1
}

set {
scf_type DF
basis aug-cc-pvdz
freeze_core True
guess SAD
}
energy('sapt2+')
--------------------------------------------------------------------------

  //              Dimer HF             //
    Molecular point group: c1
  Charge       = 0
  Multiplicity = 1
  Basis Set: AUG-CC-PVDZ
    Blend: AUG-CC-PVDZ
  Basis Set: (AUG-CC-PVDZ AUX)
    Blend: AUG-CC-PVDZ-JKFIT
  @DF-RHF Final Energy:  -620.55189033755812
    Total Energy =                       -620.5518903375581203
  //            Monomer A HF           //
    Molecular point group: c1
  Multiplicity = 1
  Basis Set: AUG-CC-PVDZ
    Blend: AUG-CC-PVDZ
  Basis Set: (AUG-CC-PVDZ AUX)
    Blend: AUG-CC-PVDZ-JKFIT
  @DF-RHF Final Energy:  -208.01063441418219
    Total Energy =                       -208.0106344141821921
  //            Monomer B HF           //
    Molecular point group: c1

    Geometry (in Angstrom), charge = 0, multiplicity = 1:

       Center              X                  Y                   Z               Mass
    ------------   -----------------  -----------------  -----------------  -----------------
      Gh(C)          -3.906018156128    -0.444007694382    -0.085826412637    12.000000000000
      Gh(O)          -3.244568156128     0.586372305618     0.081413587363    15.994914619570
      Gh(N)          -3.343868156128    -1.651757694382    -0.258486412637    14.003074004430
      Gh(H)          -2.329438156128    -1.746207694382    -0.252536412637     1.007825032230
      Gh(H)          -3.917498156128    -2.461967694382    -0.390886412637     1.007825032230
      Gh(C)          -5.411538156128    -0.388887694382    -0.100096412637    12.000000000000
      Gh(H)          -5.751258156128    -0.009037694382     0.860293587363     1.007825032230
      Gh(H)          -5.875408156128    -1.352787694382    -0.290416412637     1.007825032230
      Gh(H)          -5.723278156128     0.319842305618    -0.862806412637     1.007825032230
         N            2.569031843872    -0.540197694382    -0.057766412637    14.003074004430
         H            3.059061843872    -1.416157694382    -0.175706412637     1.007825032230
         C            3.372661843872     0.602642305618     0.092713587363    12.000000000000
         O            4.588221843872     0.507022305618     0.077533587363    15.994914619570
         C            2.600061843872     1.817962305618     0.255853587363    12.000000000000
         H            3.121831843872     2.751152305618     0.378893587363     1.007825032230
         C            1.250901843872     1.756282305618     0.250183587363    12.000000000000
         H            0.630501843872     2.632642305618     0.367853587363     1.007825032230
         N            0.565821843872     0.584002305618     0.095613587363    14.003074004430
         H           -0.466968156128     0.574942305618     0.094773587363     1.007825032230
         C            1.196711843872    -0.620467694382    -0.066646412637    12.000000000000
         O            0.599521843872    -1.684387694382    -0.208456412637    15.994914619570

  Charge       = 0
  Multiplicity = 1
  Basis Set: AUG-CC-PVDZ
    Blend: AUG-CC-PVDZ
  Basis Set: (AUG-CC-PVDZ AUX)
    Blend: AUG-CC-PVDZ-JKFIT

    Orbital Energies [Eh]
    ---------------------

    Doubly Occupied:

       1A    -20.553770     2A    -20.553738     3A    -15.657773
       4A    -15.634840     5A    -11.427376     6A    -11.390130
       7A    -11.349676     8A    -11.264297     9A     -1.437163
      10A     -1.402216    11A     -1.317868    12A     -1.249732
      13A     -1.092985    14A     -0.940397    15A     -0.903832
      16A     -0.808361    17A     -0.769785    18A     -0.716223
      19A     -0.678915    20A     -0.670427    21A     -0.651272
      22A     -0.616369    23A     -0.602954    24A     -0.571511
      25A     -0.524035    26A     -0.481391    27A     -0.448514
      28A     -0.434564    29A     -0.370012

  @DF-RHF Final Energy:  -412.52779974730834

   => Energetics <=

    Nuclear Repulsion Energy =            357.1696335589452360
    One-Electron Energy =               -1270.3546130991687733
    Two-Electron Energy =                 500.6571797929152581
    Total Energy =                       -412.5277997473083360

  Dipole Moment: [D]
     X:    -3.5872      Y:     3.7965      Z:     0.5123     Total:     5.2482

    SAPT Results
  --------------------------------------------------------------------------------------------------------
    Electrostatics                -11.18667110 [mEh]      -7.01974209 [kcal/mol]     -29.37060092 [kJ/mol]
      Elst10,r                    -13.01520867 [mEh]      -8.16716675 [kcal/mol]     -34.17142567 [kJ/mol]
      Elst12,r                      1.82853758 [mEh]       1.14742465 [kcal/mol]       4.80082475 [kJ/mol]

    Exchange                        1.58348853 [mEh]       0.99365405 [kcal/mol]       4.15744856 [kJ/mol]
      Exch10                        1.13298149 [mEh]       0.71095662 [kcal/mol]       2.97464250 [kJ/mol]
      Exch10(S^2)                   1.13222356 [mEh]       0.71048101 [kcal/mol]       2.97265254 [kJ/mol]
      Exch11(S^2)                  -0.02721350 [mEh]      -0.01707673 [kcal/mol]      -0.07144904 [kJ/mol]
      Exch12(S^2)                   0.47772054 [mEh]       0.29977416 [kcal/mol]       1.25425510 [kJ/mol]

    Induction                      -1.66602408 [mEh]      -1.04544589 [kcal/mol]      -4.37414562 [kJ/mol]
      Ind20,r                      -1.55406259 [mEh]      -0.97518900 [kcal/mol]      -4.08019077 [kJ/mol]
      Ind22                        -0.10944573 [mEh]      -0.06867823 [kcal/mol]      -0.28734972 [kJ/mol]
      Exch-Ind20,r                  0.24665103 [mEh]       0.15477586 [kcal/mol]       0.64758219 [kJ/mol]
      Exch-Ind22                    0.01737054 [mEh]       0.01090018 [kcal/mol]       0.04560634 [kJ/mol]
      delta HF,r (2)               -0.26653733 [mEh]      -0.16725470 [kcal/mol]      -0.69979366 [kJ/mol]

    Dispersion                     -2.39898963 [mEh]      -1.50538872 [kcal/mol]      -6.29854642 [kJ/mol]
      Disp20                       -2.12094596 [mEh]      -1.33091368 [kcal/mol]      -5.56854286 [kJ/mol]
      Disp21                        0.18117030 [mEh]       0.11368608 [kcal/mol]       0.47566256 [kJ/mol]
      Disp22 (SDQ)                 -0.10852919 [mEh]      -0.06810309 [kcal/mol]      -0.28494334 [kJ/mol]
      Disp22 (T)                   -0.42754032 [mEh]      -0.26828560 [kcal/mol]      -1.12250695 [kJ/mol]
      Est. Disp22 (T)              -0.45413092 [mEh]      -0.28497146 [kcal/mol]      -1.19232057 [kJ/mol]
      Exch-Disp20                   0.10344613 [mEh]       0.06491343 [kcal/mol]       0.27159778 [kJ/mol]

  Total HF                        -13.45617607 [mEh]      -8.44387796 [kcal/mol]     -35.32918540 [kJ/mol]
  Total SAPT0                     -15.47367590 [mEh]      -9.70987822 [kcal/mol]     -40.62613047 [kJ/mol]
  Total SAPT2                     -13.28670648 [mEh]      -8.33753419 [kcal/mol]     -34.88424305 [kJ/mol]
  Total SAPT2+                    -13.66819628 [mEh]      -8.57692266 [kcal/mol]     -35.88584439 [kJ/mol]

  Special recipe for scaled SAPT0 (see Manual):
    Electrostatics sSAPT0         -13.01520867 [mEh]      -8.16716675 [kcal/mol]     -34.17142567 [kJ/mol]
    Exchange sSAPT0                 1.13298149 [mEh]       0.71095662 [kcal/mol]       2.97464250 [kJ/mol]
    Induction sSAPT0               -1.57345321 [mEh]      -0.98735680 [kcal/mol]      -4.13110084 [kJ/mol]
    Dispersion sSAPT0              -2.01729194 [mEh]      -1.26586981 [kcal/mol]      -5.29639927 [kJ/mol]
  Total sSAPT0                    -15.47297234 [mEh]      -9.70943673 [kcal/mol]     -40.62428327 [kJ/mol]
  --------------------------------------------------------------------------------------------------------

*** Psi4 exiting successfully. Buy a developer a beer!
