                               Psi4 1.4a2.dev224

  ==> Input File <==

--------------------------------------------------------------------------
#Generated by lconvert.py for sapt job

memory 20 GB

molecule  {
0 1
  C      -1.232730    1.211640   -0.141620
  O      -0.571280    2.242020    0.025620
  N      -0.670580    0.003890   -0.314280
  H       0.343850   -0.090560   -0.308330
  H      -1.244210   -0.806320   -0.446680
  C      -2.738250    1.266760   -0.155890
  H      -3.077970    1.646610    0.804500
  H      -3.202120    0.302860   -0.346210
  H      -3.049990    1.975490   -0.918600
--
0 1
  N       5.763100    1.112640   -0.111330
  H       6.253130    0.236680   -0.229260
  C       6.566720    2.255480    0.039160
  O       7.782290    2.159860    0.023970
  C       5.794130    3.470800    0.202300
  H       6.315900    4.403990    0.325330
  C       4.444970    3.409120    0.196620
  H       3.824570    4.285480    0.314300
  N       3.759890    2.236840    0.042060
  H       2.727100    2.227780    0.041220
  C       4.390780    1.032370   -0.120200
  O       3.793590   -0.031540   -0.262010
units angstrom
no_reorient
symmetry c1
}

set {
scf_type DF
basis aug-cc-pvdz
freeze_core True
guess SAD
}
energy('sapt2+')
--------------------------------------------------------------------------

  //              Dimer HF             //
    Molecular point group: c1
  Charge       = 0
  Multiplicity = 1
  Basis Set: AUG-CC-PVDZ
    Blend: AUG-CC-PVDZ
  Basis Set: (AUG-CC-PVDZ AUX)
    Blend: AUG-CC-PVDZ-JKFIT
  @DF-RHF Final Energy:  -620.54705954779445
    Total Energy =                       -620.5470595477944471
  //            Monomer A HF           //
    Molecular point group: c1
  Multiplicity = 1
  Basis Set: AUG-CC-PVDZ
    Blend: AUG-CC-PVDZ
  Basis Set: (AUG-CC-PVDZ AUX)
    Blend: AUG-CC-PVDZ-JKFIT
  @DF-RHF Final Energy:  -208.01055400654073
    Total Energy =                       -208.0105540065407297
  //            Monomer B HF           //
    Molecular point group: c1

    Geometry (in Angstrom), charge = 0, multiplicity = 1:

       Center              X                  Y                   Z               Mass
    ------------   -----------------  -----------------  -----------------  -----------------
      Gh(C)          -4.247067775607    -0.442168406275    -0.087290838059    12.000000000000
      Gh(O)          -3.585617775607     0.588211593725     0.079949161941    15.994914619570
      Gh(N)          -3.684917775607    -1.649918406275    -0.259950838059    14.003074004430
      Gh(H)          -2.670487775607    -1.744368406275    -0.254000838059     1.007825032230
      Gh(H)          -4.258547775607    -2.460128406275    -0.392350838059     1.007825032230
      Gh(C)          -5.752587775607    -0.387048406275    -0.101560838059    12.000000000000
      Gh(H)          -6.092307775607    -0.007198406275     0.858829161941     1.007825032230
      Gh(H)          -6.216457775607    -1.350948406275    -0.291880838059     1.007825032230
      Gh(H)          -6.064327775607     0.321681593725    -0.864270838059     1.007825032230
         N            2.748762224393    -0.541168406275    -0.057000838059    14.003074004430
         H            3.238792224393    -1.417128406275    -0.174930838059     1.007825032230
         C            3.552382224393     0.601671593725     0.093489161941    12.000000000000
         O            4.767952224393     0.506051593725     0.078299161941    15.994914619570
         C            2.779792224393     1.816991593725     0.256629161941    12.000000000000
         H            3.301562224393     2.750181593725     0.379659161941     1.007825032230
         C            1.430632224393     1.755311593725     0.250949161941    12.000000000000
         H            0.810232224393     2.631671593725     0.368629161941     1.007825032230
         N            0.745552224393     0.583031593725     0.096389161941    14.003074004430
         H           -0.287237775607     0.573971593725     0.095549161941     1.007825032230
         C            1.376442224393    -0.621438406275    -0.065870838059    12.000000000000
         O            0.779252224393    -1.685348406275    -0.207680838059    15.994914619570

  Charge       = 0
  Multiplicity = 1
  Basis Set: AUG-CC-PVDZ
    Blend: AUG-CC-PVDZ
  Basis Set: (AUG-CC-PVDZ AUX)
    Blend: AUG-CC-PVDZ-JKFIT

    Orbital Energies [Eh]
    ---------------------

    Doubly Occupied:

       1A    -20.553768     2A    -20.553713     3A    -15.657857
       4A    -15.634839     5A    -11.427393     6A    -11.390137
       7A    -11.349718     8A    -11.264316     9A     -1.437171
      10A     -1.402216    11A     -1.317878    12A     -1.249738
      13A     -1.092991    14A     -0.940400    15A     -0.903837
      16A     -0.808359    17A     -0.769788    18A     -0.716227
      19A     -0.678916    20A     -0.670436    21A     -0.651277
      22A     -0.616368    23A     -0.602960    24A     -0.571515
      25A     -0.524044    26A     -0.481396    27A     -0.448518
      28A     -0.434569    29A     -0.370018

  @DF-RHF Final Energy:  -412.52771219623253

   => Energetics <=

    Nuclear Repulsion Energy =            357.1699839452878678
    One-Electron Energy =               -1270.3546669304355419
    Two-Electron Energy =                 500.6569707889151459
    Total Energy =                       -412.5277121962325282

  Dipole Moment: [D]
     X:    -3.5863      Y:     3.7967      Z:     0.5123     Total:     5.2478

    SAPT Results
  --------------------------------------------------------------------------------------------------------
    Electrostatics                 -6.98272309 [mEh]      -4.38172489 [kcal/mol]     -18.33313696 [kJ/mol]
      Elst10,r                     -8.35822597 [mEh]      -5.24486598 [kcal/mol]     -21.94451926 [kJ/mol]
      Elst12,r                      1.37550288 [mEh]       0.86314109 [kcal/mol]       3.61138230 [kJ/mol]

    Exchange                        0.28254119 [mEh]       0.17729727 [kcal/mol]       0.74181179 [kJ/mol]
      Exch10                        0.18536248 [mEh]       0.11631671 [kcal/mol]       0.48666913 [kJ/mol]
      Exch10(S^2)                   0.18533557 [mEh]       0.11629983 [kcal/mol]       0.48659847 [kJ/mol]
      Exch11(S^2)                  -0.00629054 [mEh]      -0.00394737 [kcal/mol]      -0.01651582 [kJ/mol]
      Exch12(S^2)                   0.10346925 [mEh]       0.06492793 [kcal/mol]       0.27165848 [kJ/mol]

    Induction                      -0.62867212 [mEh]      -0.39449771 [kcal/mol]      -1.65057842 [kJ/mol]
      Ind20,r                      -0.59785393 [mEh]      -0.37515901 [kcal/mol]      -1.56966528 [kJ/mol]
      Ind22                        -0.00876583 [mEh]      -0.00550064 [kcal/mol]      -0.02301469 [kJ/mol]
      Exch-Ind20,r                  0.03923353 [mEh]       0.02461941 [kcal/mol]       0.10300762 [kJ/mol]
      Exch-Ind22                    0.00057525 [mEh]       0.00036097 [kcal/mol]       0.00151031 [kJ/mol]
      delta HF,r (2)               -0.06186113 [mEh]      -0.03881845 [kcal/mol]      -0.16241639 [kJ/mol]

    Dispersion                     -1.13294077 [mEh]      -0.71093107 [kcal/mol]      -2.97453559 [kJ/mol]
      Disp20                       -0.99266543 [mEh]      -0.62290696 [kcal/mol]      -2.60624272 [kJ/mol]
      Disp21                        0.10550823 [mEh]       0.06620741 [kcal/mol]       0.27701182 [kJ/mol]
      Disp22 (SDQ)                 -0.04771076 [mEh]      -0.02993895 [kcal/mol]      -0.12526458 [kJ/mol]
      Disp22 (T)                   -0.20967316 [mEh]      -0.13157189 [kcal/mol]      -0.55049680 [kJ/mol]
      Est. Disp22 (T)              -0.21800817 [mEh]      -0.13680219 [kcal/mol]      -0.57238038 [kJ/mol]
      Exch-Disp20                   0.01993535 [mEh]       0.01250962 [kcal/mol]       0.05234026 [kJ/mol]

  Total HF                         -8.79334502 [mEh]      -5.51790731 [kcal/mol]     -23.08692417 [kJ/mol]
  Total SAPT0                      -9.76607509 [mEh]      -6.12830464 [kcal/mol]     -25.64082663 [kJ/mol]
  Total SAPT2                      -8.30158409 [mEh]      -5.20932267 [kcal/mol]     -21.79580604 [kJ/mol]
  Total SAPT2+                     -8.46179480 [mEh]      -5.30985640 [kcal/mol]     -22.21643918 [kJ/mol]

  Special recipe for scaled SAPT0 (see Manual):
    Electrostatics sSAPT0          -8.35822597 [mEh]      -5.24486598 [kcal/mol]     -21.94451926 [kJ/mol]
    Exchange sSAPT0                 0.18536248 [mEh]       0.11631671 [kcal/mol]       0.48666913 [kJ/mol]
    Induction sSAPT0               -0.62046444 [mEh]      -0.38934731 [kcal/mol]      -1.62902916 [kJ/mol]
    Dispersion sSAPT0              -0.97272139 [mEh]      -0.61039189 [kcal/mol]      -2.55387965 [kJ/mol]
  Total sSAPT0                     -9.76604931 [mEh]      -6.12828847 [kcal/mol]     -25.64075894 [kJ/mol]
  --------------------------------------------------------------------------------------------------------

*** Psi4 exiting successfully. Buy a developer a beer!
