                               Psi4 1.4a2.dev224

  ==> Input File <==

--------------------------------------------------------------------------
#Generated by lconvert.py for sapt job

memory 20 GB

molecule  {
0 1
  C      -1.232730    1.211640   -0.141620
  O      -0.571280    2.242020    0.025620
  N      -0.670580    0.003890   -0.314280
  H       0.343850   -0.090560   -0.308330
  H      -1.244210   -0.806320   -0.446680
  C      -2.738250    1.266760   -0.155890
  H      -3.077970    1.646610    0.804500
  H      -3.202120    0.302860   -0.346210
  H      -3.049990    1.975490   -0.918600
--
0 1
  N       4.721540    1.118250   -0.115800
  H       5.211570    0.242300   -0.233730
  C       5.525170    2.261100    0.034690
  O       6.740730    2.165470    0.019500
  C       4.752580    3.476410    0.197830
  H       5.274340    4.409610    0.320870
  C       3.403410    3.414740    0.192150
  H       2.783010    4.291100    0.309830
  N       2.718330    2.242460    0.037590
  H       1.685540    2.233400    0.036750
  C       3.349220    1.037990   -0.124670
  O       2.752030   -0.025930   -0.266480
units angstrom
no_reorient
symmetry c1
}

set {
scf_type DF
basis aug-cc-pvdz
freeze_core True
guess SAD
}
energy('sapt2+')
--------------------------------------------------------------------------

  //              Dimer HF             //
    Molecular point group: c1
  Charge       = 0
  Multiplicity = 1
  Basis Set: AUG-CC-PVDZ
    Blend: AUG-CC-PVDZ
  Basis Set: (AUG-CC-PVDZ AUX)
    Blend: AUG-CC-PVDZ-JKFIT
  @DF-RHF Final Energy:  -620.55928116500206
    Total Energy =                       -620.5592811650020622
  //            Monomer A HF           //
    Molecular point group: c1
  Multiplicity = 1
  Basis Set: AUG-CC-PVDZ
    Blend: AUG-CC-PVDZ
  Basis Set: (AUG-CC-PVDZ AUX)
    Blend: AUG-CC-PVDZ-JKFIT
  @DF-RHF Final Energy:  -208.01078270697914
    Total Energy =                       -208.0107827069791426
  //            Monomer B HF           //
    Molecular point group: c1

    Geometry (in Angstrom), charge = 0, multiplicity = 1:

       Center              X                  Y                   Z               Mass
    ------------   -----------------  -----------------  -----------------  -----------------
      Gh(C)          -3.564968536648    -0.445845462414    -0.084363566941    12.000000000000
      Gh(O)          -2.903518536648     0.584534537586     0.082876433059    15.994914619570
      Gh(N)          -3.002818536648    -1.653595462414    -0.257023566941    14.003074004430
      Gh(H)          -1.988388536648    -1.748045462414    -0.251073566941     1.007825032230
      Gh(H)          -3.576448536648    -2.463805462414    -0.389423566941     1.007825032230
      Gh(C)          -5.070488536648    -0.390725462414    -0.098633566941    12.000000000000
      Gh(H)          -5.410208536648    -0.010875462414     0.861756433059     1.007825032230
      Gh(H)          -5.534358536648    -1.354625462414    -0.288953566941     1.007825032230
      Gh(H)          -5.382228536648     0.318004537586    -0.861343566941     1.007825032230
         N            2.389301463352    -0.539235462414    -0.058543566941    14.003074004430
         H            2.879331463352    -1.415185462414    -0.176473566941     1.007825032230
         C            3.192931463352     0.603614537586     0.091946433059    12.000000000000
         O            4.408491463352     0.507984537586     0.076756433059    15.994914619570
         C            2.420341463352     1.818924537586     0.255086433059    12.000000000000
         H            2.942101463352     2.752124537586     0.378126433059     1.007825032230
         C            1.071171463352     1.757254537586     0.249406433059    12.000000000000
         H            0.450771463352     2.633614537586     0.367086433059     1.007825032230
         N            0.386091463352     0.584974537586     0.094846433059    14.003074004430
         H           -0.646698536648     0.575914537586     0.094006433059     1.007825032230
         C            1.016981463352    -0.619495462414    -0.067413566941    12.000000000000
         O            0.419791463352    -1.683415462414    -0.209223566941    15.994914619570

  Charge       = 0
  Multiplicity = 1
  Basis Set: AUG-CC-PVDZ
    Blend: AUG-CC-PVDZ
  Basis Set: (AUG-CC-PVDZ AUX)
    Blend: AUG-CC-PVDZ-JKFIT

    Orbital Energies [Eh]
    ---------------------

    Doubly Occupied:

       1A    -20.553786     2A    -20.553767     3A    -15.657668
       4A    -15.634839     5A    -11.427325     6A    -11.390112
       7A    -11.349624     8A    -11.264269     9A     -1.437137
      10A     -1.402198    11A     -1.317844    12A     -1.249720
      13A     -1.092974    14A     -0.940389    15A     -0.903821
      16A     -0.808364    17A     -0.769772    18A     -0.716220
      19A     -0.678906    20A     -0.670405    21A     -0.651256
      22A     -0.616360    23A     -0.602947    24A     -0.571492
      25A     -0.524010    26A     -0.481392    27A     -0.448507
      28A     -0.434541    29A     -0.369994

  @DF-RHF Final Energy:  -412.52795594111285

   => Energetics <=

    Nuclear Repulsion Energy =            357.1695921741259667
    One-Electron Energy =               -1270.3558185084175420
    Two-Electron Energy =                 500.6582703931787819
    Total Energy =                       -412.5279559411128503

  Dipole Moment: [D]
     X:    -3.5905      Y:     3.7959      Z:     0.5122     Total:     5.2501

    SAPT Results
  --------------------------------------------------------------------------------------------------------
    Electrostatics                -20.32241720 [mEh]     -12.75250933 [kcal/mol]     -53.35649902 [kJ/mol]
      Elst10,r                    -22.61418803 [mEh]     -14.19061723 [kcal/mol]     -59.37354250 [kJ/mol]
      Elst12,r                      2.29177083 [mEh]       1.43810791 [kcal/mol]       6.01704348 [kJ/mol]

    Exchange                        8.89883586 [mEh]       5.58410381 [kcal/mol]      23.36389032 [kJ/mol]
      Exch10                        6.95353786 [mEh]       4.36341088 [kcal/mol]      18.25651113 [kJ/mol]
      Exch10(S^2)                   6.93219809 [mEh]       4.35001998 [kcal/mol]      18.20048359 [kJ/mol]
      Exch11(S^2)                  -0.09927262 [mEh]      -0.06229451 [kcal/mol]      -0.26064022 [kJ/mol]
      Exch12(S^2)                   2.04457062 [mEh]       1.28298743 [kcal/mol]       5.36801941 [kJ/mol]

    Induction                      -5.31741929 [mEh]      -3.33673098 [kcal/mol]     -13.96088243 [kJ/mol]
      Ind20,r                      -5.06032607 [mEh]      -3.17540255 [kcal/mol]     -13.28588426 [kJ/mol]
      Ind22                        -0.63287156 [mEh]      -0.39713290 [kcal/mol]      -1.66160406 [kJ/mol]
      Exch-Ind20,r                  1.57772694 [mEh]       0.99003860 [kcal/mol]       4.14232151 [kJ/mol]
      Exch-Ind22                    0.19731901 [mEh]       0.12381955 [kcal/mol]       0.51806098 [kJ/mol]
      delta HF,r (2)               -1.39926761 [mEh]      -0.87805368 [kcal/mol]      -3.67377660 [kJ/mol]

    Dispersion                     -5.50222173 [mEh]      -3.45269626 [kcal/mol]     -14.44608117 [kJ/mol]
      Disp20                       -5.12710207 [mEh]      -3.21730512 [kcal/mol]     -13.46120462 [kJ/mol]
      Disp21                        0.38862267 [mEh]       0.24386441 [kcal/mol]       1.02032868 [kJ/mol]
      Disp22 (SDQ)                 -0.25528493 [mEh]      -0.16019371 [kcal/mol]      -0.67025049 [kJ/mol]
      Disp22 (T)                   -0.95108764 [mEh]      -0.59681651 [kcal/mol]      -2.49708026 [kJ/mol]
      Est. Disp22 (T)              -1.04450537 [mEh]      -0.65543701 [kcal/mol]      -2.74234846 [kJ/mol]
      Exch-Disp20                   0.53604796 [mEh]       0.33637517 [kcal/mol]       1.40739372 [kJ/mol]

  Total HF                        -20.54251691 [mEh]     -12.89062398 [kcal/mol]     -53.93437072 [kJ/mol]
  Total SAPT0                     -25.13357102 [mEh]     -15.77155392 [kcal/mol]     -65.98818161 [kJ/mol]
  Total SAPT2                     -21.33205475 [mEh]     -13.38606645 [kcal/mol]     -56.00730203 [kJ/mol]
  Total SAPT2+                    -22.24322237 [mEh]     -13.95783277 [kcal/mol]     -58.39957230 [kJ/mol]

  Special recipe for scaled SAPT0 (see Manual):
    Electrostatics sSAPT0         -22.61418803 [mEh]     -14.19061723 [kcal/mol]     -59.37354250 [kJ/mol]
    Exchange sSAPT0                 6.95353786 [mEh]       4.36341088 [kcal/mol]      18.25651113 [kJ/mol]
    Induction sSAPT0               -4.86725143 [mEh]      -3.05424638 [kcal/mol]     -12.77896687 [kJ/mol]
    Dispersion sSAPT0              -4.58608842 [mEh]      -2.87781393 [kcal/mol]     -12.04077348 [kJ/mol]
  Total sSAPT0                    -25.11399002 [mEh]     -15.75926666 [kcal/mol]     -65.93677171 [kJ/mol]
  --------------------------------------------------------------------------------------------------------

*** Psi4 exiting successfully. Buy a developer a beer!
