                               Psi4 1.4a2.dev224

  ==> Input File <==

--------------------------------------------------------------------------
#Generated by lconvert.py for sapt job

memory 20 GB

molecule  {
0 1
  C       0.712640    1.121000    0.060540
  H       1.357840    1.986400    0.127740
  C       1.258240   -0.159250    0.124230
  H       2.324950   -0.287100    0.246740
  C       0.426890   -1.274530    0.042650
  H       0.850450   -2.268430    0.094750
  C      -0.949580   -1.110070   -0.100310
  H      -1.594460   -1.976270   -0.163710
  C      -1.495530    0.171050   -0.161550
  H      -2.563780    0.299220   -0.273700
  C      -0.663830    1.286640   -0.083400
  H      -1.086900    2.281000   -0.132890
--
0 1
  C       3.041620    1.099870    6.725120
  H       3.686470    1.966050    6.788870
  C       3.587580   -0.181280    6.786640
  H       4.655780   -0.309430    6.899380
  C       2.755930   -1.296880    6.707990
  H       3.179010   -2.291230    6.757640
  C       1.379520   -1.131250    6.563270
  H       0.734420   -1.996660    6.495640
  C       0.833970    0.148990    6.499310
  H      -0.232660    0.276810    6.376130
  C       1.665240    1.264270    6.581380
  H       1.241720    2.258170    6.529010
units angstrom
no_reorient
symmetry c1
}

set {
scf_type DF
basis aug-cc-pvdz
freeze_core True
guess SAD
}
energy('sapt2+')
--------------------------------------------------------------------------

  //              Dimer HF             //
    Molecular point group: c1
  Charge       = 0
  Multiplicity = 1
  Basis Set: AUG-CC-PVDZ
    Blend: AUG-CC-PVDZ
  Basis Set: (AUG-CC-PVDZ AUX)
    Blend: AUG-CC-PVDZ-JKFIT
  @DF-RHF Final Energy:  -461.45573049041843
    Total Energy =                       -461.4557304904184321
  //            Monomer A HF           //
    Molecular point group: c1
  Multiplicity = 1
  Basis Set: AUG-CC-PVDZ
    Blend: AUG-CC-PVDZ
  Basis Set: (AUG-CC-PVDZ AUX)
    Blend: AUG-CC-PVDZ-JKFIT
  @DF-RHF Final Energy:  -230.72794687191086
    Total Energy =                       -230.7279468719108309
  //            Monomer B HF           //
    Molecular point group: c1

    Geometry (in Angstrom), charge = 0, multiplicity = 1:

       Center              X                  Y                   Z               Mass
    ------------   -----------------  -----------------  -----------------  -----------------
      Gh(C)          -0.333418468480     1.126120193696    -3.251614090070    12.000000000000
      Gh(H)           0.311781531520     1.991520193696    -3.184414090070     1.007825032230
      Gh(C)           0.212181531520    -0.154129806304    -3.187924090070    12.000000000000
      Gh(H)           1.278891531520    -0.281979806304    -3.065414090070     1.007825032230
      Gh(C)          -0.619168468480    -1.269409806304    -3.269504090070    12.000000000000
      Gh(H)          -0.195608468480    -2.263309806304    -3.217404090070     1.007825032230
      Gh(C)          -1.995638468480    -1.104949806304    -3.412464090070    12.000000000000
      Gh(H)          -2.640518468480    -1.971149806304    -3.475864090070     1.007825032230
      Gh(C)          -2.541588468480     0.176170193696    -3.473704090070    12.000000000000
      Gh(H)          -3.609838468480     0.304340193696    -3.585854090070     1.007825032230
      Gh(C)          -1.709888468480     1.291760193696    -3.395554090070    12.000000000000
      Gh(H)          -2.132958468480     2.286120193696    -3.445044090070     1.007825032230
         C            1.995561531520     1.104990193696     3.412965909930    12.000000000000
         H            2.640411531520     1.971170193696     3.476715909930     1.007825032230
         C            2.541521531520    -0.176159806304     3.474485909930    12.000000000000
         H            3.609721531520    -0.304309806304     3.587225909930     1.007825032230
         C            1.709871531520    -1.291759806304     3.395835909930    12.000000000000
         H            2.132951531520    -2.286109806304     3.445485909930     1.007825032230
         C            0.333461531520    -1.126129806304     3.251115909930    12.000000000000
         H           -0.311638468480    -1.991539806304     3.183485909930     1.007825032230
         C           -0.212088468480     0.154110193696     3.187155909930    12.000000000000
         H           -1.278718468480     0.281930193696     3.063975909930     1.007825032230
         C            0.619181531520     1.269390193696     3.269225909930    12.000000000000
         H            0.195661531520     2.263290193696     3.216855909930     1.007825032230

  Charge       = 0
  Multiplicity = 1
  Basis Set: AUG-CC-PVDZ
    Blend: AUG-CC-PVDZ
  Basis Set: (AUG-CC-PVDZ AUX)
    Blend: AUG-CC-PVDZ-JKFIT

    Orbital Energies [Eh]
    ---------------------

    Doubly Occupied:

       1A    -11.242217     2A    -11.241654     3A    -11.241633
       4A    -11.240431     5A    -11.240428     6A    -11.239821
       7A     -1.153340     8A     -1.017578     9A     -1.017375
      10A     -0.825970    11A     -0.825911    12A     -0.710637
      13A     -0.644873    14A     -0.619977    15A     -0.588898
      16A     -0.588629    17A     -0.501929    18A     -0.494970
      19A     -0.494706    20A     -0.336527    21A     -0.336405

  @DF-RHF Final Energy:  -230.72794660463219

   => Energetics <=

    Nuclear Repulsion Energy =            203.7116637545062474
    One-Electron Energy =                -713.6714110003074438
    Two-Electron Energy =                 279.2318006411690021
    Total Energy =                       -230.7279466046321659

  Dipole Moment: [D]
     X:     0.0002      Y:    -0.0001      Z:    -0.0123     Total:     0.0123

    SAPT Results
  --------------------------------------------------------------------------------------------------------
    Electrostatics                  0.12752604 [mEh]       0.08002380 [kcal/mol]       0.33481956 [kJ/mol]
      Elst10,r                      0.17658868 [mEh]       0.11081107 [kcal/mol]       0.46363352 [kJ/mol]
      Elst12,r                     -0.04906264 [mEh]      -0.03078727 [kcal/mol]      -0.12881396 [kJ/mol]

    Exchange                        0.00078504 [mEh]       0.00049262 [kcal/mol]       0.00206112 [kJ/mol]
      Exch10                        0.00068977 [mEh]       0.00043284 [kcal/mol]       0.00181100 [kJ/mol]
      Exch10(S^2)                   0.00068977 [mEh]       0.00043284 [kcal/mol]       0.00181100 [kJ/mol]
      Exch11(S^2)                   0.00000124 [mEh]       0.00000078 [kcal/mol]       0.00000326 [kJ/mol]
      Exch12(S^2)                   0.00009403 [mEh]       0.00005900 [kcal/mol]       0.00024687 [kJ/mol]

    Induction                      -0.01204365 [mEh]      -0.00755751 [kcal/mol]      -0.03162061 [kJ/mol]
      Ind20,r                      -0.01508985 [mEh]      -0.00946903 [kcal/mol]      -0.03961840 [kJ/mol]
      Ind22                         0.00231272 [mEh]       0.00145125 [kcal/mol]       0.00607204 [kJ/mol]
      Exch-Ind20,r                  0.00041787 [mEh]       0.00026222 [kcal/mol]       0.00109711 [kJ/mol]
      Exch-Ind22                   -0.00006404 [mEh]      -0.00004019 [kcal/mol]      -0.00016815 [kJ/mol]
      delta HF,r (2)                0.00037966 [mEh]       0.00023824 [kcal/mol]       0.00099679 [kJ/mol]

    Dispersion                     -0.30628468 [mEh]      -0.19219654 [kcal/mol]      -0.80415032 [kJ/mol]
      Disp20                       -0.36963036 [mEh]      -0.23194655 [kcal/mol]      -0.97046437 [kJ/mol]
      Disp21                        0.14692830 [mEh]       0.09219890 [kcal/mol]       0.38576020 [kJ/mol]
      Disp22 (SDQ)                 -0.00071918 [mEh]      -0.00045129 [kcal/mol]      -0.00188821 [kJ/mol]
      Disp22 (T)                   -0.08232711 [mEh]      -0.05166104 [kcal/mol]      -0.21614978 [kJ/mol]
      Est. Disp22 (T)              -0.08338346 [mEh]      -0.05232391 [kcal/mol]      -0.21892323 [kJ/mol]
      Exch-Disp20                   0.00052001 [mEh]       0.00032631 [kcal/mol]       0.00136530 [kJ/mol]

  Total HF                          0.16298612 [mEh]       0.10227534 [kcal/mol]       0.42792001 [kJ/mol]
  Total SAPT0                      -0.20612422 [mEh]      -0.12934490 [kcal/mol]      -0.54117906 [kJ/mol]
  Total SAPT2                      -0.25284292 [mEh]      -0.15866133 [kcal/mol]      -0.66383900 [kJ/mol]
  Total SAPT2+                     -0.19001726 [mEh]      -0.11923763 [kcal/mol]      -0.49889025 [kJ/mol]

  Special recipe for scaled SAPT0 (see Manual):
    Electrostatics sSAPT0           0.17658868 [mEh]       0.11081107 [kcal/mol]       0.46363352 [kJ/mol]
    Exchange sSAPT0                 0.00068977 [mEh]       0.00043284 [kcal/mol]       0.00181100 [kJ/mol]
    Induction sSAPT0               -0.01429233 [mEh]      -0.00896857 [kcal/mol]      -0.03752450 [kJ/mol]
    Dispersion sSAPT0              -0.36911034 [mEh]      -0.23162024 [kcal/mol]      -0.96909907 [kJ/mol]
  Total sSAPT0                     -0.20612422 [mEh]      -0.12934490 [kcal/mol]      -0.54117906 [kJ/mol]
  --------------------------------------------------------------------------------------------------------

*** Psi4 exiting successfully. Buy a developer a beer!
