                               Psi4 1.4a2.dev224

  ==> Input File <==

--------------------------------------------------------------------------
#Generated by lconvert.py for sapt job

memory 20 GB

molecule  {
0 1
  C       0.712640    1.121000    0.060540
  H       1.357840    1.986400    0.127740
  C       1.258240   -0.159250    0.124230
  H       2.324950   -0.287100    0.246740
  C       0.426890   -1.274530    0.042650
  H       0.850450   -2.268430    0.094750
  C      -0.949580   -1.110070   -0.100310
  H      -1.594460   -1.976270   -0.163710
  C      -1.495530    0.171050   -0.161550
  H      -2.563780    0.299220   -0.273700
  C      -0.663830    1.286640   -0.083400
  H      -1.086900    2.281000   -0.132890
--
0 1
  C       2.677110    1.103290    5.682340
  H       3.321950    1.969470    5.746090
  C       3.223060   -0.177860    5.743860
  H       4.291270   -0.306010    5.856600
  C       2.391410   -1.293460    5.665210
  H       2.814490   -2.287810    5.714860
  C       1.015010   -1.127830    5.520490
  H       0.369900   -1.993240    5.452860
  C       0.469450    0.152410    5.456530
  H      -0.597180    0.280240    5.333350
  C       1.300720    1.267690    5.538600
  H       0.877200    2.261590    5.486230
units angstrom
no_reorient
symmetry c1
}

set {
scf_type DF
basis aug-cc-pvdz
freeze_core True
guess SAD
}
energy('sapt2+')
--------------------------------------------------------------------------

  //              Dimer HF             //
    Molecular point group: c1
  Charge       = 0
  Multiplicity = 1
  Basis Set: AUG-CC-PVDZ
    Blend: AUG-CC-PVDZ
  Basis Set: (AUG-CC-PVDZ AUX)
    Blend: AUG-CC-PVDZ-JKFIT
  @DF-RHF Final Energy:  -461.45582200932404
    Total Energy =                       -461.4558220093240379
  //            Monomer A HF           //
    Molecular point group: c1
  Multiplicity = 1
  Basis Set: AUG-CC-PVDZ
    Blend: AUG-CC-PVDZ
  Basis Set: (AUG-CC-PVDZ AUX)
    Blend: AUG-CC-PVDZ-JKFIT
  @DF-RHF Final Energy:  -230.72808858297523
    Total Energy =                       -230.7280885829752037
  //            Monomer B HF           //
    Molecular point group: c1

    Geometry (in Angstrom), charge = 0, multiplicity = 1:

       Center              X                  Y                   Z               Mass
    ------------   -----------------  -----------------  -----------------  -----------------
      Gh(C)          -0.151160070581     1.124410129131    -2.730224090070    12.000000000000
      Gh(H)           0.494039929419     1.989810129131    -2.663024090070     1.007825032230
      Gh(C)           0.394439929419    -0.155839870869    -2.666534090070    12.000000000000
      Gh(H)           1.461149929419    -0.283689870869    -2.544024090070     1.007825032230
      Gh(C)          -0.436910070581    -1.271119870869    -2.748114090070    12.000000000000
      Gh(H)          -0.013350070581    -2.265019870869    -2.696014090070     1.007825032230
      Gh(C)          -1.813380070581    -1.106659870869    -2.891074090070    12.000000000000
      Gh(H)          -2.458260070581    -1.972859870869    -2.954474090070     1.007825032230
      Gh(C)          -2.359330070581     0.174460129131    -2.952314090070    12.000000000000
      Gh(H)          -3.427580070581     0.302630129131    -3.064464090070     1.007825032230
      Gh(C)          -1.527630070581     1.290050129131    -2.874164090070    12.000000000000
      Gh(H)          -1.950700070581     2.284410129131    -2.923654090070     1.007825032230
         C            1.813309929419     1.106700129131     2.891575909930    12.000000000000
         H            2.458149929419     1.972880129131     2.955325909930     1.007825032230
         C            2.359259929419    -0.174449870869     2.953095909930    12.000000000000
         H            3.427469929419    -0.302599870869     3.065835909930     1.007825032230
         C            1.527609929419    -1.290049870869     2.874445909930    12.000000000000
         H            1.950689929419    -2.284399870869     2.924095909930     1.007825032230
         C            0.151209929419    -1.124419870869     2.729725909930    12.000000000000
         H           -0.493900070581    -1.989829870869     2.662095909930     1.007825032230
         C           -0.394350070581     0.155820129131     2.665765909930    12.000000000000
         H           -1.460980070581     0.283650129131     2.542585909930     1.007825032230
         C            0.436919929419     1.271100129131     2.747835909930    12.000000000000
         H            0.013399929419     2.265000129131     2.695465909930     1.007825032230

  Charge       = 0
  Multiplicity = 1
  Basis Set: AUG-CC-PVDZ
    Blend: AUG-CC-PVDZ
  Basis Set: (AUG-CC-PVDZ AUX)
    Blend: AUG-CC-PVDZ-JKFIT

    Orbital Energies [Eh]
    ---------------------

    Doubly Occupied:

       1A    -11.242205     2A    -11.241643     3A    -11.241622
       4A    -11.240420     5A    -11.240416     6A    -11.239809
       7A     -1.153315     8A     -1.017539     9A     -1.017337
      10A     -0.825937    11A     -0.825875    12A     -0.710595
      13A     -0.644844    14A     -0.619937    15A     -0.588855
      16A     -0.588588    17A     -0.501943    18A     -0.494934
      19A     -0.494671    20A     -0.336507    21A     -0.336386

  @DF-RHF Final Energy:  -230.72808837575602

   => Energetics <=

    Nuclear Repulsion Energy =            203.7116112813716882
    One-Electron Energy =                -713.6726487675658746
    Two-Electron Energy =                 279.2329491104381987
    Total Energy =                       -230.7280883757559877

  Dipole Moment: [D]
     X:     0.0009      Y:    -0.0001      Z:    -0.0104     Total:     0.0104

    SAPT Results
  --------------------------------------------------------------------------------------------------------
    Electrostatics                  0.26953758 [mEh]       0.16913738 [kcal/mol]       0.70767081 [kJ/mol]
      Elst10,r                      0.38032706 [mEh]       0.23865884 [kcal/mol]       0.99854857 [kJ/mol]
      Elst12,r                     -0.11078949 [mEh]      -0.06952145 [kcal/mol]      -0.29087776 [kJ/mol]

    Exchange                        0.02466924 [mEh]       0.01548018 [kcal/mol]       0.06476908 [kJ/mol]
      Exch10                        0.02195405 [mEh]       0.01377637 [kcal/mol]       0.05764034 [kJ/mol]
      Exch10(S^2)                   0.02195411 [mEh]       0.01377641 [kcal/mol]       0.05764050 [kJ/mol]
      Exch11(S^2)                   0.00072279 [mEh]       0.00045356 [kcal/mol]       0.00189769 [kJ/mol]
      Exch12(S^2)                   0.00199240 [mEh]       0.00125025 [kcal/mol]       0.00523105 [kJ/mol]

    Induction                      -0.04051015 [mEh]      -0.02542050 [kcal/mol]      -0.10635939 [kJ/mol]
      Ind20,r                      -0.05667928 [mEh]      -0.03556678 [kcal/mol]      -0.14881142 [kJ/mol]
      Ind22                         0.00788338 [mEh]       0.00494690 [kcal/mol]       0.02069781 [kJ/mol]
      Exch-Ind20,r                  0.00763426 [mEh]       0.00479057 [kcal/mol]       0.02004374 [kJ/mol]
      Exch-Ind22                   -0.00106183 [mEh]      -0.00066631 [kcal/mol]      -0.00278783 [kJ/mol]
      delta HF,r (2)                0.00171331 [mEh]       0.00107512 [kcal/mol]       0.00449830 [kJ/mol]

    Dispersion                     -0.87718316 [mEh]      -0.55044074 [kcal/mol]      -2.30304406 [kJ/mol]
      Disp20                       -1.05431309 [mEh]      -0.66159145 [kcal/mol]      -2.76809864 [kJ/mol]
      Disp21                        0.39987197 [mEh]       0.25092345 [kcal/mol]       1.04986371 [kJ/mol]
      Disp22 (SDQ)                  0.00553935 [mEh]       0.00347599 [kcal/mol]       0.01454355 [kJ/mol]
      Disp22 (T)                   -0.23214010 [mEh]      -0.14567011 [kcal/mol]      -0.60948375 [kJ/mol]
      Est. Disp22 (T)              -0.23717276 [mEh]      -0.14882816 [kcal/mol]      -0.62269700 [kJ/mol]
      Exch-Disp20                   0.00889138 [mEh]       0.00557943 [kcal/mol]       0.02334432 [kJ/mol]

  Total HF                          0.35494941 [mEh]       0.22273412 [kcal/mol]       0.93191954 [kJ/mol]
  Total SAPT0                      -0.69047230 [mEh]      -0.43327791 [kcal/mol]      -1.81283477 [kJ/mol]
  Total SAPT2                      -0.79172504 [mEh]      -0.49681497 [kcal/mol]      -2.07867382 [kJ/mol]
  Total SAPT2+                     -0.62348649 [mEh]      -0.39124368 [kcal/mol]      -1.63696356 [kJ/mol]

  Special recipe for scaled SAPT0 (see Manual):
    Electrostatics sSAPT0           0.38032706 [mEh]       0.23865884 [kcal/mol]       0.99854857 [kJ/mol]
    Exchange sSAPT0                 0.02195405 [mEh]       0.01377637 [kcal/mol]       0.05764034 [kJ/mol]
    Induction sSAPT0               -0.04733177 [mEh]      -0.02970113 [kcal/mol]      -0.12426953 [kJ/mol]
    Dispersion sSAPT0              -1.04542178 [mEh]      -0.65601207 [kcal/mol]      -2.74475451 [kJ/mol]
  Total sSAPT0                     -0.69047244 [mEh]      -0.43327799 [kcal/mol]      -1.81283513 [kJ/mol]
  --------------------------------------------------------------------------------------------------------

*** Psi4 exiting successfully. Buy a developer a beer!
