                               Psi4 1.4a2.dev224

  ==> Input File <==

--------------------------------------------------------------------------
#Generated by lconvert.py for sapt job

memory 20 GB

molecule  {
0 1
  C       0.712640    1.121000    0.060540
  H       1.357840    1.986400    0.127740
  C       1.258240   -0.159250    0.124230
  H       2.324950   -0.287100    0.246740
  C       0.426890   -1.274530    0.042650
  H       0.850450   -2.268430    0.094750
  C      -0.949580   -1.110070   -0.100310
  H      -1.594460   -1.976270   -0.163710
  C      -1.495530    0.171050   -0.161550
  H      -2.563780    0.299220   -0.273700
  C      -0.663830    1.286640   -0.083400
  H      -1.086900    2.281000   -0.132890
--
0 1
  C       2.312590    1.106710    4.639560
  H       2.957430    1.972890    4.703310
  C       2.858540   -0.174440    4.701080
  H       3.926750   -0.302590    4.813820
  C       2.026890   -1.290040    4.622430
  H       2.449970   -2.284390    4.672080
  C       0.650490   -1.124410    4.477710
  H       0.005390   -1.989820    4.410080
  C       0.104930    0.155830    4.413740
  H      -0.961700    0.283650    4.290560
  C       0.936210    1.271110    4.495810
  H       0.512680    2.265010    4.443440
units angstrom
no_reorient
symmetry c1
}

set {
scf_type DF
basis aug-cc-pvdz
freeze_core True
guess SAD
}
energy('sapt2+')
--------------------------------------------------------------------------

  //              Dimer HF             //
    Molecular point group: c1
  Charge       = 0
  Multiplicity = 1
  Basis Set: AUG-CC-PVDZ
    Blend: AUG-CC-PVDZ
  Basis Set: (AUG-CC-PVDZ AUX)
    Blend: AUG-CC-PVDZ-JKFIT
  @DF-RHF Final Energy:  -461.45565752855197
    Total Energy =                       -461.4556575285519102
  //            Monomer A HF           //
    Molecular point group: c1
  Multiplicity = 1
  Basis Set: AUG-CC-PVDZ
    Blend: AUG-CC-PVDZ
  Basis Set: (AUG-CC-PVDZ AUX)
    Blend: AUG-CC-PVDZ-JKFIT
  @DF-RHF Final Energy:  -230.72834552425951
    Total Energy =                       -230.7283455242595096
  //            Monomer B HF           //
    Molecular point group: c1

    Geometry (in Angstrom), charge = 0, multiplicity = 1:

       Center              X                  Y                   Z               Mass
    ------------   -----------------  -----------------  -----------------  -----------------
      Gh(C)           0.031099096086     1.122700193696    -2.208832423403    12.000000000000
      Gh(H)           0.676299096086     1.988100193696    -2.141632423403     1.007825032230
      Gh(C)           0.576699096086    -0.157549806304    -2.145142423403    12.000000000000
      Gh(H)           1.643409096086    -0.285399806304    -2.022632423403     1.007825032230
      Gh(C)          -0.254650903914    -1.272829806304    -2.226722423403    12.000000000000
      Gh(H)           0.168909096086    -2.266729806304    -2.174622423403     1.007825032230
      Gh(C)          -1.631120903914    -1.108369806304    -2.369682423403    12.000000000000
      Gh(H)          -2.276000903914    -1.974569806304    -2.433082423403     1.007825032230
      Gh(C)          -2.177070903914     0.172750193696    -2.430922423403    12.000000000000
      Gh(H)          -3.245320903914     0.300920193696    -2.543072423403     1.007825032230
      Gh(C)          -1.345370903914     1.288340193696    -2.352772423403    12.000000000000
      Gh(H)          -1.768440903914     2.282700193696    -2.402262423403     1.007825032230
         C            1.631049096086     1.108410193696     2.370187576597    12.000000000000
         H            2.275889096086     1.974590193696     2.433937576597     1.007825032230
         C            2.176999096086    -0.172739806304     2.431707576597    12.000000000000
         H            3.245209096086    -0.300889806304     2.544447576597     1.007825032230
         C            1.345349096086    -1.288339806304     2.353057576597    12.000000000000
         H            1.768429096086    -2.282689806304     2.402707576597     1.007825032230
         C           -0.031050903914    -1.122709806304     2.208337576597    12.000000000000
         H           -0.676150903914    -1.988119806304     2.140707576597     1.007825032230
         C           -0.576610903914     0.157530193696     2.144367576597    12.000000000000
         H           -1.643240903914     0.285350193696     2.021187576597     1.007825032230
         C            0.254669096086     1.272810193696     2.226437576597    12.000000000000
         H           -0.168860903914     2.266710193696     2.174067576597     1.007825032230

  Charge       = 0
  Multiplicity = 1
  Basis Set: AUG-CC-PVDZ
    Blend: AUG-CC-PVDZ
  Basis Set: (AUG-CC-PVDZ AUX)
    Blend: AUG-CC-PVDZ-JKFIT

    Orbital Energies [Eh]
    ---------------------

    Doubly Occupied:

       1A    -11.242180     2A    -11.241617     3A    -11.241600
       4A    -11.240396     5A    -11.240391     6A    -11.239787
       7A     -1.153252     8A     -1.017452     9A     -1.017252
      10A     -0.825855    11A     -0.825799    12A     -0.710507
      13A     -0.644777    14A     -0.619847    15A     -0.588764
      16A     -0.588499    17A     -0.501955    18A     -0.494856
      19A     -0.494587    20A     -0.336473    21A     -0.336351

  @DF-RHF Final Energy:  -230.72834502664165

   => Energetics <=

    Nuclear Repulsion Energy =            203.7116766480473018
    One-Electron Energy =                -713.6756515927613691
    Two-Electron Energy =                 279.2356299180724477
    Total Energy =                       -230.7283450266416480

  Dipole Moment: [D]
     X:     0.0030      Y:    -0.0001      Z:    -0.0110     Total:     0.0114

    SAPT Results
  --------------------------------------------------------------------------------------------------------
    Electrostatics                  0.36880310 [mEh]       0.23142744 [kcal/mol]       0.96829240 [kJ/mol]
      Elst10,r                      0.62987731 [mEh]       0.39525398 [kcal/mol]       1.65374266 [kJ/mol]
      Elst12,r                     -0.26107421 [mEh]      -0.16382654 [kcal/mol]      -0.68545025 [kJ/mol]

    Exchange                        0.65316428 [mEh]       0.40986677 [kcal/mol]       1.71488258 [kJ/mol]
      Exch10                        0.60682189 [mEh]       0.38078649 [kcal/mol]       1.59321066 [kJ/mol]
      Exch10(S^2)                   0.60679085 [mEh]       0.38076701 [kcal/mol]       1.59312915 [kJ/mol]
      Exch11(S^2)                   0.02807791 [mEh]       0.01761915 [kcal/mol]       0.07371854 [kJ/mol]
      Exch12(S^2)                   0.01826448 [mEh]       0.01146113 [kcal/mol]       0.04795338 [kJ/mol]

    Induction                      -0.19172641 [mEh]      -0.12031014 [kcal/mol]      -0.50337762 [kJ/mol]
      Ind20,r                      -0.34129452 [mEh]      -0.21416555 [kcal/mol]      -0.89606864 [kJ/mol]
      Ind22                         0.02398427 [mEh]       0.01505036 [kcal/mol]       0.06297070 [kJ/mol]
      Exch-Ind20,r                  0.17124049 [mEh]       0.10745503 [kcal/mol]       0.44959185 [kJ/mol]
      Exch-Ind22                   -0.01203382 [mEh]      -0.00755134 [kcal/mol]      -0.03159480 [kJ/mol]
      delta HF,r (2)               -0.03362283 [mEh]      -0.02109864 [kcal/mol]      -0.08827672 [kJ/mol]

    Dispersion                     -3.08121943 [mEh]      -1.93349439 [kcal/mol]      -8.08974051 [kJ/mol]
      Disp20                       -3.78958780 [mEh]      -2.37800225 [kcal/mol]      -9.94956140 [kJ/mol]
      Disp21                        1.32325681 [mEh]       0.83035618 [kcal/mol]       3.47421027 [kJ/mol]
      Disp22 (SDQ)                  0.06082670 [mEh]       0.03816933 [kcal/mol]       0.15970047 [kJ/mol]
      Disp22 (T)                   -0.79915606 [mEh]      -0.50147800 [kcal/mol]      -2.09818395 [kJ/mol]
      Est. Disp22 (T)              -0.84121743 [mEh]      -0.52787191 [kcal/mol]      -2.20861606 [kJ/mol]
      Exch-Disp20                   0.16550230 [mEh]       0.10385426 [kcal/mol]       0.43452622 [kJ/mol]

  Total HF                          1.03302235 [mEh]       0.64823131 [kcal/mol]       2.71219980 [kJ/mol]
  Total SAPT0                      -2.59106316 [mEh]      -1.62591668 [kcal/mol]      -6.80283538 [kJ/mol]
  Total SAPT2                      -2.79384454 [mEh]      -1.75316391 [kcal/mol]      -7.33523782 [kJ/mol]
  Total SAPT2+                     -2.25097846 [mEh]      -1.41251031 [kcal/mol]      -5.90994314 [kJ/mol]

  Special recipe for scaled SAPT0 (see Manual):
    Electrostatics sSAPT0           0.62987731 [mEh]       0.39525398 [kcal/mol]       1.65374266 [kJ/mol]
    Exchange sSAPT0                 0.60682189 [mEh]       0.38078649 [kcal/mol]       1.59321066 [kJ/mol]
    Induction sSAPT0               -0.20365057 [mEh]      -0.12779266 [kcal/mol]      -0.53468450 [kJ/mol]
    Dispersion sSAPT0              -3.62406010 [mEh]      -2.27413205 [kcal/mol]      -9.51496848 [kJ/mol]
  Total sSAPT0                     -2.59101147 [mEh]      -1.62588424 [kcal/mol]      -6.80269967 [kJ/mol]
  --------------------------------------------------------------------------------------------------------

*** Psi4 exiting successfully. Buy a developer a beer!
