                               Psi4 1.4a2.dev224

  ==> Input File <==

--------------------------------------------------------------------------
#Generated by lconvert.py for sapt job

memory 20 GB

molecule  {
0 1
  N       1.572480    0.254550   -0.256480
  C       0.969360   -0.903160    0.044530
  H       1.613640   -1.772180    0.102350
  C      -0.398160   -1.028820    0.280960
  H      -0.818420   -1.991740    0.533560
  C      -1.195810    0.106560    0.195400
  H      -2.260690    0.049540    0.373440
  C      -0.587130    1.317410   -0.120110
  H      -1.161810    2.229500   -0.200460
  C       0.788550    1.339710   -0.332240
  H       1.288430    2.268790   -0.578530
--
0 1
  N      -0.748530   -1.698130    5.719130
  C      -1.681010   -0.737500    5.792980
  H      -2.683790   -1.068460    6.035170
  C      -1.419000    0.613570    5.583600
  H      -2.217560    1.338070    5.661870
  C      -0.119580    1.002810    5.273330
  H       0.122410    2.041810    5.097460
  C       0.859980    0.019910    5.189970
  H       1.882290    0.266660    4.941530
  C       0.497500   -1.305230    5.423160
  H       1.241370   -2.090780    5.366710
units angstrom
no_reorient
symmetry c1
}

set {
scf_type DF
basis aug-cc-pvdz
freeze_core True
guess SAD
}
energy('sapt2+')
--------------------------------------------------------------------------

  //              Dimer HF             //
    Molecular point group: c1
  Charge       = 0
  Multiplicity = 1
  Basis Set: AUG-CC-PVDZ
    Blend: AUG-CC-PVDZ
  Basis Set: (AUG-CC-PVDZ AUX)
    Blend: AUG-CC-PVDZ-JKFIT
  @DF-RHF Final Energy:  -493.44830468305810
    Total Energy =                       -493.4483046830580406
  //            Monomer A HF           //
    Molecular point group: c1
  Multiplicity = 1
  Basis Set: AUG-CC-PVDZ
    Blend: AUG-CC-PVDZ
  Basis Set: (AUG-CC-PVDZ AUX)
    Blend: AUG-CC-PVDZ-JKFIT
  @DF-RHF Final Energy:  -246.72403890464258
    Total Energy =                       -246.7240389046425548
  //            Monomer B HF           //
    Molecular point group: c1

    Geometry (in Angstrom), charge = 0, multiplicity = 1:

       Center              X                  Y                   Z               Mass
    ------------   -----------------  -----------------  -----------------  -----------------
      Gh(N)           1.692057431659     0.342036687226    -2.989322957050    14.003074004430
      Gh(C)           1.088937431659    -0.815673312774    -2.688312957050    12.000000000000
      Gh(H)           1.733217431659    -1.684693312774    -2.630492957050     1.007825032230
      Gh(C)          -0.278582568341    -0.941333312774    -2.451882957050    12.000000000000
      Gh(H)          -0.698842568341    -1.904253312774    -2.199282957050     1.007825032230
      Gh(C)          -1.076232568341     0.194046687226    -2.537442957050    12.000000000000
      Gh(H)          -2.141112568341     0.137026687226    -2.359402957050     1.007825032230
      Gh(C)          -0.467552568341     1.404896687226    -2.852952957050    12.000000000000
      Gh(H)          -1.042232568341     2.316986687226    -2.933302957050     1.007825032230
      Gh(C)           0.908127431659     1.427196687226    -3.065082957050    12.000000000000
      Gh(H)           1.408007431659     2.356276687226    -3.311372957050     1.007825032230
         N           -0.628952568341    -1.610643312774     2.986287042950    14.003074004430
         C           -1.561432568341    -0.650013312774     3.060137042950    12.000000000000
         H           -2.564212568341    -0.980973312774     3.302327042950     1.007825032230
         C           -1.299422568341     0.701056687226     2.850757042950    12.000000000000
         H           -2.097982568341     1.425556687226     2.929027042950     1.007825032230
         C           -0.000002568341     1.090296687226     2.540487042950    12.000000000000
         H            0.241987431659     2.129296687226     2.364617042950     1.007825032230
         C            0.979557431659     0.107396687226     2.457127042950    12.000000000000
         H            2.001867431659     0.354146687226     2.208687042950     1.007825032230
         C            0.617077431659    -1.217743312774     2.690317042950    12.000000000000
         H            1.360947431659    -2.003293312774     2.633867042950     1.007825032230

  Charge       = 0
  Multiplicity = 1
  Basis Set: AUG-CC-PVDZ
    Blend: AUG-CC-PVDZ
  Basis Set: (AUG-CC-PVDZ AUX)
    Blend: AUG-CC-PVDZ-JKFIT

    Orbital Energies [Eh]
    ---------------------

    Doubly Occupied:

       1A    -15.575926     2A    -11.282091     3A    -11.282018
       4A    -11.266791     5A    -11.248841     6A    -11.248789
       7A     -1.260327     8A     -1.093113     9A     -1.036422
      10A     -0.861492    11A     -0.858119    12A     -0.722984
      13A     -0.661723    14A     -0.655268    15A     -0.598928
      16A     -0.577947    17A     -0.541117    18A     -0.520112
      19A     -0.419784    20A     -0.383953    21A     -0.347735

  @DF-RHF Final Energy:  -246.72404121400652

   => Energetics <=

    Nuclear Repulsion Energy =            206.2274625537383486
    One-Electron Energy =                -741.0160540698607292
    Two-Electron Energy =                 288.0645503021157765
    Total Energy =                       -246.7240412140065473

  Dipole Moment: [D]
     X:     0.5259      Y:     2.2564      Z:    -0.3796     Total:     2.3477

    SAPT Results
  --------------------------------------------------------------------------------------------------------
    Electrostatics                 -0.28332967 [mEh]      -0.17779205 [kcal/mol]      -0.74388194 [kJ/mol]
      Elst10,r                     -0.21637801 [mEh]      -0.13577925 [kcal/mol]      -0.56810040 [kJ/mol]
      Elst12,r                     -0.06695165 [mEh]      -0.04201280 [kcal/mol]      -0.17578154 [kJ/mol]

    Exchange                        0.04657218 [mEh]       0.02922448 [kcal/mol]       0.12227524 [kJ/mol]
      Exch10                        0.04277101 [mEh]       0.02683921 [kcal/mol]       0.11229527 [kJ/mol]
      Exch10(S^2)                   0.04277072 [mEh]       0.02683903 [kcal/mol]       0.11229450 [kJ/mol]
      Exch11(S^2)                   0.00135740 [mEh]       0.00085178 [kcal/mol]       0.00356386 [kJ/mol]
      Exch12(S^2)                   0.00244377 [mEh]       0.00153349 [kcal/mol]       0.00641611 [kJ/mol]

    Induction                      -0.04460974 [mEh]      -0.02799303 [kcal/mol]      -0.11712285 [kJ/mol]
      Ind20,r                      -0.06209359 [mEh]      -0.03896432 [kcal/mol]      -0.16302670 [kJ/mol]
      Ind22                         0.00804362 [mEh]       0.00504745 [kcal/mol]       0.02111852 [kJ/mol]
      Exch-Ind20,r                  0.01309209 [mEh]       0.00821541 [kcal/mol]       0.03437328 [kJ/mol]
      Exch-Ind22                   -0.00169595 [mEh]      -0.00106423 [kcal/mol]      -0.00445272 [kJ/mol]
      delta HF,r (2)               -0.00195590 [mEh]      -0.00122735 [kcal/mol]      -0.00513523 [kJ/mol]

    Dispersion                     -1.10158427 [mEh]      -0.69125456 [kcal/mol]      -2.89220909 [kJ/mol]
      Disp20                       -1.30613934 [mEh]      -0.81961481 [kcal/mol]      -3.42926837 [kJ/mol]
      Disp21                        0.49747481 [mEh]       0.31217016 [kcal/mol]       1.30611994 [kJ/mol]
      Disp22 (SDQ)                 -0.00854620 [mEh]      -0.00536282 [kcal/mol]      -0.02243803 [kJ/mol]
      Disp22 (T)                   -0.29019291 [mEh]      -0.18209880 [kcal/mol]      -0.76190138 [kJ/mol]
      Est. Disp22 (T)              -0.29821202 [mEh]      -0.18713087 [kcal/mol]      -0.78295556 [kJ/mol]
      Exch-Disp20                   0.01383848 [mEh]       0.00868378 [kcal/mol]       0.03633293 [kJ/mol]

  Total HF                         -0.22456441 [mEh]      -0.14091629 [kcal/mol]      -0.58959377 [kJ/mol]
  Total SAPT0                      -1.51686527 [mEh]      -0.95184733 [kcal/mol]      -3.98252921 [kJ/mol]
  Total SAPT2                      -1.57366809 [mEh]      -0.98749163 [kcal/mol]      -4.13166499 [kJ/mol]
  Total SAPT2+                     -1.38295149 [mEh]      -0.86781516 [kcal/mol]      -3.63093864 [kJ/mol]

  Special recipe for scaled SAPT0 (see Manual):
    Electrostatics sSAPT0          -0.21637801 [mEh]      -0.13577925 [kcal/mol]      -0.56810040 [kJ/mol]
    Exchange sSAPT0                 0.04277101 [mEh]       0.02683921 [kcal/mol]       0.11229527 [kJ/mol]
    Induction sSAPT0               -0.05095714 [mEh]      -0.03197609 [kcal/mol]      -0.13378794 [kJ/mol]
    Dispersion sSAPT0              -1.29230057 [mEh]      -0.81093085 [kcal/mol]      -3.39293469 [kJ/mol]
  Total sSAPT0                     -1.51686471 [mEh]      -0.95184698 [kcal/mol]      -3.98252776 [kJ/mol]
  --------------------------------------------------------------------------------------------------------

*** Psi4 exiting successfully. Buy a developer a beer!
