                               Psi4 1.4a2.dev224

  ==> Input File <==

--------------------------------------------------------------------------
#Generated by lconvert.py for sapt job

memory 20 GB

molecule  {
0 1
  N       1.572480    0.254550   -0.256480
  C       0.969360   -0.903160    0.044530
  H       1.613640   -1.772180    0.102350
  C      -0.398160   -1.028820    0.280960
  H      -0.818420   -1.991740    0.533560
  C      -1.195810    0.106560    0.195400
  H      -2.260690    0.049540    0.373440
  C      -0.587130    1.317410   -0.120110
  H      -1.161810    2.229500   -0.200460
  C       0.788550    1.339710   -0.332240
  H       1.288430    2.268790   -0.578530
--
0 1
  N      -0.636620   -1.603170    4.742270
  C      -1.569090   -0.642540    4.816120
  H      -2.571880   -0.973490    5.058310
  C      -1.307090    0.708530    4.606740
  H      -2.105650    1.433030    4.685010
  C      -0.007660    1.097770    4.296470
  H       0.234320    2.136770    4.120600
  C       0.971900    0.114870    4.213110
  H       1.994200    0.361620    3.964670
  C       0.609420   -1.210270    4.446300
  H       1.353280   -1.995820    4.389850
units angstrom
no_reorient
symmetry c1
}

set {
scf_type DF
basis aug-cc-pvdz
freeze_core True
guess SAD
}
energy('sapt2+')
--------------------------------------------------------------------------

  //              Dimer HF             //
    Molecular point group: c1
  Charge       = 0
  Multiplicity = 1
  Basis Set: AUG-CC-PVDZ
    Blend: AUG-CC-PVDZ
  Basis Set: (AUG-CC-PVDZ AUX)
    Blend: AUG-CC-PVDZ-JKFIT
  @DF-RHF Final Energy:  -493.44841141976877
    Total Energy =                       -493.4484114197687177
  //            Monomer A HF           //
    Molecular point group: c1
  Multiplicity = 1
  Basis Set: AUG-CC-PVDZ
    Blend: AUG-CC-PVDZ
  Basis Set: (AUG-CC-PVDZ AUX)
    Blend: AUG-CC-PVDZ-JKFIT
  @DF-RHF Final Energy:  -246.72424662850233
    Total Energy =                       -246.7242466285023283
  //            Monomer B HF           //
    Molecular point group: c1

    Geometry (in Angstrom), charge = 0, multiplicity = 1:

       Center              X                  Y                   Z               Mass
    ------------   -----------------  -----------------  -----------------  -----------------
      Gh(N)           1.636099395306     0.294556623474    -2.500892957050    14.003074004430
      Gh(C)           1.032979395306    -0.863153376526    -2.199882957050    12.000000000000
      Gh(H)           1.677259395306    -1.732173376526    -2.142062957050     1.007825032230
      Gh(C)          -0.334540604694    -0.988813376526    -1.963452957050    12.000000000000
      Gh(H)          -0.754800604694    -1.951733376526    -1.710852957050     1.007825032230
      Gh(C)          -1.132190604694     0.146566623474    -2.049012957050    12.000000000000
      Gh(H)          -2.197070604694     0.089546623474    -1.870972957050     1.007825032230
      Gh(C)          -0.523510604694     1.357416623474    -2.364522957050    12.000000000000
      Gh(H)          -1.098190604694     2.269506623474    -2.444872957050     1.007825032230
      Gh(C)           0.852169395306     1.379716623474    -2.576652957050    12.000000000000
      Gh(H)           1.352049395306     2.308796623474    -2.822942957050     1.007825032230
         N           -0.573000604694    -1.563163376526     2.497857042950    14.003074004430
         C           -1.505470604694    -0.602533376526     2.571707042950    12.000000000000
         H           -2.508260604694    -0.933483376526     2.813897042950     1.007825032230
         C           -1.243470604694     0.748536623474     2.362327042950    12.000000000000
         H           -2.042030604694     1.473036623474     2.440597042950     1.007825032230
         C            0.055959395306     1.137776623474     2.052057042950    12.000000000000
         H            0.297939395306     2.176776623474     1.876187042950     1.007825032230
         C            1.035519395306     0.154876623474     1.968697042950    12.000000000000
         H            2.057819395306     0.401626623474     1.720257042950     1.007825032230
         C            0.673039395306    -1.170263376526     2.201887042950    12.000000000000
         H            1.416899395306    -1.955813376526     2.145437042950     1.007825032230

  Charge       = 0
  Multiplicity = 1
  Basis Set: AUG-CC-PVDZ
    Blend: AUG-CC-PVDZ
  Basis Set: (AUG-CC-PVDZ AUX)
    Blend: AUG-CC-PVDZ-JKFIT

    Orbital Energies [Eh]
    ---------------------

    Doubly Occupied:

       1A    -15.575891     2A    -11.282058     3A    -11.281973
       4A    -11.266763     5A    -11.248804     6A    -11.248751
       7A     -1.260262     8A     -1.093024     9A     -1.036347
      10A     -0.861414    11A     -0.858046    12A     -0.722901
      13A     -0.661642    14A     -0.655198    15A     -0.598850
      16A     -0.577860    17A     -0.541108    18A     -0.520037
      19A     -0.419733    20A     -0.383925    21A     -0.347704

  @DF-RHF Final Energy:  -246.72425043288092

   => Energetics <=

    Nuclear Repulsion Energy =            206.2273146509250807
    One-Electron Energy =                -741.0185491896370422
    Two-Electron Energy =                 288.0669841058310112
    Total Energy =                       -246.7242504328809218

  Dipole Moment: [D]
     X:     0.5248      Y:     2.2535      Z:    -0.3801     Total:     2.3448

    SAPT Results
  --------------------------------------------------------------------------------------------------------
    Electrostatics                 -0.71257750 [mEh]      -0.44714913 [kcal/mol]      -1.87087198 [kJ/mol]
      Elst10,r                     -0.54829532 [mEh]      -0.34406051 [kcal/mol]      -1.43954917 [kJ/mol]
      Elst12,r                     -0.16428218 [mEh]      -0.10308863 [kcal/mol]      -0.43132281 [kJ/mol]

    Exchange                        0.89134527 [mEh]       0.55932760 [kcal/mol]       2.34022668 [kJ/mol]
      Exch10                        0.84051068 [mEh]       0.52742842 [kcal/mol]       2.20676049 [kJ/mol]
      Exch10(S^2)                   0.84037924 [mEh]       0.52734594 [kcal/mol]       2.20641540 [kJ/mol]
      Exch11(S^2)                   0.03484561 [mEh]       0.02186595 [kcal/mol]       0.09148714 [kJ/mol]
      Exch12(S^2)                   0.01598897 [mEh]       0.01003323 [kcal/mol]       0.04197905 [kJ/mol]

    Induction                      -0.19907524 [mEh]      -0.12492160 [kcal/mol]      -0.52267197 [kJ/mol]
      Ind20,r                      -0.39355605 [mEh]      -0.24696015 [kcal/mol]      -1.03328127 [kJ/mol]
      Ind22                         0.02110351 [mEh]       0.01324265 [kcal/mol]       0.05540726 [kJ/mol]
      Exch-Ind20,r                  0.25371756 [mEh]       0.15921017 [kcal/mol]       0.66613537 [kJ/mol]
      Exch-Ind22                   -0.01360500 [mEh]      -0.00853727 [kcal/mol]      -0.03571993 [kJ/mol]
      delta HF,r (2)               -0.06673526 [mEh]      -0.04187701 [kcal/mol]      -0.17521339 [kJ/mol]

    Dispersion                     -3.56440762 [mEh]      -2.23669955 [kcal/mol]      -9.35835092 [kJ/mol]
      Disp20                       -4.34240879 [mEh]      -2.72490265 [kcal/mol]     -11.40099270 [kJ/mol]
      Disp21                        1.52748061 [mEh]       0.95850855 [kcal/mol]       4.01039979 [kJ/mol]
      Disp22 (SDQ)                  0.02579379 [mEh]       0.01618585 [kcal/mol]       0.06772158 [kJ/mol]
      Disp22 (T)                   -0.92607098 [mEh]      -0.58111831 [kcal/mol]      -2.43139902 [kJ/mol]
      Est. Disp22 (T)              -0.97845023 [mEh]      -0.61398679 [kcal/mol]      -2.56892072 [kJ/mol]
      Exch-Disp20                   0.20317700 [mEh]       0.12749549 [kcal/mol]       0.53344113 [kJ/mol]

  Total HF                          0.08564161 [mEh]       0.05374092 [kcal/mol]       0.22485203 [kJ/mol]
  Total SAPT0                      -4.05359018 [mEh]      -2.54366624 [kcal/mol]     -10.64269954 [kJ/mol]
  Total SAPT2                      -4.15953927 [mEh]      -2.61015030 [kcal/mol]     -10.92086884 [kJ/mol]
  Total SAPT2+                     -3.58471510 [mEh]      -2.24944268 [kcal/mol]      -9.41166819 [kJ/mol]

  Special recipe for scaled SAPT0 (see Manual):
    Electrostatics sSAPT0          -0.54829532 [mEh]      -0.34406051 [kcal/mol]      -1.43954917 [kJ/mol]
    Exchange sSAPT0                 0.84051068 [mEh]       0.52742842 [kcal/mol]       2.20676049 [kJ/mol]
    Induction sSAPT0               -0.20645468 [mEh]      -0.12955227 [kcal/mol]      -0.54204669 [kJ/mol]
    Dispersion sSAPT0              -4.13913644 [mEh]      -2.59734733 [kcal/mol]     -10.86730123 [kJ/mol]
  Total sSAPT0                     -4.05337576 [mEh]      -2.54353169 [kcal/mol]     -10.64213660 [kJ/mol]
  --------------------------------------------------------------------------------------------------------

*** Psi4 exiting successfully. Buy a developer a beer!
