                               Psi4 1.4a2.dev224

  ==> Input File <==

--------------------------------------------------------------------------
#Generated by lconvert.py for sapt job

memory 20 GB

molecule  {
0 1
  N       1.572480    0.254550   -0.256480
  C       0.969360   -0.903160    0.044530
  H       1.613640   -1.772180    0.102350
  C      -0.398160   -1.028820    0.280960
  H      -0.818420   -1.991740    0.533560
  C      -1.195810    0.106560    0.195400
  H      -2.260690    0.049540    0.373440
  C      -0.587130    1.317410   -0.120110
  H      -1.161810    2.229500   -0.200460
  C       0.788550    1.339710   -0.332240
  H       1.288430    2.268790   -0.578530
--
0 1
  N      -0.860440   -1.793090    6.695990
  C      -1.792920   -0.832460    6.769840
  H      -2.795710   -1.163420    7.012030
  C      -1.530910    0.518600    6.560460
  H      -2.329470    1.243110    6.638730
  C      -0.231490    0.907850    6.250190
  H       0.010500    1.946840    6.074320
  C       0.748070   -0.075050    6.166830
  H       1.770370    0.171690    5.918390
  C       0.385590   -1.400190    6.400020
  H       1.129450   -2.185740    6.343570
units angstrom
no_reorient
symmetry c1
}

set {
scf_type DF
basis aug-cc-pvdz
freeze_core True
guess SAD
}
energy('sapt2+')
--------------------------------------------------------------------------

  //              Dimer HF             //
    Molecular point group: c1
  Charge       = 0
  Multiplicity = 1
  Basis Set: AUG-CC-PVDZ
    Blend: AUG-CC-PVDZ
  Basis Set: (AUG-CC-PVDZ AUX)
    Blend: AUG-CC-PVDZ-JKFIT
  @DF-RHF Final Energy:  -493.44805477181967
    Total Energy =                       -493.4480547718196703
  //            Monomer A HF           //
    Molecular point group: c1
  Multiplicity = 1
  Basis Set: AUG-CC-PVDZ
    Blend: AUG-CC-PVDZ
  Basis Set: (AUG-CC-PVDZ AUX)
    Blend: AUG-CC-PVDZ-JKFIT
  @DF-RHF Final Energy:  -246.72393061470848
    Total Energy =                       -246.7239306147084790
  //            Monomer B HF           //
    Molecular point group: c1

    Geometry (in Angstrom), charge = 0, multiplicity = 1:

       Center              X                  Y                   Z               Mass
    ------------   -----------------  -----------------  -----------------  -----------------
      Gh(N)           1.748012622916     0.389517573819    -3.477752957050    14.003074004430
      Gh(C)           1.144892622916    -0.768192426181    -3.176742957050    12.000000000000
      Gh(H)           1.789172622916    -1.637212426181    -3.118922957050     1.007825032230
      Gh(C)          -0.222627377084    -0.893852426181    -2.940312957050    12.000000000000
      Gh(H)          -0.642887377084    -1.856772426181    -2.687712957050     1.007825032230
      Gh(C)          -1.020277377084     0.241527573819    -3.025872957050    12.000000000000
      Gh(H)          -2.085157377084     0.184507573819    -2.847832957050     1.007825032230
      Gh(C)          -0.411597377084     1.452377573819    -3.341382957050    12.000000000000
      Gh(H)          -0.986277377084     2.364467573819    -3.421732957050     1.007825032230
      Gh(C)           0.964082622916     1.474677573819    -3.553512957050    12.000000000000
      Gh(H)           1.463962622916     2.403757573819    -3.799802957050     1.007825032230
         N           -0.684907377084    -1.658122426181     3.474717042950    14.003074004430
         C           -1.617387377084    -0.697492426181     3.548567042950    12.000000000000
         H           -2.620177377084    -1.028452426181     3.790757042950     1.007825032230
         C           -1.355377377084     0.653567573819     3.339187042950    12.000000000000
         H           -2.153937377084     1.378077573819     3.417457042950     1.007825032230
         C           -0.055957377084     1.042817573819     3.028917042950    12.000000000000
         H            0.186032622916     2.081807573819     2.853047042950     1.007825032230
         C            0.923602622916     0.059917573819     2.945557042950    12.000000000000
         H            1.945902622916     0.306657573819     2.697117042950     1.007825032230
         C            0.561122622916    -1.265222426181     3.178747042950    12.000000000000
         H            1.304982622916    -2.050772426181     3.122297042950     1.007825032230

  Charge       = 0
  Multiplicity = 1
  Basis Set: AUG-CC-PVDZ
    Blend: AUG-CC-PVDZ
  Basis Set: (AUG-CC-PVDZ AUX)
    Blend: AUG-CC-PVDZ-JKFIT

    Orbital Energies [Eh]
    ---------------------

    Doubly Occupied:

       1A    -15.575942     2A    -11.282105     3A    -11.282030
       4A    -11.266781     5A    -11.248843     6A    -11.248789
       7A     -1.260351     8A     -1.093137     9A     -1.036446
      10A     -0.861515    11A     -0.858139    12A     -0.723011
      13A     -0.661745    14A     -0.655290    15A     -0.598955
      16A     -0.577975    17A     -0.541112    18A     -0.520132
      19A     -0.419803    20A     -0.383957    21A     -0.347749

  @DF-RHF Final Energy:  -246.72393330035177

   => Energetics <=

    Nuclear Repulsion Energy =            206.2276689406808998
    One-Electron Energy =                -741.0155944548398566
    Two-Electron Energy =                 288.0639922138071256
    Total Energy =                       -246.7239333003518027

  Dipole Moment: [D]
     X:     0.5263      Y:     2.2555      Z:    -0.3811     Total:     2.3472

    SAPT Results
  --------------------------------------------------------------------------------------------------------
    Electrostatics                 -0.19644979 [mEh]      -0.12327410 [kcal/mol]      -0.51577884 [kJ/mol]
      Elst10,r                     -0.17426677 [mEh]      -0.10935405 [kcal/mol]      -0.45753733 [kJ/mol]
      Elst12,r                     -0.02218302 [mEh]      -0.01392005 [kcal/mol]      -0.05824151 [kJ/mol]

    Exchange                        0.00217995 [mEh]       0.00136794 [kcal/mol]       0.00572345 [kJ/mol]
      Exch10                        0.00195613 [mEh]       0.00122749 [kcal/mol]       0.00513583 [kJ/mol]
      Exch10(S^2)                   0.00195613 [mEh]       0.00122749 [kcal/mol]       0.00513583 [kJ/mol]
      Exch11(S^2)                   0.00000573 [mEh]       0.00000360 [kcal/mol]       0.00001505 [kJ/mol]
      Exch12(S^2)                   0.00021809 [mEh]       0.00013685 [kcal/mol]       0.00057258 [kJ/mol]

    Induction                      -0.01587577 [mEh]      -0.00996220 [kcal/mol]      -0.04168183 [kJ/mol]
      Ind20,r                      -0.01949662 [mEh]      -0.01223431 [kcal/mol]      -0.05118837 [kJ/mol]
      Ind22                         0.00282430 [mEh]       0.00177227 [kcal/mol]       0.00741519 [kJ/mol]
      Exch-Ind20,r                  0.00106268 [mEh]       0.00066684 [kcal/mol]       0.00279006 [kJ/mol]
      Exch-Ind22                   -0.00015394 [mEh]      -0.00009660 [kcal/mol]      -0.00040417 [kJ/mol]
      delta HF,r (2)               -0.00011218 [mEh]      -0.00007040 [kcal/mol]      -0.00029454 [kJ/mol]

    Dispersion                     -0.40692935 [mEh]      -0.25535202 [kcal/mol]      -1.06839286 [kJ/mol]
      Disp20                       -0.48264244 [mEh]      -0.30286270 [kcal/mol]      -1.26717754 [kJ/mol]
      Disp21                        0.19273681 [mEh]       0.12094417 [kcal/mol]       0.50603042 [kJ/mol]
      Disp22 (SDQ)                 -0.00733138 [mEh]      -0.00460051 [kcal/mol]      -0.01924853 [kJ/mol]
      Disp22 (T)                   -0.10905469 [mEh]      -0.06843285 [kcal/mol]      -0.28632306 [kJ/mol]
      Est. Disp22 (T)              -0.11067858 [mEh]      -0.06945186 [kcal/mol]      -0.29058657 [kJ/mol]
      Exch-Disp20                   0.00098623 [mEh]       0.00061887 [kcal/mol]       0.00258936 [kJ/mol]

  Total HF                         -0.19085676 [mEh]      -0.11976442 [kcal/mol]      -0.50109435 [kJ/mol]
  Total SAPT0                      -0.67251296 [mEh]      -0.42200825 [kcal/mol]      -1.76568253 [kJ/mol]
  Total SAPT2                      -0.69180181 [mEh]      -0.43411219 [kcal/mol]      -1.81632540 [kJ/mol]
  Total SAPT2+                     -0.61707496 [mEh]      -0.38722038 [kcal/mol]      -1.62013007 [kJ/mol]

  Special recipe for scaled SAPT0 (see Manual):
    Electrostatics sSAPT0          -0.17426677 [mEh]      -0.10935405 [kcal/mol]      -0.45753733 [kJ/mol]
    Exchange sSAPT0                 0.00195613 [mEh]       0.00122749 [kcal/mol]       0.00513583 [kJ/mol]
    Induction sSAPT0               -0.01854613 [mEh]      -0.01163787 [kcal/mol]      -0.04869285 [kJ/mol]
    Dispersion sSAPT0              -0.48165620 [mEh]      -0.30224383 [kcal/mol]      -1.26458818 [kJ/mol]
  Total sSAPT0                     -0.67251296 [mEh]      -0.42200825 [kcal/mol]      -1.76568253 [kJ/mol]
  --------------------------------------------------------------------------------------------------------

*** Psi4 exiting successfully. Buy a developer a beer!
