                               Psi4 1.4a2.dev224

  ==> Input File <==

--------------------------------------------------------------------------
#Generated by lconvert.py for sapt job

memory 20 GB

molecule  {
0 1
  N       1.376900    0.839750    0.734620
  H       1.051810    1.386220    1.523360
  C       1.308980    1.457530   -0.520650
  O       0.920560    2.611080   -0.625980
  N       2.011420   -1.213210   -0.098070
  H       1.727290    0.990840   -2.612000
  C       2.025740   -0.697170   -1.364400
  H       2.297520   -1.391060   -2.145650
  C       1.714510    0.591940   -1.612490
  H       2.129450   -2.201520    0.056830
  C       1.645940   -0.485210    1.018720
  O       1.561120   -0.971820    2.129810
--
0 1
  N      -2.211420   -0.983820    0.734620
  H      -1.886340   -1.530300    1.523360
  C      -2.143510   -1.601610   -0.520650
  O      -1.755080   -2.755150   -0.625980
  N      -2.845940    1.069130   -0.098070
  H      -2.561810   -1.134920   -2.612000
  C      -2.860260    0.553100   -1.364400
  H      -3.132040    1.246980   -2.145650
  C      -2.549030   -0.736010   -1.612490
  H      -2.963980    2.057440    0.056830
  C      -2.480470    0.341130    1.018720
  O      -2.395640    0.827740    2.129810
units angstrom
no_reorient
symmetry c1
}

set {
scf_type DF
basis aug-cc-pvdz
freeze_core True
guess SAD
}
energy('sapt2+')
--------------------------------------------------------------------------

  //              Dimer HF             //
    Molecular point group: c1
  Charge       = 0
  Multiplicity = 1
  Basis Set: AUG-CC-PVDZ
    Blend: AUG-CC-PVDZ
  Basis Set: (AUG-CC-PVDZ AUX)
    Blend: AUG-CC-PVDZ-JKFIT
  @DF-RHF Final Energy:  -825.06296039130450
    Total Energy =                       -825.0629603913043866
  //            Monomer A HF           //
    Molecular point group: c1
  Multiplicity = 1
  Basis Set: AUG-CC-PVDZ
    Blend: AUG-CC-PVDZ
  Basis Set: (AUG-CC-PVDZ AUX)
    Blend: AUG-CC-PVDZ-JKFIT
  @DF-RHF Final Energy:  -412.52944248569179
    Total Energy =                       -412.5294424856917885
  //            Monomer B HF           //
    Molecular point group: c1

    Geometry (in Angstrom), charge = 0, multiplicity = 1:

       Center              X                  Y                   Z               Mass
    ------------   -----------------  -----------------  -----------------  -----------------
      Gh(N)           1.794161161130     0.911787589962     0.734449278338    14.003074004430
      Gh(H)           1.469071161130     1.458257589962     1.523189278338     1.007825032230
      Gh(C)           1.726241161130     1.529567589962    -0.520820721662    12.000000000000
      Gh(O)           1.337821161130     2.683117589962    -0.626150721662    15.994914619570
      Gh(N)           2.428681161130    -1.141172410038    -0.098240721662    14.003074004430
      Gh(H)           2.144551161130     1.062877589962    -2.612170721662     1.007825032230
      Gh(C)           2.443001161130    -0.625132410038    -1.364570721662    12.000000000000
      Gh(H)           2.714781161130    -1.319022410038    -2.145820721662     1.007825032230
      Gh(C)           2.131771161130     0.663977589962    -1.612660721662    12.000000000000
      Gh(H)           2.546711161130    -2.129482410038     0.056659278338     1.007825032230
      Gh(C)           2.063201161130    -0.413172410038     1.018549278338    12.000000000000
      Gh(O)           1.978381161130    -0.899782410038     2.129639278338    15.994914619570
         N           -1.794158838870    -0.911782410038     0.734449278338    14.003074004430
         H           -1.469078838870    -1.458262410038     1.523189278338     1.007825032230
         C           -1.726248838870    -1.529572410038    -0.520820721662    12.000000000000
         O           -1.337818838870    -2.683112410038    -0.626150721662    15.994914619570
         N           -2.428678838870     1.141167589962    -0.098240721662    14.003074004430
         H           -2.144548838870    -1.062882410038    -2.612170721662     1.007825032230
         C           -2.442998838870     0.625137589962    -1.364570721662    12.000000000000
         H           -2.714778838870     1.319017589962    -2.145820721662     1.007825032230
         C           -2.131768838870    -0.663972410038    -1.612660721662    12.000000000000
         H           -2.546718838870     2.129477589962     0.056659278338     1.007825032230
         C           -2.063208838870     0.413167589962     1.018549278338    12.000000000000
         O           -1.978378838870     0.899777589962     2.129639278338    15.994914619570

  Charge       = 0
  Multiplicity = 1
  Basis Set: AUG-CC-PVDZ
    Blend: AUG-CC-PVDZ
  Basis Set: (AUG-CC-PVDZ AUX)
    Blend: AUG-CC-PVDZ-JKFIT

    Orbital Energies [Eh]
    ---------------------

    Doubly Occupied:

       1A    -20.559458     2A    -20.552982     3A    -15.652774
       4A    -15.635788     5A    -11.429382     6A    -11.389984
       7A    -11.348171     8A    -11.262715     9A     -1.442211
      10A     -1.402463    11A     -1.318900    12A     -1.250018
      13A     -1.091881    14A     -0.937375    15A     -0.904533
      16A     -0.809482    17A     -0.767751    18A     -0.716380
      19A     -0.679777    20A     -0.670577    21A     -0.654754
      22A     -0.615777    23A     -0.602998    24A     -0.571114
      25A     -0.526383    26A     -0.484689    27A     -0.449383
      28A     -0.436546    29A     -0.368877

  @DF-RHF Final Energy:  -412.52944292313742

   => Energetics <=

    Nuclear Repulsion Energy =            357.1603571639104757
    One-Electron Energy =               -1270.3133531051098544
    Two-Electron Energy =                 500.6235530180619548
    Total Energy =                       -412.5294429231374238

  Dipole Moment: [D]
     X:    -1.4537      Y:     3.7973      Z:    -2.9991     Total:     5.0524

    SAPT Results
  --------------------------------------------------------------------------------------------------------
    Electrostatics                 -3.72807059 [mEh]      -2.33939961 [kcal/mol]      -9.78804798 [kJ/mol]
      Elst10,r                     -4.47365709 [mEh]      -2.80726221 [kcal/mol]     -11.74558507 [kJ/mol]
      Elst12,r                      0.74558650 [mEh]       0.46786259 [kcal/mol]       1.95753709 [kJ/mol]

    Exchange                        1.09419764 [mEh]       0.68661938 [kcal/mol]       2.87281550 [kJ/mol]
      Exch10                        0.91061476 [mEh]       0.57141939 [kcal/mol]       2.39081871 [kJ/mol]
      Exch10(S^2)                   0.91059658 [mEh]       0.57140798 [kcal/mol]       2.39077098 [kJ/mol]
      Exch11(S^2)                  -0.00031090 [mEh]      -0.00019509 [kcal/mol]      -0.00081627 [kJ/mol]
      Exch12(S^2)                   0.18389378 [mEh]       0.11539509 [kcal/mol]       0.48281306 [kJ/mol]

    Induction                      -0.46754062 [mEh]      -0.29338617 [kcal/mol]      -1.22752774 [kJ/mol]
      Ind20,r                      -0.64496001 [mEh]      -0.40471851 [kcal/mol]      -1.69334226 [kJ/mol]
      Ind22                         0.06403548 [mEh]       0.04018287 [kcal/mol]       0.16812514 [kJ/mol]
      Exch-Ind20,r                  0.19777180 [mEh]       0.12410368 [kcal/mol]       0.51924978 [kJ/mol]
      Exch-Ind22                   -0.01963597 [mEh]      -0.01232175 [kcal/mol]      -0.05155422 [kJ/mol]
      delta HF,r (2)               -0.06475193 [mEh]      -0.04063245 [kcal/mol]      -0.17000617 [kJ/mol]

    Dispersion                     -5.51575432 [mEh]      -3.46118809 [kcal/mol]     -14.48161097 [kJ/mol]
      Disp20                       -5.67850076 [mEh]      -3.56331302 [kcal/mol]     -14.90890168 [kJ/mol]
      Disp21                        1.68306173 [mEh]       1.05613718 [kcal/mol]       4.41887797 [kJ/mol]
      Disp22 (SDQ)                 -0.41277336 [mEh]      -0.25901920 [kcal/mol]      -1.08373632 [kJ/mol]
      Disp22 (T)                   -1.21271350 [mEh]      -0.76098921 [kcal/mol]      -3.18397885 [kJ/mol]
      Est. Disp22 (T)              -1.25706281 [mEh]      -0.78881882 [kcal/mol]      -3.30041795 [kJ/mol]
      Exch-Disp20                   0.14952088 [mEh]       0.09382577 [kcal/mol]       0.39256701 [kJ/mol]

  Total HF                         -4.07498248 [mEh]      -2.55709011 [kcal/mol]     -10.69886501 [kJ/mol]
  Total SAPT0                      -9.60396235 [mEh]      -6.02657736 [kcal/mol]     -25.21519969 [kJ/mol]
  Total SAPT2                      -8.63039345 [mEh]      -5.41565365 [kcal/mol]     -22.65909489 [kJ/mol]
  Total SAPT2+                     -8.61716789 [mEh]      -5.40735449 [kcal/mol]     -22.62437119 [kJ/mol]

  Special recipe for scaled SAPT0 (see Manual):
    Electrostatics sSAPT0          -4.47365709 [mEh]      -2.80726221 [kcal/mol]     -11.74558507 [kJ/mol]
    Exchange sSAPT0                 0.91061476 [mEh]       0.57141939 [kcal/mol]       2.39081871 [kJ/mol]
    Induction sSAPT0               -0.51192830 [mEh]      -0.32123986 [kcal/mol]      -1.34406755 [kJ/mol]
    Dispersion sSAPT0              -5.52897092 [mEh]      -3.46948163 [kcal/mol]     -14.51631116 [kJ/mol]
  Total sSAPT0                     -9.60394155 [mEh]      -6.02656431 [kcal/mol]     -25.21514507 [kJ/mol]
  --------------------------------------------------------------------------------------------------------

*** Psi4 exiting successfully. Buy a developer a beer!
