                               Psi4 1.4a2.dev224

  ==> Input File <==

--------------------------------------------------------------------------
#Generated by lconvert.py for sapt job

memory 20 GB

molecule  {
0 1
  N       1.376900    0.839750    0.734620
  H       1.051810    1.386220    1.523360
  C       1.308980    1.457530   -0.520650
  O       0.920560    2.611080   -0.625980
  N       2.011420   -1.213210   -0.098070
  H       1.727290    0.990840   -2.612000
  C       2.025740   -0.697170   -1.364400
  H       2.297520   -1.391060   -2.145650
  C       1.714510    0.591940   -1.612490
  H       2.129450   -2.201520    0.056830
  C       1.645940   -0.485210    1.018720
  O       1.561120   -0.971820    2.129810
--
0 1
  N      -3.893380   -1.274210    0.734620
  H      -3.568290   -1.820680    1.523360
  C      -3.825460   -1.891990   -0.520650
  O      -3.437040   -3.045540   -0.625980
  N      -4.527900    0.778750   -0.098070
  H      -4.243760   -1.425300   -2.612000
  C      -4.542210    0.262710   -1.364400
  H      -4.814000    0.956600   -2.145650
  C      -4.230990   -1.026400   -1.612490
  H      -4.645930    1.767060    0.056830
  C      -4.162420    0.050750    1.018720
  O      -4.077590    0.537360    2.129810
units angstrom
no_reorient
symmetry c1
}

set {
scf_type DF
basis aug-cc-pvdz
freeze_core True
guess SAD
}
energy('sapt2+')
--------------------------------------------------------------------------

  //              Dimer HF             //
    Molecular point group: c1
  Charge       = 0
  Multiplicity = 1
  Basis Set: AUG-CC-PVDZ
    Blend: AUG-CC-PVDZ
  Basis Set: (AUG-CC-PVDZ AUX)
    Blend: AUG-CC-PVDZ-JKFIT
  @DF-RHF Final Energy:  -825.05948094674636
    Total Energy =                       -825.0594809467463620
  //            Monomer A HF           //
    Molecular point group: c1
  Multiplicity = 1
  Basis Set: AUG-CC-PVDZ
    Blend: AUG-CC-PVDZ
  Basis Set: (AUG-CC-PVDZ AUX)
    Blend: AUG-CC-PVDZ-JKFIT
  @DF-RHF Final Energy:  -412.52902719472002
    Total Energy =                       -412.5290271947200154
  //            Monomer B HF           //
    Molecular point group: c1

    Geometry (in Angstrom), charge = 0, multiplicity = 1:

       Center              X                  Y                   Z               Mass
    ------------   -----------------  -----------------  -----------------  -----------------
      Gh(N)           2.635138705550     1.056980000000     0.734449278338    14.003074004430
      Gh(H)           2.310048705550     1.603450000000     1.523189278338     1.007825032230
      Gh(C)           2.567218705550     1.674760000000    -0.520820721662    12.000000000000
      Gh(O)           2.178798705550     2.828310000000    -0.626150721662    15.994914619570
      Gh(N)           3.269658705550    -0.995980000000    -0.098240721662    14.003074004430
      Gh(H)           2.985528705550     1.208070000000    -2.612170721662     1.007825032230
      Gh(C)           3.283978705550    -0.479940000000    -1.364570721662    12.000000000000
      Gh(H)           3.555758705550    -1.173830000000    -2.145820721662     1.007825032230
      Gh(C)           2.972748705550     0.809170000000    -1.612660721662    12.000000000000
      Gh(H)           3.387688705550    -1.984290000000     0.056659278338     1.007825032230
      Gh(C)           2.904178705550    -0.267980000000     1.018549278338    12.000000000000
      Gh(O)           2.819358705550    -0.754590000000     2.129639278338    15.994914619570
         N           -2.635141294450    -1.056980000000     0.734449278338    14.003074004430
         H           -2.310051294450    -1.603450000000     1.523189278338     1.007825032230
         C           -2.567221294450    -1.674760000000    -0.520820721662    12.000000000000
         O           -2.178801294450    -2.828310000000    -0.626150721662    15.994914619570
         N           -3.269661294450     0.995980000000    -0.098240721662    14.003074004430
         H           -2.985521294450    -1.208070000000    -2.612170721662     1.007825032230
         C           -3.283971294450     0.479940000000    -1.364570721662    12.000000000000
         H           -3.555761294450     1.173830000000    -2.145820721662     1.007825032230
         C           -2.972751294450    -0.809170000000    -1.612660721662    12.000000000000
         H           -3.387691294450     1.984290000000     0.056659278338     1.007825032230
         C           -2.904181294450     0.267980000000     1.018549278338    12.000000000000
         O           -2.819351294450     0.754590000000     2.129639278338    15.994914619570

  Charge       = 0
  Multiplicity = 1
  Basis Set: AUG-CC-PVDZ
    Blend: AUG-CC-PVDZ
  Basis Set: (AUG-CC-PVDZ AUX)
    Blend: AUG-CC-PVDZ-JKFIT

    Orbital Energies [Eh]
    ---------------------

    Doubly Occupied:

       1A    -20.559377     2A    -20.552907     3A    -15.652782
       4A    -15.635817     5A    -11.429434     6A    -11.390002
       7A    -11.348192     8A    -11.262714     9A     -1.442274
      10A     -1.402539    11A     -1.318964    12A     -1.250073
      13A     -1.091963    14A     -0.937437    15A     -0.904592
      16A     -0.809545    17A     -0.767821    18A     -0.716435
      19A     -0.679843    20A     -0.670608    21A     -0.654829
      22A     -0.615852    23A     -0.603075    24A     -0.571160
      25A     -0.526417    26A     -0.484757    27A     -0.449451
      28A     -0.436589    29A     -0.368899

  @DF-RHF Final Energy:  -412.52902721503801

   => Energetics <=

    Nuclear Repulsion Energy =            357.1600158833169303
    One-Electron Energy =               -1270.3093902398409227
    Two-Electron Energy =                 500.6203471414860360
    Total Energy =                       -412.5290272150380133

  Dipole Moment: [D]
     X:    -1.4495      Y:     3.7996      Z:    -2.9998     Total:     5.0534

    SAPT Results
  --------------------------------------------------------------------------------------------------------
    Electrostatics                 -1.03683700 [mEh]      -0.65062504 [kcal/mol]      -2.72221516 [kJ/mol]
      Elst10,r                     -1.34992171 [mEh]      -0.84708866 [kcal/mol]      -3.54421897 [kJ/mol]
      Elst12,r                      0.31308472 [mEh]       0.19646363 [kcal/mol]       0.82200381 [kJ/mol]

    Exchange                        0.00277028 [mEh]       0.00173837 [kcal/mol]       0.00727336 [kJ/mol]
      Exch10                        0.00231892 [mEh]       0.00145515 [kcal/mol]       0.00608833 [kJ/mol]
      Exch10(S^2)                   0.00231892 [mEh]       0.00145515 [kcal/mol]       0.00608833 [kJ/mol]
      Exch11(S^2)                  -0.00008264 [mEh]      -0.00005186 [kcal/mol]      -0.00021698 [kJ/mol]
      Exch12(S^2)                   0.00053400 [mEh]       0.00033509 [kcal/mol]       0.00140202 [kJ/mol]

    Induction                      -0.06019469 [mEh]      -0.03777274 [kcal/mol]      -0.15804114 [kJ/mol]
      Ind20,r                      -0.07745540 [mEh]      -0.04860400 [kcal/mol]      -0.20335912 [kJ/mol]
      Ind22                         0.01902479 [mEh]       0.01193824 [kcal/mol]       0.04994958 [kJ/mol]
      Exch-Ind20,r                  0.00116148 [mEh]       0.00072884 [kcal/mol]       0.00304947 [kJ/mol]
      Exch-Ind22                   -0.00028529 [mEh]      -0.00017902 [kcal/mol]      -0.00074902 [kJ/mol]
      delta HF,r (2)               -0.00264028 [mEh]      -0.00165680 [kcal/mol]      -0.00693205 [kJ/mol]

    Dispersion                     -0.76209291 [mEh]      -0.47822052 [kcal/mol]      -2.00087466 [kJ/mol]
      Disp20                       -0.78905972 [mEh]      -0.49514245 [kcal/mol]      -2.07167602 [kJ/mol]
      Disp21                        0.26152505 [mEh]       0.16410945 [kcal/mol]       0.68663392 [kJ/mol]
      Disp22 (SDQ)                 -0.05593443 [mEh]      -0.03509939 [kcal/mol]      -0.14685583 [kJ/mol]
      Disp22 (T)                   -0.17752127 [mEh]      -0.11139628 [kcal/mol]      -0.46608202 [kJ/mol]
      Est. Disp22 (T)              -0.17928846 [mEh]      -0.11250521 [kcal/mol]      -0.47072179 [kJ/mol]
      Exch-Disp20                   0.00066466 [mEh]       0.00041708 [kcal/mol]       0.00174506 [kJ/mol]

  Total HF                         -1.42653699 [mEh]      -0.89516547 [kcal/mol]      -3.74537235 [kJ/mol]
  Total SAPT0                      -2.21493205 [mEh]      -1.38989085 [kcal/mol]      -5.81530331 [kJ/mol]
  Total SAPT2                      -1.88265648 [mEh]      -1.18138478 [kcal/mol]      -4.94291391 [kJ/mol]
  Total SAPT2+                     -1.85635432 [mEh]      -1.16487992 [kcal/mol]      -4.87385760 [kJ/mol]

  Special recipe for scaled SAPT0 (see Manual):
    Electrostatics sSAPT0          -1.34992171 [mEh]      -0.84708866 [kcal/mol]      -3.54421897 [kJ/mol]
    Exchange sSAPT0                 0.00231892 [mEh]       0.00145515 [kcal/mol]       0.00608833 [kJ/mol]
    Induction sSAPT0               -0.07893420 [mEh]      -0.04953196 [kcal/mol]      -0.20724170 [kJ/mol]
    Dispersion sSAPT0              -0.78839507 [mEh]      -0.49472537 [kcal/mol]      -2.06993096 [kJ/mol]
  Total sSAPT0                     -2.21493205 [mEh]      -1.38989085 [kcal/mol]      -5.81530331 [kJ/mol]
  --------------------------------------------------------------------------------------------------------

*** Psi4 exiting successfully. Buy a developer a beer!
