                               Psi4 1.4a2.dev224

  ==> Input File <==

--------------------------------------------------------------------------
#Generated by lconvert.py for sapt job

memory 20 GB

molecule  {
0 1
  N       1.376900    0.839750    0.734620
  H       1.051810    1.386220    1.523360
  C       1.308980    1.457530   -0.520650
  O       0.920560    2.611080   -0.625980
  N       2.011420   -1.213210   -0.098070
  H       1.727290    0.990840   -2.612000
  C       2.025740   -0.697170   -1.364400
  H       2.297520   -1.391060   -2.145650
  C       1.714510    0.591940   -1.612490
  H       2.129450   -2.201520    0.056830
  C       1.645940   -0.485210    1.018720
  O       1.561120   -0.971820    2.129810
--
0 1
  N      -3.052400   -1.129020    0.734620
  H      -2.727310   -1.675490    1.523360
  C      -2.984480   -1.746800   -0.520650
  O      -2.596060   -2.900350   -0.625980
  N      -3.686920    0.923940   -0.098070
  H      -3.402790   -1.280110   -2.612000
  C      -3.701240    0.407900   -1.364400
  H      -3.973020    1.101790   -2.145650
  C      -3.390010   -0.881210   -1.612490
  H      -3.804960    1.912250    0.056830
  C      -3.321450    0.195940    1.018720
  O      -3.236620    0.682550    2.129810
units angstrom
no_reorient
symmetry c1
}

set {
scf_type DF
basis aug-cc-pvdz
freeze_core True
guess SAD
}
energy('sapt2+')
--------------------------------------------------------------------------

  //              Dimer HF             //
    Molecular point group: c1
  Charge       = 0
  Multiplicity = 1
  Basis Set: AUG-CC-PVDZ
    Blend: AUG-CC-PVDZ
  Basis Set: (AUG-CC-PVDZ AUX)
    Blend: AUG-CC-PVDZ-JKFIT
  @DF-RHF Final Energy:  -825.06071738112837
    Total Energy =                       -825.0607173811283701
  //            Monomer A HF           //
    Molecular point group: c1
  Multiplicity = 1
  Basis Set: AUG-CC-PVDZ
    Blend: AUG-CC-PVDZ
  Basis Set: (AUG-CC-PVDZ AUX)
    Blend: AUG-CC-PVDZ-JKFIT
  @DF-RHF Final Energy:  -412.52915100633089
    Total Energy =                       -412.5291510063308920
  //            Monomer B HF           //
    Molecular point group: c1

    Geometry (in Angstrom), charge = 0, multiplicity = 1:

       Center              X                  Y                   Z               Mass
    ------------   -----------------  -----------------  -----------------  -----------------
      Gh(N)           2.214650580565     0.984385000000     0.734449278338    14.003074004430
      Gh(H)           1.889560580565     1.530855000000     1.523189278338     1.007825032230
      Gh(C)           2.146730580565     1.602165000000    -0.520820721662    12.000000000000
      Gh(O)           1.758310580565     2.755715000000    -0.626150721662    15.994914619570
      Gh(N)           2.849170580565    -1.068575000000    -0.098240721662    14.003074004430
      Gh(H)           2.565040580565     1.135475000000    -2.612170721662     1.007825032230
      Gh(C)           2.863490580565    -0.552535000000    -1.364570721662    12.000000000000
      Gh(H)           3.135270580565    -1.246425000000    -2.145820721662     1.007825032230
      Gh(C)           2.552260580565     0.736575000000    -1.612660721662    12.000000000000
      Gh(H)           2.967200580565    -2.056885000000     0.056659278338     1.007825032230
      Gh(C)           2.483690580565    -0.340575000000     1.018549278338    12.000000000000
      Gh(O)           2.398870580565    -0.827185000000     2.129639278338    15.994914619570
         N           -2.214649419435    -0.984385000000     0.734449278338    14.003074004430
         H           -1.889559419435    -1.530855000000     1.523189278338     1.007825032230
         C           -2.146729419435    -1.602165000000    -0.520820721662    12.000000000000
         O           -1.758309419435    -2.755715000000    -0.626150721662    15.994914619570
         N           -2.849169419435     1.068575000000    -0.098240721662    14.003074004430
         H           -2.565039419435    -1.135475000000    -2.612170721662     1.007825032230
         C           -2.863489419435     0.552535000000    -1.364570721662    12.000000000000
         H           -3.135269419435     1.246425000000    -2.145820721662     1.007825032230
         C           -2.552259419435    -0.736575000000    -1.612660721662    12.000000000000
         H           -2.967209419435     2.056885000000     0.056659278338     1.007825032230
         C           -2.483699419435     0.340575000000     1.018549278338    12.000000000000
         O           -2.398869419435     0.827185000000     2.129639278338    15.994914619570

  Charge       = 0
  Multiplicity = 1
  Basis Set: AUG-CC-PVDZ
    Blend: AUG-CC-PVDZ
  Basis Set: (AUG-CC-PVDZ AUX)
    Blend: AUG-CC-PVDZ-JKFIT

    Orbital Energies [Eh]
    ---------------------

    Doubly Occupied:

       1A    -20.559384     2A    -20.552913     3A    -15.652774
       4A    -15.635803     5A    -11.429426     6A    -11.390002
       7A    -11.348189     8A    -11.262713     9A     -1.442255
      10A     -1.402515    11A     -1.318940    12A     -1.250050
      13A     -1.091935    14A     -0.937414    15A     -0.904569
      16A     -0.809521    17A     -0.767797    18A     -0.716415
      19A     -0.679822    20A     -0.670598    21A     -0.654807
      22A     -0.615828    23A     -0.603050    24A     -0.571144
      25A     -0.526399    26A     -0.484738    27A     -0.449430
      28A     -0.436571    29A     -0.368895

  @DF-RHF Final Energy:  -412.52915093105730

   => Energetics <=

    Nuclear Repulsion Energy =            357.1599651543115783
    One-Electron Energy =               -1270.3104389481459293
    Two-Electron Energy =                 500.6213228627771059
    Total Energy =                       -412.5291509310573019

  Dipole Moment: [D]
     X:    -1.4506      Y:     3.7984      Z:    -3.0006     Total:     5.0533

    SAPT Results
  --------------------------------------------------------------------------------------------------------
    Electrostatics                 -1.78644206 [mEh]      -1.12100931 [kcal/mol]      -4.69030297 [kJ/mol]
      Elst10,r                     -2.28152255 [mEh]      -1.43167702 [kcal/mol]      -5.99013664 [kJ/mol]
      Elst12,r                      0.49508050 [mEh]       0.31066770 [kcal/mol]       1.29983367 [kJ/mol]

    Exchange                        0.05386462 [mEh]       0.03380056 [kcal/mol]       0.14142154 [kJ/mol]
      Exch10                        0.04269654 [mEh]       0.02679249 [kcal/mol]       0.11209976 [kJ/mol]
      Exch10(S^2)                   0.04269665 [mEh]       0.02679255 [kcal/mol]       0.11210004 [kJ/mol]
      Exch11(S^2)                  -0.00075515 [mEh]      -0.00047386 [kcal/mol]      -0.00198264 [kJ/mol]
      Exch12(S^2)                   0.01192322 [mEh]       0.00748193 [kcal/mol]       0.03130441 [kJ/mol]

    Induction                      -0.13645217 [mEh]      -0.08562503 [kcal/mol]      -0.35825511 [kJ/mol]
      Ind20,r                      -0.17677940 [mEh]      -0.11093075 [kcal/mol]      -0.46413426 [kJ/mol]
      Ind22                         0.04266903 [mEh]       0.02677522 [kcal/mol]       0.11202752 [kJ/mol]
      Exch-Ind20,r                  0.01037195 [mEh]       0.00650850 [kcal/mol]       0.02723156 [kJ/mol]
      Exch-Ind22                   -0.00250347 [mEh]      -0.00157095 [kcal/mol]      -0.00657285 [kJ/mol]
      delta HF,r (2)               -0.01021028 [mEh]      -0.00640705 [kcal/mol]      -0.02680709 [kJ/mol]

    Dispersion                     -1.88408379 [mEh]      -1.18228043 [kcal/mol]      -4.94666132 [kJ/mol]
      Disp20                       -1.93544870 [mEh]      -1.21451239 [kcal/mol]      -5.08151985 [kJ/mol]
      Disp21                        0.61931726 [mEh]       0.38862745 [kcal/mol]       1.62601725 [kJ/mol]
      Disp22 (SDQ)                 -0.14136679 [mEh]      -0.08870900 [kcal/mol]      -0.37115845 [kJ/mol]
      Disp22 (T)                   -0.42809043 [mEh]      -0.26863080 [kcal/mol]      -1.12395127 [kJ/mol]
      Est. Disp22 (T)              -0.43616891 [mEh]      -0.27370012 [kcal/mol]      -1.14516130 [kJ/mol]
      Exch-Disp20                   0.00958333 [mEh]       0.00601363 [kcal/mol]       0.02516104 [kJ/mol]

  Total HF                         -2.41544374 [mEh]      -1.51571383 [kcal/mol]      -6.34174667 [kJ/mol]
  Total SAPT0                      -4.34130910 [mEh]      -2.72421259 [kcal/mol]     -11.39810548 [kJ/mol]
  Total SAPT2                      -3.79489497 [mEh]      -2.38133254 [kcal/mol]      -9.96349537 [kJ/mol]
  Total SAPT2+                     -3.75311340 [mEh]      -2.35511421 [kcal/mol]      -9.85379787 [kJ/mol]

  Special recipe for scaled SAPT0 (see Manual):
    Electrostatics sSAPT0          -2.28152255 [mEh]      -1.43167702 [kcal/mol]      -5.99013664 [kJ/mol]
    Exchange sSAPT0                 0.04269654 [mEh]       0.02679249 [kcal/mol]       0.11209976 [kJ/mol]
    Induction sSAPT0               -0.17661781 [mEh]      -0.11082935 [kcal/mol]      -0.46370999 [kJ/mol]
    Dispersion sSAPT0              -1.92586544 [mEh]      -1.20849881 [kcal/mol]      -5.05635901 [kJ/mol]
  Total sSAPT0                     -4.34130926 [mEh]      -2.72421269 [kcal/mol]     -11.39810588 [kJ/mol]
  --------------------------------------------------------------------------------------------------------

*** Psi4 exiting successfully. Buy a developer a beer!
