                               Psi4 1.4a2.dev224

  ==> Input File <==

--------------------------------------------------------------------------
#Generated by lconvert.py for sapt job

memory 20 GB

molecule  {
0 1
  C       0.818750    0.864170    0.188290
  H       1.466110    1.716670    0.344720
  C       1.369000   -0.390520   -0.066700
  H       2.443040   -0.511860   -0.110570
  C       0.534380   -1.488490   -0.271890
  H       0.960850   -2.461560   -0.475510
  C      -0.849120   -1.330510   -0.219900
  H      -1.497070   -2.181860   -0.379550
  C      -1.399490   -0.076030    0.040430
  H      -2.472690    0.044910    0.093380
  C      -0.565290    1.021400    0.242280
  H      -0.992560    1.993660    0.446260
--
0 1
  N      -2.658420    0.289400    4.466130
  C      -2.043530    1.447070    4.746200
  H      -2.691140    2.300240    4.908710
  C      -0.661320    1.587920    4.836370
  H      -0.229470    2.551570    5.067580
  C       0.139630    0.470940    4.622150
  H       1.217200    0.541320    4.676990
  C      -0.480920   -0.737720    4.328490
  H       0.094850   -1.633340    4.144420
  C      -1.871430   -0.775750    4.263040
  H      -2.380290   -1.704210    4.034200
units angstrom
no_reorient
symmetry c1
}

set {
scf_type DF
basis aug-cc-pvdz
freeze_core True
guess SAD
}
energy('sapt2+')
--------------------------------------------------------------------------

  //              Dimer HF             //
    Molecular point group: c1
  Charge       = 0
  Multiplicity = 1
  Basis Set: AUG-CC-PVDZ
    Blend: AUG-CC-PVDZ
  Basis Set: (AUG-CC-PVDZ AUX)
    Blend: AUG-CC-PVDZ-JKFIT
  @DF-RHF Final Energy:  -477.45213032985748
    Total Energy =                       -477.4521303298574821
  //            Monomer A HF           //
    Molecular point group: c1
  Multiplicity = 1
  Basis Set: AUG-CC-PVDZ
    Blend: AUG-CC-PVDZ
  Basis Set: (AUG-CC-PVDZ AUX)
    Blend: AUG-CC-PVDZ-JKFIT
  @DF-RHF Final Energy:  -230.72837377850786
    Total Energy =                       -230.7283737785078870
  //            Monomer B HF           //
    Molecular point group: c1

    Geometry (in Angstrom), charge = 0, multiplicity = 1:

       Center              X                  Y                   Z               Mass
    ------------   -----------------  -----------------  -----------------  -----------------
      Gh(C)           1.464569508831     0.788907518239    -2.090500895343    12.000000000000
      Gh(H)           2.111929508831     1.641407518239    -1.934070895343     1.007825032230
      Gh(C)           2.014819508831    -0.465782481761    -2.345490895343    12.000000000000
      Gh(H)           3.088859508831    -0.587122481761    -2.389360895343     1.007825032230
      Gh(C)           1.180199508831    -1.563752481761    -2.550680895343    12.000000000000
      Gh(H)           1.606669508831    -2.536822481761    -2.754300895343     1.007825032230
      Gh(C)          -0.203300491169    -1.405772481761    -2.498690895343    12.000000000000
      Gh(H)          -0.851250491169    -2.257122481761    -2.658340895343     1.007825032230
      Gh(C)          -0.753670491169    -0.151292481761    -2.238360895343    12.000000000000
      Gh(H)          -1.826870491169    -0.030352481761    -2.185410895343     1.007825032230
      Gh(C)           0.080529508831     0.946137518239    -2.036510895343    12.000000000000
      Gh(H)          -0.346740491169     1.918397518239    -1.832530895343     1.007825032230
         N           -2.012600491169     0.214137518239     2.187339104657    14.003074004430
         C           -1.397710491169     1.371807518239     2.467409104657    12.000000000000
         H           -2.045320491169     2.224977518239     2.629919104657     1.007825032230
         C           -0.015500491169     1.512657518239     2.557579104657    12.000000000000
         H            0.416349508831     2.476307518239     2.788789104657     1.007825032230
         C            0.785449508831     0.395677518239     2.343359104657    12.000000000000
         H            1.863019508831     0.466057518239     2.398199104657     1.007825032230
         C            0.164899508831    -0.812982481761     2.049699104657    12.000000000000
         H            0.740669508831    -1.708602481761     1.865629104657     1.007825032230
         C           -1.225610491169    -0.851012481761     1.984249104657    12.000000000000
         H           -1.734470491169    -1.779472481761     1.755409104657     1.007825032230

  Charge       = 0
  Multiplicity = 1
  Basis Set: AUG-CC-PVDZ
    Blend: AUG-CC-PVDZ
  Basis Set: (AUG-CC-PVDZ AUX)
    Blend: AUG-CC-PVDZ-JKFIT

    Orbital Energies [Eh]
    ---------------------

    Doubly Occupied:

       1A    -15.575855     2A    -11.281967     3A    -11.281905
       4A    -11.266682     5A    -11.248742     6A    -11.248617
       7A     -1.260372     8A     -1.093150     9A     -1.036473
      10A     -0.861504    11A     -0.858088    12A     -0.722992
      13A     -0.661757    14A     -0.655178    15A     -0.598924
      16A     -0.577863    17A     -0.541193    18A     -0.520055
      19A     -0.419743    20A     -0.383968    21A     -0.347784

  @DF-RHF Final Energy:  -246.72422129558839

   => Energetics <=

    Nuclear Repulsion Energy =            206.2595906863072059
    One-Electron Energy =                -741.0820024719386083
    Two-Electron Energy =                 288.0981904900430095
    Total Energy =                       -246.7242212955883929

  Dipole Moment: [D]
     X:     2.3374      Y:     0.1548      Z:     0.1194     Total:     2.3456

    SAPT Results
  --------------------------------------------------------------------------------------------------------
    Electrostatics                 -0.18706515 [mEh]      -0.11738516 [kcal/mol]      -0.49113950 [kJ/mol]
      Elst10,r                      0.01205763 [mEh]       0.00756628 [kcal/mol]       0.03165731 [kJ/mol]
      Elst12,r                     -0.19912279 [mEh]      -0.12495144 [kcal/mol]      -0.52279680 [kJ/mol]

    Exchange                        0.69673416 [mEh]       0.43720729 [kcal/mol]       1.82927528 [kJ/mol]
      Exch10                        0.64937606 [mEh]       0.40748963 [kcal/mol]       1.70493660 [kJ/mol]
      Exch10(S^2)                   0.64930661 [mEh]       0.40744605 [kcal/mol]       1.70475428 [kJ/mol]
      Exch11(S^2)                   0.02729210 [mEh]       0.01712605 [kcal/mol]       0.07165540 [kJ/mol]
      Exch12(S^2)                   0.02006600 [mEh]       0.01259161 [kcal/mol]       0.05268329 [kJ/mol]

    Induction                      -0.18714324 [mEh]      -0.11743416 [kcal/mol]      -0.49134452 [kJ/mol]
      Ind20,r                      -0.34475573 [mEh]      -0.21633749 [kcal/mol]      -0.90515605 [kJ/mol]
      Ind22                         0.02173666 [mEh]       0.01363996 [kcal/mol]       0.05706959 [kJ/mol]
      Exch-Ind20,r                  0.19334751 [mEh]       0.12132739 [kcal/mol]       0.50763381 [kJ/mol]
      Exch-Ind22                   -0.01219045 [mEh]      -0.00764962 [kcal/mol]      -0.03200603 [kJ/mol]
      delta HF,r (2)               -0.04528122 [mEh]      -0.02841440 [kcal/mol]      -0.11888583 [kJ/mol]

    Dispersion                     -3.17730227 [mEh]      -1.99378727 [kcal/mol]      -8.34200596 [kJ/mol]
      Disp20                       -3.88104146 [mEh]      -2.43539028 [kcal/mol]     -10.18967295 [kJ/mol]
      Disp21                        1.36334758 [mEh]       0.85551352 [kcal/mol]       3.57946857 [kJ/mol]
      Disp22 (SDQ)                  0.03882857 [mEh]       0.02436530 [kcal/mol]       0.10194441 [kJ/mol]
      Disp22 (T)                   -0.82449572 [mEh]      -0.51737888 [kcal/mol]      -2.16471322 [kJ/mol]
      Est. Disp22 (T)              -0.86750837 [mEh]      -0.54436972 [kcal/mol]      -2.27764291 [kJ/mol]
      Exch-Disp20                   0.16907141 [mEh]       0.10609391 [kcal/mol]       0.44389692 [kJ/mol]

  Total HF                          0.46474424 [mEh]       0.29163141 [kcal/mol]       1.22018583 [kJ/mol]
  Total SAPT0                      -3.24722581 [mEh]      -2.03766496 [kcal/mol]      -8.52559019 [kJ/mol]
  Total SAPT2                      -3.38944429 [mEh]      -2.12690840 [kcal/mol]      -8.89898476 [kJ/mol]
  Total SAPT2+                     -2.85477651 [mEh]      -1.79139931 [kcal/mol]      -7.49521469 [kJ/mol]

  Special recipe for scaled SAPT0 (see Manual):
    Electrostatics sSAPT0           0.01205763 [mEh]       0.00756628 [kcal/mol]       0.03165731 [kJ/mol]
    Exchange sSAPT0                 0.64937606 [mEh]       0.40748963 [kcal/mol]       1.70493660 [kJ/mol]
    Induction sSAPT0               -0.19662741 [mEh]      -0.12338556 [kcal/mol]      -0.51624519 [kJ/mol]
    Dispersion sSAPT0              -3.71191580 [mEh]      -2.32926233 [kcal/mol]      -9.74563359 [kJ/mol]
  Total sSAPT0                     -3.24710952 [mEh]      -2.03759198 [kcal/mol]      -8.52528486 [kJ/mol]
  --------------------------------------------------------------------------------------------------------

*** Psi4 exiting successfully. Buy a developer a beer!
