                               Psi4 1.4a2.dev224

  ==> Input File <==

--------------------------------------------------------------------------
#Generated by lconvert.py for sapt job

memory 20 GB

molecule  {
0 1
  C       0.818750    0.864170    0.188290
  H       1.466110    1.716670    0.344720
  C       1.369000   -0.390520   -0.066700
  H       2.443040   -0.511860   -0.110570
  C       0.534380   -1.488490   -0.271890
  H       0.960850   -2.461560   -0.475510
  C      -0.849120   -1.330510   -0.219900
  H      -1.497070   -2.181860   -0.379550
  C      -1.399490   -0.076030    0.040430
  H      -2.472690    0.044910    0.093380
  C      -0.565290    1.021400    0.242280
  H      -0.992560    1.993660    0.446260
--
0 1
  N      -2.944490    0.429430    5.506720
  C      -2.329600    1.587100    5.786780
  H      -2.977210    2.440270    5.949300
  C      -0.947390    1.727950    5.876950
  H      -0.515540    2.691600    6.108170
  C      -0.146440    0.610970    5.662740
  H       0.931130    0.681350    5.717580
  C      -0.766990   -0.597690    5.369080
  H      -0.191210   -1.493310    5.185010
  C      -2.157500   -0.635730    5.303630
  H      -2.666350   -1.564180    5.074790
units angstrom
no_reorient
symmetry c1
}

set {
scf_type DF
basis aug-cc-pvdz
freeze_core True
guess SAD
}
energy('sapt2+')
--------------------------------------------------------------------------

  //              Dimer HF             //
    Molecular point group: c1
  Charge       = 0
  Multiplicity = 1
  Basis Set: AUG-CC-PVDZ
    Blend: AUG-CC-PVDZ
  Basis Set: (AUG-CC-PVDZ AUX)
    Blend: AUG-CC-PVDZ-JKFIT
  @DF-RHF Final Energy:  -477.45209237269432
    Total Energy =                       -477.4520923726943238
  //            Monomer A HF           //
    Molecular point group: c1
  Multiplicity = 1
  Basis Set: AUG-CC-PVDZ
    Blend: AUG-CC-PVDZ
  Basis Set: (AUG-CC-PVDZ AUX)
    Blend: AUG-CC-PVDZ-JKFIT
  @DF-RHF Final Energy:  -230.72810345430506
    Total Energy =                       -230.7281034543050282
  //            Monomer B HF           //
    Molecular point group: c1

    Geometry (in Angstrom), charge = 0, multiplicity = 1:

       Center              X                  Y                   Z               Mass
    ------------   -----------------  -----------------  -----------------  -----------------
      Gh(C)           1.608510588473     0.718449697350    -2.614090731849    12.000000000000
      Gh(H)           2.255870588473     1.570949697350    -2.457660731849     1.007825032230
      Gh(C)           2.158760588473    -0.536240302650    -2.869080731849    12.000000000000
      Gh(H)           3.232800588473    -0.657580302650    -2.912950731849     1.007825032230
      Gh(C)           1.324140588473    -1.634210302650    -3.074270731849    12.000000000000
      Gh(H)           1.750610588473    -2.607280302650    -3.277890731849     1.007825032230
      Gh(C)          -0.059359411527    -1.476230302650    -3.022280731849    12.000000000000
      Gh(H)          -0.707309411527    -2.327580302650    -3.181930731849     1.007825032230
      Gh(C)          -0.609729411527    -0.221750302650    -2.761950731849    12.000000000000
      Gh(H)          -1.682929411527    -0.100810302650    -2.709000731849     1.007825032230
      Gh(C)           0.224470588473     0.875679697350    -2.560100731849    12.000000000000
      Gh(H)          -0.202799411527     1.847939697350    -2.356120731849     1.007825032230
         N           -2.154729411527     0.283709697350     2.704339268151    14.003074004430
         C           -1.539839411527     1.441379697350     2.984399268151    12.000000000000
         H           -2.187449411527     2.294549697350     3.146919268151     1.007825032230
         C           -0.157629411527     1.582229697350     3.074569268151    12.000000000000
         H            0.274220588473     2.545879697350     3.305789268151     1.007825032230
         C            0.643320588473     0.465249697350     2.860359268151    12.000000000000
         H            1.720890588473     0.535629697350     2.915199268151     1.007825032230
         C            0.022770588473    -0.743410302650     2.566699268151    12.000000000000
         H            0.598550588473    -1.639030302650     2.382629268151     1.007825032230
         C           -1.367739411527    -0.781450302650     2.501249268151    12.000000000000
         H           -1.876589411527    -1.709900302650     2.272409268151     1.007825032230

  Charge       = 0
  Multiplicity = 1
  Basis Set: AUG-CC-PVDZ
    Blend: AUG-CC-PVDZ
  Basis Set: (AUG-CC-PVDZ AUX)
    Blend: AUG-CC-PVDZ-JKFIT

    Orbital Energies [Eh]
    ---------------------

    Doubly Occupied:

       1A    -15.575884     2A    -11.282008     3A    -11.281945
       4A    -11.266703     5A    -11.248779     6A    -11.248645
       7A     -1.260428     8A     -1.093227     9A     -1.036539
      10A     -0.861573    11A     -0.858150    12A     -0.723065
      13A     -0.661826    14A     -0.655241    15A     -0.598995
      16A     -0.577940    17A     -0.541202    18A     -0.520121
      19A     -0.419787    20A     -0.383986    21A     -0.347812

  @DF-RHF Final Energy:  -246.72403484456177

   => Energetics <=

    Nuclear Repulsion Energy =            206.2594948974557099
    One-Electron Energy =                -741.0793483320189807
    Two-Electron Energy =                 288.0958185900014428
    Total Energy =                       -246.7240348445617997

  Dipole Moment: [D]
     X:     2.3399      Y:     0.1533      Z:     0.1194     Total:     2.3480

    SAPT Results
  --------------------------------------------------------------------------------------------------------
    Electrostatics                 -0.01510203 [mEh]      -0.00947667 [kcal/mol]      -0.03965038 [kJ/mol]
      Elst10,r                      0.06708795 [mEh]       0.04209833 [kcal/mol]       0.17613940 [kJ/mol]
      Elst12,r                     -0.08218999 [mEh]      -0.05157499 [kcal/mol]      -0.21578978 [kJ/mol]

    Exchange                        0.02748767 [mEh]       0.01724878 [kcal/mol]       0.07216888 [kJ/mol]
      Exch10                        0.02472105 [mEh]       0.01551269 [kcal/mol]       0.06490511 [kJ/mol]
      Exch10(S^2)                   0.02472097 [mEh]       0.01551265 [kcal/mol]       0.06490491 [kJ/mol]
      Exch11(S^2)                   0.00070463 [mEh]       0.00044216 [kcal/mol]       0.00185001 [kJ/mol]
      Exch12(S^2)                   0.00206199 [mEh]       0.00129392 [kcal/mol]       0.00541375 [kJ/mol]

    Induction                      -0.03964349 [mEh]      -0.02487667 [kcal/mol]      -0.10408397 [kJ/mol]
      Ind20,r                      -0.05471455 [mEh]      -0.03433390 [kcal/mol]      -0.14365303 [kJ/mol]
      Ind22                         0.00740796 [mEh]       0.00464857 [kcal/mol]       0.01944960 [kJ/mol]
      Exch-Ind20,r                  0.00863132 [mEh]       0.00541623 [kcal/mol]       0.02266152 [kJ/mol]
      Exch-Ind22                   -0.00116862 [mEh]      -0.00073332 [kcal/mol]      -0.00306821 [kJ/mol]
      delta HF,r (2)                0.00020040 [mEh]       0.00012575 [kcal/mol]       0.00052615 [kJ/mol]

    Dispersion                     -0.90630990 [mEh]      -0.56871805 [kcal/mol]      -2.37951631 [kJ/mol]
      Disp20                       -1.08106902 [mEh]      -0.67838105 [kcal/mol]      -2.83834633 [kJ/mol]
      Disp21                        0.41236043 [mEh]       0.25876008 [kcal/mol]       1.08265216 [kJ/mol]
      Disp22 (SDQ)                 -0.00190963 [mEh]      -0.00119831 [kcal/mol]      -0.00501374 [kJ/mol]
      Disp22 (T)                   -0.23940845 [mEh]      -0.15023107 [kcal/mol]      -0.62856679 [kJ/mol]
      Est. Disp22 (T)              -0.24491684 [mEh]      -0.15368763 [kcal/mol]      -0.64302906 [kJ/mol]
      Exch-Disp20                   0.00922516 [mEh]       0.00578888 [kcal/mol]       0.02422066 [kJ/mol]

  Total HF                          0.04592617 [mEh]       0.02881911 [kcal/mol]       0.12057915 [kJ/mol]
  Total SAPT0                      -1.02591769 [mEh]      -0.64377307 [kcal/mol]      -2.69354652 [kJ/mol]
  Total SAPT2                      -1.09910171 [mEh]      -0.68969674 [kcal/mol]      -2.88569114 [kJ/mol]
  Total SAPT2+                     -0.93356775 [mEh]      -0.58582261 [kcal/mol]      -2.45108179 [kJ/mol]

  Special recipe for scaled SAPT0 (see Manual):
    Electrostatics sSAPT0           0.06708795 [mEh]       0.04209833 [kcal/mol]       0.17613940 [kJ/mol]
    Exchange sSAPT0                 0.02472105 [mEh]       0.01551269 [kcal/mol]       0.06490511 [kJ/mol]
    Induction sSAPT0               -0.04588275 [mEh]      -0.02879186 [kcal/mol]      -0.12046515 [kJ/mol]
    Dispersion sSAPT0              -1.07184377 [mEh]      -0.67259212 [kcal/mol]      -2.81412544 [kJ/mol]
  Total sSAPT0                     -1.02591752 [mEh]      -0.64377296 [kcal/mol]      -2.69354607 [kJ/mol]
  --------------------------------------------------------------------------------------------------------

*** Psi4 exiting successfully. Buy a developer a beer!
