                               Psi4 1.4a2.dev224

  ==> Input File <==

--------------------------------------------------------------------------
#Generated by lconvert.py for sapt job

memory 20 GB

molecule  {
0 1
  C       0.818750    0.864170    0.188290
  H       1.466110    1.716670    0.344720
  C       1.369000   -0.390520   -0.066700
  H       2.443040   -0.511860   -0.110570
  C       0.534380   -1.488490   -0.271890
  H       0.960850   -2.461560   -0.475510
  C      -0.849120   -1.330510   -0.219900
  H      -1.497070   -2.181860   -0.379550
  C      -1.399490   -0.076030    0.040430
  H      -2.472690    0.044910    0.093380
  C      -0.565290    1.021400    0.242280
  H      -0.992560    1.993660    0.446260
--
0 1
  N      -3.230560    0.569460    6.547310
  C      -2.615670    1.727130    6.827370
  H      -3.263270    2.580300    6.989890
  C      -1.233450    1.867970    6.917540
  H      -0.801610    2.831620    7.148760
  C      -0.432500    0.750990    6.703330
  H       0.645070    0.821380    6.758160
  C      -1.053060   -0.457660    6.409670
  H      -0.477280   -1.353280    6.225600
  C      -2.443570   -0.495700    6.344220
  H      -2.952420   -1.424150    6.115380
units angstrom
no_reorient
symmetry c1
}

set {
scf_type DF
basis aug-cc-pvdz
freeze_core True
guess SAD
}
energy('sapt2+')
--------------------------------------------------------------------------

  //              Dimer HF             //
    Molecular point group: c1
  Charge       = 0
  Multiplicity = 1
  Basis Set: AUG-CC-PVDZ
    Blend: AUG-CC-PVDZ
  Basis Set: (AUG-CC-PVDZ AUX)
    Blend: AUG-CC-PVDZ-JKFIT
  @DF-RHF Final Energy:  -477.45189288121145
    Total Energy =                       -477.4518928812115064
  //            Monomer A HF           //
    Molecular point group: c1
  Multiplicity = 1
  Basis Set: AUG-CC-PVDZ
    Blend: AUG-CC-PVDZ
  Basis Set: (AUG-CC-PVDZ AUX)
    Blend: AUG-CC-PVDZ-JKFIT
  @DF-RHF Final Energy:  -230.72794726103717
    Total Energy =                       -230.7279472610371727
  //            Monomer B HF           //
    Molecular point group: c1

    Geometry (in Angstrom), charge = 0, multiplicity = 1:

       Center              X                  Y                   Z               Mass
    ------------   -----------------  -----------------  -----------------  -----------------
      Gh(C)           1.752450140320     0.647992704514    -3.137682031994    12.000000000000
      Gh(H)           2.399810140320     1.500492704514    -2.981252031994     1.007825032230
      Gh(C)           2.302700140320    -0.606697295486    -3.392672031994    12.000000000000
      Gh(H)           3.376740140320    -0.728037295486    -3.436542031994     1.007825032230
      Gh(C)           1.468080140320    -1.704667295486    -3.597862031994    12.000000000000
      Gh(H)           1.894550140320    -2.677737295486    -3.801482031994     1.007825032230
      Gh(C)           0.084580140320    -1.546687295486    -3.545872031994    12.000000000000
      Gh(H)          -0.563369859680    -2.398037295486    -3.705522031994     1.007825032230
      Gh(C)          -0.465789859680    -0.292207295486    -3.285542031994    12.000000000000
      Gh(H)          -1.538989859680    -0.171267295486    -3.232592031994     1.007825032230
      Gh(C)           0.368410140320     0.805222704514    -3.083692031994    12.000000000000
      Gh(H)          -0.058859859680     1.777482704514    -2.879712031994     1.007825032230
         N           -2.296859859680     0.353282704514     3.221337968006    14.003074004430
         C           -1.681969859680     1.510952704514     3.501397968006    12.000000000000
         H           -2.329569859680     2.364122704514     3.663917968006     1.007825032230
         C           -0.299749859680     1.651792704514     3.591567968006    12.000000000000
         H            0.132090140320     2.615442704514     3.822787968006     1.007825032230
         C            0.501200140320     0.534812704514     3.377357968006    12.000000000000
         H            1.578770140320     0.605202704514     3.432187968006     1.007825032230
         C           -0.119359859680    -0.673837295486     3.083697968006    12.000000000000
         H            0.456420140320    -1.569457295486     2.899627968006     1.007825032230
         C           -1.509869859680    -0.711877295486     3.018247968006    12.000000000000
         H           -2.018719859680    -1.640327295486     2.789407968006     1.007825032230

  Charge       = 0
  Multiplicity = 1
  Basis Set: AUG-CC-PVDZ
    Blend: AUG-CC-PVDZ
  Basis Set: (AUG-CC-PVDZ AUX)
    Blend: AUG-CC-PVDZ-JKFIT

    Orbital Energies [Eh]
    ---------------------

    Doubly Occupied:

       1A    -15.575908     2A    -11.282027     3A    -11.281967
       4A    -11.266711     5A    -11.248798     6A    -11.248658
       7A     -1.260457     8A     -1.093262     9A     -1.036570
      10A     -0.861602    11A     -0.858180    12A     -0.723100
      13A     -0.661856    14A     -0.655272    15A     -0.599029
      16A     -0.577977    17A     -0.541198    18A     -0.520152
      19A     -0.419811    20A     -0.383998    21A     -0.347829

  @DF-RHF Final Energy:  -246.72393203571676

   => Energetics <=

    Nuclear Repulsion Energy =            206.2594403912710561
    One-Electron Energy =                -741.0780190565510566
    Two-Electron Energy =                 288.0946466295632717
    Total Energy =                       -246.7239320357167571

  Dipole Moment: [D]
     X:     2.3393      Y:     0.1531      Z:     0.1181     Total:     2.3473

    SAPT Results
  --------------------------------------------------------------------------------------------------------
    Electrostatics                 -0.03235487 [mEh]      -0.02030299 [kcal/mol]      -0.08494769 [kJ/mol]
      Elst10,r                      0.00041563 [mEh]       0.00026081 [kcal/mol]       0.00109124 [kJ/mol]
      Elst12,r                     -0.03277050 [mEh]      -0.02056380 [kcal/mol]      -0.08603893 [kJ/mol]

    Exchange                        0.00096209 [mEh]       0.00060372 [kcal/mol]       0.00252597 [kJ/mol]
      Exch10                        0.00086551 [mEh]       0.00054312 [kcal/mol]       0.00227240 [kJ/mol]
      Exch10(S^2)                   0.00086551 [mEh]       0.00054312 [kcal/mol]       0.00227240 [kJ/mol]
      Exch11(S^2)                  -0.00000379 [mEh]      -0.00000238 [kcal/mol]      -0.00000996 [kJ/mol]
      Exch12(S^2)                   0.00010037 [mEh]       0.00006299 [kcal/mol]       0.00026353 [kJ/mol]

    Induction                      -0.01266161 [mEh]      -0.00794528 [kcal/mol]      -0.03324305 [kJ/mol]
      Ind20,r                      -0.01549302 [mEh]      -0.00972202 [kcal/mol]      -0.04067692 [kJ/mol]
      Ind22                         0.00228067 [mEh]       0.00143114 [kcal/mol]       0.00598790 [kJ/mol]
      Exch-Ind20,r                  0.00052090 [mEh]       0.00032687 [kcal/mol]       0.00136762 [kJ/mol]
      Exch-Ind22                   -0.00007668 [mEh]      -0.00004812 [kcal/mol]      -0.00020132 [kJ/mol]
      delta HF,r (2)                0.00010652 [mEh]       0.00006684 [kcal/mol]       0.00027967 [kJ/mol]

    Dispersion                     -0.31705021 [mEh]      -0.19895201 [kcal/mol]      -0.83241522 [kJ/mol]
      Disp20                       -0.37931981 [mEh]      -0.23802678 [kcal/mol]      -0.99590403 [kJ/mol]
      Disp21                        0.15160521 [mEh]       0.09513370 [kcal/mol]       0.39803942 [kJ/mol]
      Disp22 (SDQ)                 -0.00366001 [mEh]      -0.00229669 [kcal/mol]      -0.00960934 [kJ/mol]
      Disp22 (T)                   -0.08503522 [mEh]      -0.05336040 [kcal/mol]      -0.22325993 [kJ/mol]
      Est. Disp22 (T)              -0.08621822 [mEh]      -0.05410275 [kcal/mol]      -0.22636590 [kJ/mol]
      Exch-Disp20                   0.00054261 [mEh]       0.00034049 [kcal/mol]       0.00142463 [kJ/mol]

  Total HF                         -0.01358446 [mEh]      -0.00852438 [kcal/mol]      -0.03566599 [kJ/mol]
  Total SAPT0                      -0.39236166 [mEh]      -0.24621066 [kcal/mol]      -1.03014539 [kJ/mol]
  Total SAPT2                      -0.42283159 [mEh]      -0.26533083 [kcal/mol]      -1.11014418 [kJ/mol]
  Total SAPT2+                     -0.36110460 [mEh]      -0.22659656 [kcal/mol]      -0.94808000 [kJ/mol]

  Special recipe for scaled SAPT0 (see Manual):
    Electrostatics sSAPT0           0.00041563 [mEh]       0.00026081 [kcal/mol]       0.00109124 [kJ/mol]
    Exchange sSAPT0                 0.00086551 [mEh]       0.00054312 [kcal/mol]       0.00227240 [kJ/mol]
    Induction sSAPT0               -0.01486560 [mEh]      -0.00932831 [kcal/mol]      -0.03902963 [kJ/mol]
    Dispersion sSAPT0              -0.37877720 [mEh]      -0.23768628 [kcal/mol]      -0.99447940 [kJ/mol]
  Total sSAPT0                     -0.39236166 [mEh]      -0.24621066 [kcal/mol]      -1.03014539 [kJ/mol]
  --------------------------------------------------------------------------------------------------------

*** Psi4 exiting successfully. Buy a developer a beer!
