                               Psi4 1.4a2.dev224

  ==> Input File <==

--------------------------------------------------------------------------
#Generated by lconvert.py for sapt job

memory 20 GB

molecule  {
0 1
  C       0.825770    1.236530   -0.040250
  H       1.521010    2.063120   -0.082470
  C       1.300160   -0.062940    0.127260
  H       2.363660   -0.242260    0.207670
  C       0.403520   -1.128550    0.198250
  H       0.773750   -2.137430    0.324120
  C      -0.967810   -0.895190    0.103140
  H      -1.665210   -1.719980    0.160430
  C      -1.443510    0.404480   -0.062440
  H      -2.507510    0.585500   -0.124150
  C      -0.545750    1.468770   -0.136250
  H      -0.914220    2.477420   -0.267860
--
0 1
  N      -0.204990    0.475130    5.063790
  H      -0.578300    1.376890    4.800900
  C       1.187160    0.402140    5.195810
  O       1.878070    1.396560    5.050970
  C       1.666060   -0.931940    5.513920
  H       2.723110   -1.084150    5.648040
  C       0.786350   -1.946320    5.640130
  H       1.092280   -2.954740    5.876660
  N      -0.558900   -1.761290    5.470040
  H      -1.207640   -2.523850    5.568910
  C      -1.133350   -0.536480    5.170630
  O      -2.331130   -0.385660    5.028510
units angstrom
no_reorient
symmetry c1
}

set {
scf_type DF
basis aug-cc-pvdz
freeze_core True
guess SAD
}
energy('sapt2+')
--------------------------------------------------------------------------

  //              Dimer HF             //
    Molecular point group: c1
  Charge       = 0
  Multiplicity = 1
  Basis Set: AUG-CC-PVDZ
    Blend: AUG-CC-PVDZ
  Basis Set: (AUG-CC-PVDZ AUX)
    Blend: AUG-CC-PVDZ-JKFIT
  @DF-RHF Final Energy:  -643.25820698190353
    Total Energy =                       -643.2582069819035269
  //            Monomer A HF           //
    Molecular point group: c1
  Multiplicity = 1
  Basis Set: AUG-CC-PVDZ
    Blend: AUG-CC-PVDZ
  Basis Set: (AUG-CC-PVDZ AUX)
    Blend: AUG-CC-PVDZ-JKFIT
  @DF-RHF Final Energy:  -230.72817830447201
    Total Energy =                       -230.7281783044720100
  //            Monomer B HF           //
    Molecular point group: c1

    Geometry (in Angstrom), charge = 0, multiplicity = 1:

       Center              X                  Y                   Z               Mass
    ------------   -----------------  -----------------  -----------------  -----------------
      Gh(C)           0.780455107917     1.393873596341    -3.152371562614    12.000000000000
      Gh(H)           1.475695107917     2.220463596341    -3.194591562614     1.007825032230
      Gh(C)           1.254845107917     0.094403596341    -2.984861562614    12.000000000000
      Gh(H)           2.318345107917    -0.084916403659    -2.904451562614     1.007825032230
      Gh(C)           0.358205107917    -0.971206403659    -2.913871562614    12.000000000000
      Gh(H)           0.728435107917    -1.980086403659    -2.788001562614     1.007825032230
      Gh(C)          -1.013124892083    -0.737846403659    -3.008981562614    12.000000000000
      Gh(H)          -1.710524892083    -1.562636403659    -2.951691562614     1.007825032230
      Gh(C)          -1.488824892083     0.561823596341    -3.174561562614    12.000000000000
      Gh(H)          -2.552824892083     0.742843596341    -3.236271562614     1.007825032230
      Gh(C)          -0.591064892083     1.626113596341    -3.248371562614    12.000000000000
      Gh(H)          -0.959534892083     2.634763596341    -3.379981562614     1.007825032230
         N           -0.250304892083     0.632473596341     1.951668437386    14.003074004430
         H           -0.623614892083     1.534233596341     1.688778437386     1.007825032230
         C            1.141845107917     0.559483596341     2.083688437386    12.000000000000
         O            1.832755107917     1.553903596341     1.938848437386    15.994914619570
         C            1.620745107917    -0.774596403659     2.401798437386    12.000000000000
         H            2.677795107917    -0.926806403659     2.535918437386     1.007825032230
         C            0.741035107917    -1.788976403659     2.528008437386    12.000000000000
         H            1.046965107917    -2.797396403659     2.764538437386     1.007825032230
         N           -0.604214892083    -1.603946403659     2.357918437386    14.003074004430
         H           -1.252954892083    -2.366506403659     2.456788437386     1.007825032230
         C           -1.178664892083    -0.379136403659     2.058508437386    12.000000000000
         O           -2.376444892083    -0.228316403659     1.916388437386    15.994914619570

  Charge       = 0
  Multiplicity = 1
  Basis Set: AUG-CC-PVDZ
    Blend: AUG-CC-PVDZ
  Basis Set: (AUG-CC-PVDZ AUX)
    Blend: AUG-CC-PVDZ-JKFIT

    Orbital Energies [Eh]
    ---------------------

    Doubly Occupied:

       1A    -20.559124     2A    -20.553186     3A    -15.652069
       4A    -15.635736     5A    -11.429320     6A    -11.390033
       7A    -11.348042     8A    -11.262265     9A     -1.442304
      10A     -1.404033    11A     -1.318197    12A     -1.250869
      13A     -1.091644    14A     -0.936528    15A     -0.906007
      16A     -0.809751    17A     -0.767726    18A     -0.716594
      19A     -0.680398    20A     -0.669786    21A     -0.655201
      22A     -0.616658    23A     -0.602768    24A     -0.571584
      25A     -0.526318    26A     -0.484407    27A     -0.449712
      28A     -0.437101    29A     -0.368411

  @DF-RHF Final Energy:  -412.52976046434560

   => Energetics <=

    Nuclear Repulsion Energy =            357.1693528130224422
    One-Electron Energy =               -1270.3266813308009660
    Two-Electron Energy =                 500.6275680534329240
    Total Energy =                       -412.5297604643455998

  Dipole Moment: [D]
     X:     0.5953      Y:    -4.8862      Z:     1.0134     Total:     5.0256

    SAPT Results
  --------------------------------------------------------------------------------------------------------
    Electrostatics                 -0.15661217 [mEh]      -0.09827562 [kcal/mol]      -0.41118520 [kJ/mol]
      Elst10,r                     -0.23496436 [mEh]      -0.14744236 [kcal/mol]      -0.61689883 [kJ/mol]
      Elst12,r                      0.07835218 [mEh]       0.04916674 [kcal/mol]       0.20571363 [kJ/mol]

    Exchange                        0.05025891 [mEh]       0.03153794 [kcal/mol]       0.13195476 [kJ/mol]
      Exch10                        0.04543292 [mEh]       0.02850959 [kcal/mol]       0.11928410 [kJ/mol]
      Exch10(S^2)                   0.04543258 [mEh]       0.02850937 [kcal/mol]       0.11928322 [kJ/mol]
      Exch11(S^2)                  -0.00040838 [mEh]      -0.00025626 [kcal/mol]      -0.00107220 [kJ/mol]
      Exch12(S^2)                   0.00523438 [mEh]       0.00328462 [kcal/mol]       0.01374285 [kJ/mol]

    Induction                      -0.06098122 [mEh]      -0.03826629 [kcal/mol]      -0.16010616 [kJ/mol]
      Ind20,r                      -0.09668568 [mEh]      -0.06067118 [kcal/mol]      -0.25384821 [kJ/mol]
      Ind22                         0.02231855 [mEh]       0.01400510 [kcal/mol]       0.05859734 [kJ/mol]
      Exch-Ind20,r                  0.02000606 [mEh]       0.01255399 [kcal/mol]       0.05252589 [kJ/mol]
      Exch-Ind22                   -0.00461812 [mEh]      -0.00289791 [kcal/mol]      -0.01212488 [kJ/mol]
      delta HF,r (2)               -0.00200203 [mEh]      -0.00125629 [kcal/mol]      -0.00525632 [kJ/mol]

    Dispersion                     -1.44131893 [mEh]      -0.90444128 [kcal/mol]      -3.78418233 [kJ/mol]
      Disp20                       -1.58957328 [mEh]      -0.99747229 [kcal/mol]      -4.17342406 [kJ/mol]
      Disp21                        0.55673960 [mEh]       0.34935937 [kcal/mol]       1.46171962 [kJ/mol]
      Disp22 (SDQ)                 -0.05651450 [mEh]      -0.03546338 [kcal/mol]      -0.14837880 [kJ/mol]
      Disp22 (T)                   -0.35610802 [mEh]      -0.22346116 [kcal/mol]      -0.93496149 [kJ/mol]
      Est. Disp22 (T)              -0.36445577 [mEh]      -0.22869945 [kcal/mol]      -0.95687849 [kJ/mol]
      Exch-Disp20                   0.01248502 [mEh]       0.00783447 [kcal/mol]       0.03277941 [kJ/mol]

  Total HF                         -0.26821309 [mEh]      -0.16830625 [kcal/mol]      -0.70419336 [kJ/mol]
  Total SAPT0                      -1.84530135 [mEh]      -1.15794408 [kcal/mol]      -4.84483801 [kJ/mol]
  Total SAPT2                      -1.74442273 [mEh]      -1.09464179 [kcal/mol]      -4.57998126 [kJ/mol]
  Total SAPT2+                     -1.60865340 [mEh]      -1.00944525 [kcal/mol]      -4.22351893 [kJ/mol]

  Special recipe for scaled SAPT0 (see Manual):
    Electrostatics sSAPT0          -0.23496436 [mEh]      -0.14744236 [kcal/mol]      -0.61689883 [kJ/mol]
    Exchange sSAPT0                 0.04543292 [mEh]       0.02850959 [kcal/mol]       0.11928410 [kJ/mol]
    Induction sSAPT0               -0.07868120 [mEh]      -0.04937320 [kcal/mol]      -0.20657747 [kJ/mol]
    Dispersion sSAPT0              -1.57708798 [mEh]      -0.98963765 [kcal/mol]      -4.14064393 [kJ/mol]
  Total sSAPT0                     -1.84530063 [mEh]      -1.15794362 [kcal/mol]      -4.84483612 [kJ/mol]
  --------------------------------------------------------------------------------------------------------

*** Psi4 exiting successfully. Buy a developer a beer!
