                               Psi4 1.4a2.dev224

  ==> Input File <==

--------------------------------------------------------------------------
#Generated by lconvert.py for sapt job

memory 20 GB

molecule  {
0 1
  C       0.825770    1.236530   -0.040250
  H       1.521010    2.063120   -0.082470
  C       1.300160   -0.062940    0.127260
  H       2.363660   -0.242260    0.207670
  C       0.403520   -1.128550    0.198250
  H       0.773750   -2.137430    0.324120
  C      -0.967810   -0.895190    0.103140
  H      -1.665210   -1.719980    0.160430
  C      -1.443510    0.404480   -0.062440
  H      -2.507510    0.585500   -0.124150
  C      -0.545750    1.468770   -0.136250
  H      -0.914220    2.477420   -0.267860
--
0 1
  N      -0.169520    0.375420    6.000250
  H      -0.542820    1.277180    5.737350
  C       1.222630    0.302430    6.132260
  O       1.913540    1.296860    5.987420
  C       1.701530   -1.031640    6.450370
  H       2.758580   -1.183860    6.584490
  C       0.821820   -2.046030    6.576590
  H       1.127750   -3.054450    6.813110
  N      -0.523420   -1.860990    6.406490
  H      -1.172170   -2.623550    6.505360
  C      -1.097870   -0.636190    6.107080
  O      -2.295660   -0.485370    5.964970
units angstrom
no_reorient
symmetry c1
}

set {
scf_type DF
basis aug-cc-pvdz
freeze_core True
guess SAD
}
energy('sapt2+')
--------------------------------------------------------------------------

  //              Dimer HF             //
    Molecular point group: c1
  Charge       = 0
  Multiplicity = 1
  Basis Set: AUG-CC-PVDZ
    Blend: AUG-CC-PVDZ
  Basis Set: (AUG-CC-PVDZ AUX)
    Blend: AUG-CC-PVDZ-JKFIT
  @DF-RHF Final Energy:  -643.25775040090446
    Total Energy =                       -643.2577504009044560
  //            Monomer A HF           //
    Molecular point group: c1
  Multiplicity = 1
  Basis Set: AUG-CC-PVDZ
    Blend: AUG-CC-PVDZ
  Basis Set: (AUG-CC-PVDZ AUX)
    Blend: AUG-CC-PVDZ-JKFIT
  @DF-RHF Final Energy:  -230.72801365695958
    Total Energy =                       -230.7280136569595470
  //            Monomer B HF           //
    Molecular point group: c1

    Geometry (in Angstrom), charge = 0, multiplicity = 1:

       Center              X                  Y                   Z               Mass
    ------------   -----------------  -----------------  -----------------  -----------------
      Gh(C)           0.759548130215     1.452639110803    -3.704305221482    12.000000000000
      Gh(H)           1.454788130215     2.279229110803    -3.746525221482     1.007825032230
      Gh(C)           1.233938130215     0.153169110803    -3.536795221482    12.000000000000
      Gh(H)           2.297438130215    -0.026150889197    -3.456385221482     1.007825032230
      Gh(C)           0.337298130215    -0.912440889197    -3.465805221482    12.000000000000
      Gh(H)           0.707528130215    -1.921320889197    -3.339935221482     1.007825032230
      Gh(C)          -1.034031869785    -0.679080889197    -3.560915221482    12.000000000000
      Gh(H)          -1.731431869785    -1.503870889197    -3.503625221482     1.007825032230
      Gh(C)          -1.509731869785     0.620589110803    -3.726495221482    12.000000000000
      Gh(H)          -2.573731869785     0.801609110803    -3.788205221482     1.007825032230
      Gh(C)          -0.611971869785     1.684879110803    -3.800305221482    12.000000000000
      Gh(H)          -0.980441869785     2.693529110803    -3.931915221482     1.007825032230
         N           -0.235741869785     0.591529110803     2.336194778518    14.003074004430
         H           -0.609041869785     1.493289110803     2.073294778518     1.007825032230
         C            1.156408130215     0.518539110803     2.468204778518    12.000000000000
         O            1.847318130215     1.512969110803     2.323364778518    15.994914619570
         C            1.635308130215    -0.815530889197     2.786314778518    12.000000000000
         H            2.692358130215    -0.967750889197     2.920434778518     1.007825032230
         C            0.755598130215    -1.829920889197     2.912534778518    12.000000000000
         H            1.061528130215    -2.838340889197     3.149054778518     1.007825032230
         N           -0.589641869785    -1.644880889197     2.742434778518    14.003074004430
         H           -1.238391869785    -2.407440889197     2.841304778518     1.007825032230
         C           -1.164091869785    -0.420080889197     2.443024778518    12.000000000000
         O           -2.361881869785    -0.269260889197     2.300914778518    15.994914619570

  Charge       = 0
  Multiplicity = 1
  Basis Set: AUG-CC-PVDZ
    Blend: AUG-CC-PVDZ
  Basis Set: (AUG-CC-PVDZ AUX)
    Blend: AUG-CC-PVDZ-JKFIT

    Orbital Energies [Eh]
    ---------------------

    Doubly Occupied:

       1A    -20.559121     2A    -20.553183     3A    -15.652075
       4A    -15.635739     5A    -11.429333     6A    -11.390028
       7A    -11.348050     8A    -11.262267     9A     -1.442311
      10A     -1.404040    11A     -1.318213    12A     -1.250885
      13A     -1.091661    14A     -0.936548    15A     -0.906022
      16A     -0.809767    17A     -0.767742    18A     -0.716609
      19A     -0.680406    20A     -0.669795    21A     -0.655210
      22A     -0.616668    23A     -0.602784    24A     -0.571591
      25A     -0.526327    26A     -0.484415    27A     -0.449723
      28A     -0.437109    29A     -0.368410

  @DF-RHF Final Energy:  -412.52967839365112

   => Energetics <=

    Nuclear Repulsion Energy =            357.1695742454470519
    One-Electron Energy =               -1270.3264420061057081
    Two-Electron Energy =                 500.6271893670075315
    Total Energy =                       -412.5296783936511247

  Dipole Moment: [D]
     X:     0.5947      Y:    -4.8872      Z:     1.0123     Total:     5.0263

    SAPT Results
  --------------------------------------------------------------------------------------------------------
    Electrostatics                 -0.01436491 [mEh]      -0.00901412 [kcal/mol]      -0.03771506 [kJ/mol]
      Elst10,r                     -0.03173012 [mEh]      -0.01991095 [kcal/mol]      -0.08330742 [kJ/mol]
      Elst12,r                      0.01736521 [mEh]       0.01089684 [kcal/mol]       0.04559236 [kJ/mol]

    Exchange                        0.00266340 [mEh]       0.00167131 [kcal/mol]       0.00699275 [kJ/mol]
      Exch10                        0.00254835 [mEh]       0.00159911 [kcal/mol]       0.00669069 [kJ/mol]
      Exch10(S^2)                   0.00254835 [mEh]       0.00159911 [kcal/mol]       0.00669069 [kJ/mol]
      Exch11(S^2)                  -0.00010311 [mEh]      -0.00006470 [kcal/mol]      -0.00027072 [kJ/mol]
      Exch12(S^2)                   0.00021816 [mEh]       0.00013690 [kcal/mol]       0.00057278 [kJ/mol]

    Induction                      -0.02094265 [mEh]      -0.01314171 [kcal/mol]      -0.05498492 [kJ/mol]
      Ind20,r                      -0.03063708 [mEh]      -0.01922506 [kcal/mol]      -0.08043764 [kJ/mol]
      Ind22                         0.00869600 [mEh]       0.00545682 [kcal/mol]       0.02283134 [kJ/mol]
      Exch-Ind20,r                  0.00165631 [mEh]       0.00103935 [kcal/mol]       0.00434865 [kJ/mol]
      Exch-Ind22                   -0.00047013 [mEh]      -0.00029501 [kcal/mol]      -0.00123432 [kJ/mol]
      delta HF,r (2)               -0.00018775 [mEh]      -0.00011782 [kcal/mol]      -0.00049294 [kJ/mol]

    Dispersion                     -0.54727133 [mEh]      -0.34341794 [kcal/mol]      -1.43686067 [kJ/mol]
      Disp20                       -0.60690003 [mEh]      -0.38083552 [kcal/mol]      -1.59341580 [kJ/mol]
      Disp21                        0.22149389 [mEh]       0.13898951 [kcal/mol]       0.58153212 [kJ/mol]
      Disp22 (SDQ)                 -0.02294855 [mEh]      -0.01440043 [kcal/mol]      -0.06025141 [kJ/mol]
      Disp22 (T)                   -0.13789608 [mEh]      -0.08653109 [kcal/mol]      -0.36204610 [kJ/mol]
      Est. Disp22 (T)              -0.13974674 [mEh]      -0.08769241 [kcal/mol]      -0.36690503 [kJ/mol]
      Exch-Disp20                   0.00083011 [mEh]       0.00052090 [kcal/mol]       0.00217945 [kJ/mol]

  Total HF                         -0.05835029 [mEh]      -0.03661536 [kcal/mol]      -0.15319868 [kJ/mol]
  Total SAPT0                      -0.66442021 [mEh]      -0.41692998 [kcal/mol]      -1.74443502 [kJ/mol]
  Total SAPT2                      -0.63871408 [mEh]      -0.40079913 [kcal/mol]      -1.67694357 [kJ/mol]
  Total SAPT2+                     -0.57991549 [mEh]      -0.36390246 [kcal/mol]      -1.52256790 [kJ/mol]

  Special recipe for scaled SAPT0 (see Manual):
    Electrostatics sSAPT0          -0.03173012 [mEh]      -0.01991095 [kcal/mol]      -0.08330742 [kJ/mol]
    Exchange sSAPT0                 0.00254835 [mEh]       0.00159911 [kcal/mol]       0.00669069 [kJ/mol]
    Induction sSAPT0               -0.02916852 [mEh]      -0.01830352 [kcal/mol]      -0.07658194 [kJ/mol]
    Dispersion sSAPT0              -0.60606992 [mEh]      -0.38031461 [kcal/mol]      -1.59123635 [kJ/mol]
  Total sSAPT0                     -0.66442021 [mEh]      -0.41692998 [kcal/mol]      -1.74443502 [kJ/mol]
  --------------------------------------------------------------------------------------------------------

*** Psi4 exiting successfully. Buy a developer a beer!
