                               Psi4 1.4a2.dev224

  ==> Input File <==

--------------------------------------------------------------------------
#Generated by lconvert.py for sapt job

memory 20 GB

molecule  {
0 1
  C       0.825770    1.236530   -0.040250
  H       1.521010    2.063120   -0.082470
  C       1.300160   -0.062940    0.127260
  H       2.363660   -0.242260    0.207670
  C       0.403520   -1.128550    0.198250
  H       0.773750   -2.137430    0.324120
  C      -0.967810   -0.895190    0.103140
  H      -1.665210   -1.719980    0.160430
  C      -1.443510    0.404480   -0.062440
  H      -2.507510    0.585500   -0.124150
  C      -0.545750    1.468770   -0.136250
  H      -0.914220    2.477420   -0.267860
--
0 1
  N      -0.240460    0.574830    4.127340
  H      -0.613770    1.476600    3.864450
  C       1.151690    0.501850    4.259350
  O       1.842600    1.496270    4.114520
  C       1.630590   -0.832230    4.577460
  H       2.687640   -0.984450    4.711580
  C       0.750880   -1.846610    4.703680
  H       1.056800   -2.855030    4.940200
  N      -0.594370   -1.661580    4.533590
  H      -1.243120   -2.424140    4.632460
  C      -1.168820   -0.436780    4.234170
  O      -2.366600   -0.285950    4.092060
units angstrom
no_reorient
symmetry c1
}

set {
scf_type DF
basis aug-cc-pvdz
freeze_core True
guess SAD
}
energy('sapt2+')
--------------------------------------------------------------------------

  //              Dimer HF             //
    Molecular point group: c1
  Charge       = 0
  Multiplicity = 1
  Basis Set: AUG-CC-PVDZ
    Blend: AUG-CC-PVDZ
  Basis Set: (AUG-CC-PVDZ AUX)
    Blend: AUG-CC-PVDZ-JKFIT
  @DF-RHF Final Energy:  -643.25896647691934
    Total Energy =                       -643.2589664769193405
  //            Monomer A HF           //
    Molecular point group: c1
  Multiplicity = 1
  Basis Set: AUG-CC-PVDZ
    Blend: AUG-CC-PVDZ
  Basis Set: (AUG-CC-PVDZ AUX)
    Blend: AUG-CC-PVDZ-JKFIT
  @DF-RHF Final Energy:  -230.72858534092097
    Total Energy =                       -230.7285853409209722
  //            Monomer B HF           //
    Molecular point group: c1

    Geometry (in Angstrom), charge = 0, multiplicity = 1:

       Center              X                  Y                   Z               Mass
    ------------   -----------------  -----------------  -----------------  -----------------
      Gh(C)           0.801360770594     1.335107240370    -2.600438113260    12.000000000000
      Gh(H)           1.496600770594     2.161697240370    -2.642658113260     1.007825032230
      Gh(C)           1.275750770594     0.035637240370    -2.432928113260    12.000000000000
      Gh(H)           2.339250770594    -0.143682759630    -2.352518113260     1.007825032230
      Gh(C)           0.379110770594    -1.029972759630    -2.361938113260    12.000000000000
      Gh(H)           0.749340770594    -2.038852759630    -2.236068113260     1.007825032230
      Gh(C)          -0.992219229406    -0.796612759630    -2.457048113260    12.000000000000
      Gh(H)          -1.689619229406    -1.621402759630    -2.399758113260     1.007825032230
      Gh(C)          -1.467919229406     0.503057240370    -2.622628113260    12.000000000000
      Gh(H)          -2.531919229406     0.684077240370    -2.684338113260     1.007825032230
      Gh(C)          -0.570159229406     1.567347240370    -2.696438113260    12.000000000000
      Gh(H)          -0.938629229406     2.575997240370    -2.828048113260     1.007825032230
         N           -0.264869229406     0.673407240370     1.567151886740    14.003074004430
         H           -0.638179229406     1.575177240370     1.304261886740     1.007825032230
         C            1.127280770594     0.600427240370     1.699161886740    12.000000000000
         O            1.818190770594     1.594847240370     1.554331886740    15.994914619570
         C            1.606180770594    -0.733652759630     2.017271886740    12.000000000000
         H            2.663230770594    -0.885872759630     2.151391886740     1.007825032230
         C            0.726470770594    -1.748032759630     2.143491886740    12.000000000000
         H            1.032390770594    -2.756452759630     2.380011886740     1.007825032230
         N           -0.618779229406    -1.563002759630     1.973401886740    14.003074004430
         H           -1.267529229406    -2.325562759630     2.072271886740     1.007825032230
         C           -1.193229229406    -0.338202759630     1.673981886740    12.000000000000
         O           -2.391009229406    -0.187372759630     1.531871886740    15.994914619570

  Charge       = 0
  Multiplicity = 1
  Basis Set: AUG-CC-PVDZ
    Blend: AUG-CC-PVDZ
  Basis Set: (AUG-CC-PVDZ AUX)
    Blend: AUG-CC-PVDZ-JKFIT

    Orbital Energies [Eh]
    ---------------------

    Doubly Occupied:

       1A    -20.559139     2A    -20.553211     3A    -15.652069
       4A    -15.635749     5A    -11.429289     6A    -11.390020
       7A    -11.348018     8A    -11.262257     9A     -1.442284
      10A     -1.404007    11A     -1.318176    12A     -1.250848
      13A     -1.091618    14A     -0.936506    15A     -0.905984
      16A     -0.809728    17A     -0.767700    18A     -0.716575
      19A     -0.680377    20A     -0.669771    21A     -0.655177
      22A     -0.616633    23A     -0.602744    24A     -0.571568
      25A     -0.526307    26A     -0.484386    27A     -0.449689
      28A     -0.437088    29A     -0.368406

  @DF-RHF Final Energy:  -412.52991762091585

   => Energetics <=

    Nuclear Repulsion Energy =            357.1695279458450045
    One-Electron Energy =               -1270.3282429850798962
    Two-Electron Energy =                 500.6287974183190954
    Total Energy =                       -412.5299176209158531

  Dipole Moment: [D]
     X:     0.5948      Y:    -4.8846      Z:     1.0146     Total:     5.0242

    SAPT Results
  --------------------------------------------------------------------------------------------------------
    Electrostatics                 -0.89952109 [mEh]      -0.56445801 [kcal/mol]      -2.36169229 [kJ/mol]
      Elst10,r                     -1.10954431 [mEh]      -0.69624957 [kcal/mol]      -2.91310819 [kJ/mol]
      Elst12,r                      0.21002322 [mEh]       0.13179156 [kcal/mol]       0.55141589 [kJ/mol]

    Exchange                        1.02340880 [mEh]       0.64219872 [kcal/mol]       2.68695944 [kJ/mol]
      Exch10                        0.94521123 [mEh]       0.59312900 [kcal/mol]       2.48165174 [kJ/mol]
      Exch10(S^2)                   0.94506382 [mEh]       0.59303650 [kcal/mol]       2.48126472 [kJ/mol]
      Exch11(S^2)                   0.01082719 [mEh]       0.00679417 [kcal/mol]       0.02842680 [kJ/mol]
      Exch12(S^2)                   0.06737038 [mEh]       0.04227555 [kcal/mol]       0.17688091 [kJ/mol]

    Induction                      -0.27553805 [mEh]      -0.17290274 [kcal/mol]      -0.72342505 [kJ/mol]
      Ind20,r                      -0.61974932 [mEh]      -0.38889857 [kcal/mol]      -1.62715161 [kJ/mol]
      Ind22                         0.05976995 [mEh]       0.03750621 [kcal/mol]       0.15692597 [kJ/mol]
      Exch-Ind20,r                  0.37458727 [mEh]       0.23505706 [kcal/mol]       0.98347875 [kJ/mol]
      Exch-Ind22                   -0.03612600 [mEh]      -0.02266940 [kcal/mol]      -0.09484879 [kJ/mol]
      delta HF,r (2)               -0.05401996 [mEh]      -0.03389804 [kcal/mol]      -0.14182938 [kJ/mol]

    Dispersion                     -4.53517607 [mEh]      -2.84586595 [kcal/mol]     -11.90710313 [kJ/mol]
      Disp20                       -5.08129724 [mEh]      -3.18856216 [kcal/mol]     -13.34094408 [kJ/mol]
      Disp21                        1.64541383 [mEh]       1.03251277 [kcal/mol]       4.32003343 [kJ/mol]
      Disp22 (SDQ)                 -0.15158120 [mEh]      -0.09511864 [kcal/mol]      -0.39797638 [kJ/mol]
      Disp22 (T)                   -1.09351305 [mEh]      -0.68618980 [kcal/mol]      -2.87101813 [kJ/mol]
      Est. Disp22 (T)              -1.14245575 [mEh]      -0.71690181 [kcal/mol]      -2.99951716 [kJ/mol]
      Exch-Disp20                   0.19474429 [mEh]       0.12220389 [kcal/mol]       0.51130106 [kJ/mol]

  Total HF                         -0.46351508 [mEh]      -0.29086011 [kcal/mol]      -1.21695868 [kJ/mol]
  Total SAPT0                      -5.35006804 [mEh]      -3.35721838 [kcal/mol]     -14.04660170 [kJ/mol]
  Total SAPT2                      -5.03820329 [mEh]      -3.16152030 [kcal/mol]     -13.22780092 [kJ/mol]
  Total SAPT2+                     -4.68682640 [mEh]      -2.94102797 [kcal/mol]     -12.30526103 [kJ/mol]

  Special recipe for scaled SAPT0 (see Manual):
    Electrostatics sSAPT0          -1.10954431 [mEh]      -0.69624957 [kcal/mol]      -2.91310819 [kJ/mol]
    Exchange sSAPT0                 0.94521123 [mEh]       0.59312900 [kcal/mol]       2.48165174 [kJ/mol]
    Induction sSAPT0               -0.29900669 [mEh]      -0.18762953 [kcal/mol]      -0.78504196 [kJ/mol]
    Dispersion sSAPT0              -4.88646182 [mEh]      -3.06630108 [kcal/mol]     -12.82940373 [kJ/mol]
  Total sSAPT0                     -5.34980159 [mEh]      -3.35705118 [kcal/mol]     -14.04590214 [kJ/mol]
  --------------------------------------------------------------------------------------------------------

*** Psi4 exiting successfully. Buy a developer a beer!
