                               Psi4 1.4a2.dev224

  ==> Input File <==

--------------------------------------------------------------------------
#Generated by lconvert.py for sapt job

memory 20 GB

molecule  {
0 1
  N       1.210760    0.028680    0.329710
  C       0.611940   -1.158450    0.153450
  H       1.251480   -2.029520    0.219290
  C      -0.751310   -1.308650   -0.088830
  H      -1.170420   -2.296870   -0.213380
  C      -1.547870   -0.169940   -0.156470
  H      -2.611010   -0.245960   -0.338760
  C      -0.943620    1.070640    0.019820
  H      -1.518810    1.984500   -0.011640
  C       0.427720    1.116110    0.257350
  H       0.924700    2.068050    0.397550
--
0 1
  N      -0.626580   -0.234360    4.268140
  H      -1.521470   -0.666220    4.083540
  C      -0.626320    1.163450    4.361150
  O      -1.666210    1.791650    4.246300
  C       0.693170    1.722530    4.588720
  H       0.794490    2.789750    4.684580
  C       1.763040    0.903840    4.660240
  H       2.766920    1.272500    4.808660
  N       1.644980   -0.453450    4.547680
  H       2.458420   -1.045640    4.539510
  C       0.444540   -1.100690    4.321300
  O       0.352400   -2.306110    4.187720
units angstrom
no_reorient
symmetry c1
}

set {
scf_type DF
basis aug-cc-pvdz
freeze_core True
guess SAD
}
energy('sapt2+')
--------------------------------------------------------------------------

  //              Dimer HF             //
    Molecular point group: c1
  Charge       = 0
  Multiplicity = 1
  Basis Set: AUG-CC-PVDZ
    Blend: AUG-CC-PVDZ
  Basis Set: (AUG-CC-PVDZ AUX)
    Blend: AUG-CC-PVDZ-JKFIT
  @DF-RHF Final Energy:  -659.25609363468072
    Total Energy =                       -659.2560936346808376
  //            Monomer A HF           //
    Molecular point group: c1
  Multiplicity = 1
  Basis Set: AUG-CC-PVDZ
    Blend: AUG-CC-PVDZ
  Basis Set: (AUG-CC-PVDZ AUX)
    Blend: AUG-CC-PVDZ-JKFIT
  @DF-RHF Final Energy:  -246.72421693601706
    Total Energy =                       -246.7242169360170578
  //            Monomer B HF           //
    Molecular point group: c1

    Geometry (in Angstrom), charge = 0, multiplicity = 1:

       Center              X                  Y                   Z               Mass
    ------------   -----------------  -----------------  -----------------  -----------------
      Gh(N)           1.145645739793    -0.030211690529    -2.280226751661    14.003074004430
      Gh(C)           0.546825739793    -1.217341690529    -2.456486751661    12.000000000000
      Gh(H)           1.186365739793    -2.088411690529    -2.390646751661     1.007825032230
      Gh(C)          -0.816424260207    -1.367541690529    -2.698766751661    12.000000000000
      Gh(H)          -1.235534260207    -2.355761690529    -2.823316751661     1.007825032230
      Gh(C)          -1.612984260207    -0.228831690529    -2.766406751661    12.000000000000
      Gh(H)          -2.676124260207    -0.304851690529    -2.948696751661     1.007825032230
      Gh(C)          -1.008734260207     1.011748309471    -2.590116751661    12.000000000000
      Gh(H)          -1.583924260207     1.925608309471    -2.621576751661     1.007825032230
      Gh(C)           0.362605739793     1.057218309471    -2.352586751661    12.000000000000
      Gh(H)           0.859585739793     2.009158309471    -2.212386751661     1.007825032230
         N           -0.691694260207    -0.293251690529     1.658203248339    14.003074004430
         H           -1.586584260207    -0.725111690529     1.473603248339     1.007825032230
         C           -0.691434260207     1.104558309471     1.751213248339    12.000000000000
         O           -1.731324260207     1.732758309471     1.636363248339    15.994914619570
         C            0.628055739793     1.663638309471     1.978783248339    12.000000000000
         H            0.729375739793     2.730858309471     2.074643248339     1.007825032230
         C            1.697925739793     0.844948309471     2.050303248339    12.000000000000
         H            2.701805739793     1.213608309471     2.198723248339     1.007825032230
         N            1.579865739793    -0.512341690529     1.937743248339    14.003074004430
         H            2.393305739793    -1.104531690529     1.929573248339     1.007825032230
         C            0.379425739793    -1.159581690529     1.711363248339    12.000000000000
         O            0.287285739793    -2.365001690529     1.577783248339    15.994914619570

  Charge       = 0
  Multiplicity = 1
  Basis Set: AUG-CC-PVDZ
    Blend: AUG-CC-PVDZ
  Basis Set: (AUG-CC-PVDZ AUX)
    Blend: AUG-CC-PVDZ-JKFIT

    Orbital Energies [Eh]
    ---------------------

    Doubly Occupied:

       1A    -20.558948     2A    -20.552980     3A    -15.652797
       4A    -15.635248     5A    -11.429174     6A    -11.389860
       7A    -11.348364     8A    -11.262582     9A     -1.442087
      10A     -1.403292    11A     -1.319204    12A     -1.250365
      13A     -1.092280    14A     -0.937635    15A     -0.905647
      16A     -0.810116    17A     -0.768160    18A     -0.716540
      19A     -0.680015    20A     -0.670271    21A     -0.655146
      22A     -0.616351    23A     -0.602967    24A     -0.571475
      25A     -0.526416    26A     -0.484477    27A     -0.449411
      28A     -0.436531    29A     -0.368846

  @DF-RHF Final Energy:  -412.52978229360775

   => Energetics <=

    Nuclear Repulsion Energy =            357.2355606279348876
    One-Electron Energy =               -1270.4563158502116949
    Two-Electron Energy =                 500.6909729286690549
    Total Energy =                       -412.5297822936077523

  Dipole Moment: [D]
     X:     4.9405      Y:     0.9082      Z:     0.6798     Total:     5.0691

    SAPT Results
  --------------------------------------------------------------------------------------------------------
    Electrostatics                 -2.06446469 [mEh]      -1.29547115 [kcal/mol]      -5.42025130 [kJ/mol]
      Elst10,r                     -2.49426763 [mEh]      -1.56517657 [kcal/mol]      -6.54869877 [kJ/mol]
      Elst12,r                      0.42980294 [mEh]       0.26970542 [kcal/mol]       1.12844746 [kJ/mol]

    Exchange                        0.75567993 [mEh]       0.47419631 [kcal/mol]       1.98403737 [kJ/mol]
      Exch10                        0.68338385 [mEh]       0.42882984 [kcal/mol]       1.79422406 [kJ/mol]
      Exch10(S^2)                   0.68331923 [mEh]       0.42878929 [kcal/mol]       1.79405439 [kJ/mol]
      Exch11(S^2)                   0.00639320 [mEh]       0.00401179 [kcal/mol]       0.01678534 [kJ/mol]
      Exch12(S^2)                   0.06590287 [mEh]       0.04135468 [kcal/mol]       0.17302797 [kJ/mol]

    Induction                      -0.25738040 [mEh]      -0.16150864 [kcal/mol]      -0.67575216 [kJ/mol]
      Ind20,r                      -0.45175739 [mEh]      -0.28348204 [kcal/mol]      -1.18608888 [kJ/mol]
      Ind22                         0.05126062 [mEh]       0.03216652 [kcal/mol]       0.13458473 [kJ/mol]
      Exch-Ind20,r                  0.22137910 [mEh]       0.13891749 [kcal/mol]       0.58123076 [kJ/mol]
      Exch-Ind22                   -0.02511974 [mEh]      -0.01576288 [kcal/mol]      -0.06595188 [kJ/mol]
      delta HF,r (2)               -0.05314299 [mEh]      -0.03334773 [kcal/mol]      -0.13952690 [kJ/mol]

    Dispersion                     -4.11265771 [mEh]      -2.58073167 [kcal/mol]     -10.79778133 [kJ/mol]
      Disp20                       -4.53215123 [mEh]      -2.84396783 [kcal/mol]     -11.89916141 [kJ/mol]
      Disp21                        1.51359751 [mEh]       0.94979678 [kcal/mol]       3.97394972 [kJ/mol]
      Disp22 (SDQ)                 -0.19935911 [mEh]      -0.12509973 [kcal/mol]      -0.52341728 [kJ/mol]
      Disp22 (T)                   -0.99333402 [mEh]      -0.62332651 [kcal/mol]      -2.60799810 [kJ/mol]
      Est. Disp22 (T)              -1.03307450 [mEh]      -0.64826404 [kcal/mol]      -2.71233674 [kJ/mol]
      Exch-Disp20                   0.13832962 [mEh]       0.08680315 [kcal/mol]       0.36318437 [kJ/mol]

  Total HF                         -2.09440506 [mEh]      -1.31425901 [kcal/mol]      -5.49885972 [kJ/mol]
  Total SAPT0                      -6.48822666 [mEh]      -4.07142370 [kcal/mol]     -17.03483676 [kJ/mol]
  Total SAPT2                      -5.95998678 [mEh]      -3.73994817 [kcal/mol]     -15.64794313 [kJ/mol]
  Total SAPT2+                     -5.67882288 [mEh]      -3.56351516 [kcal/mol]     -14.90974742 [kJ/mol]

  Special recipe for scaled SAPT0 (see Manual):
    Electrostatics sSAPT0          -2.49426763 [mEh]      -1.56517657 [kcal/mol]      -6.54869877 [kJ/mol]
    Exchange sSAPT0                 0.68338385 [mEh]       0.42882984 [kcal/mol]       1.79422406 [kJ/mol]
    Induction sSAPT0               -0.28345846 [mEh]      -0.17787287 [kcal/mol]      -0.74422009 [kJ/mol]
    Dispersion sSAPT0              -4.39378236 [mEh]      -2.75714005 [kcal/mol]     -11.53587398 [kJ/mol]
  Total sSAPT0                     -6.48812459 [mEh]      -4.07135965 [kcal/mol]     -17.03456877 [kJ/mol]
  --------------------------------------------------------------------------------------------------------

*** Psi4 exiting successfully. Buy a developer a beer!
