                               Psi4 1.4a2.dev224

  ==> Input File <==

--------------------------------------------------------------------------
#Generated by lconvert.py for sapt job

memory 20 GB

molecule  {
0 1
  N       1.210760    0.028680    0.329710
  C       0.611940   -1.158450    0.153450
  H       1.251480   -2.029520    0.219290
  C      -0.751310   -1.308650   -0.088830
  H      -1.170420   -2.296870   -0.213380
  C      -1.547870   -0.169940   -0.156470
  H      -2.611010   -0.245960   -0.338760
  C      -0.943620    1.070640    0.019820
  H      -1.518810    1.984500   -0.011640
  C       0.427720    1.116110    0.257350
  H       0.924700    2.068050    0.397550
--
0 1
  N      -0.540110   -0.184840    5.237380
  H      -1.435000   -0.616710    5.052780
  C      -0.539860    1.212970    5.330400
  O      -1.579740    1.841170    5.215550
  C       0.779640    1.772050    5.557960
  H       0.880950    2.839270    5.653830
  C       1.849510    0.953360    5.629480
  H       2.853390    1.322020    5.777910
  N       1.731450   -0.403940    5.516920
  H       2.544880   -0.996130    5.508760
  C       0.531000   -1.051170    5.290540
  O       0.438870   -2.256590    5.156960
units angstrom
no_reorient
symmetry c1
}

set {
scf_type DF
basis aug-cc-pvdz
freeze_core True
guess SAD
}
energy('sapt2+')
--------------------------------------------------------------------------

  //              Dimer HF             //
    Molecular point group: c1
  Charge       = 0
  Multiplicity = 1
  Basis Set: AUG-CC-PVDZ
    Blend: AUG-CC-PVDZ
  Basis Set: (AUG-CC-PVDZ AUX)
    Blend: AUG-CC-PVDZ-JKFIT
  @DF-RHF Final Energy:  -659.25488235530497
    Total Energy =                       -659.2548823553049715
  //            Monomer A HF           //
    Molecular point group: c1
  Multiplicity = 1
  Basis Set: AUG-CC-PVDZ
    Blend: AUG-CC-PVDZ
  Basis Set: (AUG-CC-PVDZ AUX)
    Blend: AUG-CC-PVDZ-JKFIT
  @DF-RHF Final Energy:  -246.72396934842814
    Total Energy =                       -246.7239693484281133
  //            Monomer B HF           //
    Molecular point group: c1

    Geometry (in Angstrom), charge = 0, multiplicity = 1:

       Center              X                  Y                   Z               Mass
    ------------   -----------------  -----------------  -----------------  -----------------
      Gh(N)           1.094948272602    -0.059245268727    -2.848510239288    14.003074004430
      Gh(C)           0.496128272602    -1.246375268727    -3.024770239288    12.000000000000
      Gh(H)           1.135668272602    -2.117445268727    -2.958930239288     1.007825032230
      Gh(C)          -0.867121727398    -1.396575268727    -3.267050239288    12.000000000000
      Gh(H)          -1.286231727398    -2.384795268727    -3.391600239288     1.007825032230
      Gh(C)          -1.663681727398    -0.257865268727    -3.334690239288    12.000000000000
      Gh(H)          -2.726821727398    -0.333885268727    -3.516980239288     1.007825032230
      Gh(C)          -1.059431727398     0.982714731273    -3.158400239288    12.000000000000
      Gh(H)          -1.634621727398     1.896574731273    -3.189860239288     1.007825032230
      Gh(C)           0.311908272602     1.028184731273    -2.920870239288    12.000000000000
      Gh(H)           0.808888272602     1.980124731273    -2.780670239288     1.007825032230
         N           -0.655921727398    -0.272765268727     2.059159760712    14.003074004430
         H           -1.550811727398    -0.704635268727     1.874559760712     1.007825032230
         C           -0.655671727398     1.125044731273     2.152179760712    12.000000000000
         O           -1.695551727398     1.753244731273     2.037329760712    15.994914619570
         C            0.663828272602     1.684124731273     2.379739760712    12.000000000000
         H            0.765138272602     2.751344731273     2.475609760712     1.007825032230
         C            1.733698272602     0.865434731273     2.451259760712    12.000000000000
         H            2.737578272602     1.234094731273     2.599689760712     1.007825032230
         N            1.615638272602    -0.491865268727     2.338699760712    14.003074004430
         H            2.429068272602    -1.084055268727     2.330539760712     1.007825032230
         C            0.415188272602    -1.139095268727     2.112319760712    12.000000000000
         O            0.323058272602    -2.344515268727     1.978739760712    15.994914619570

  Charge       = 0
  Multiplicity = 1
  Basis Set: AUG-CC-PVDZ
    Blend: AUG-CC-PVDZ
  Basis Set: (AUG-CC-PVDZ AUX)
    Blend: AUG-CC-PVDZ-JKFIT

    Orbital Energies [Eh]
    ---------------------

    Doubly Occupied:

       1A    -20.558920     2A    -20.552954     3A    -15.652791
       4A    -15.635238     5A    -11.429190     6A    -11.389876
       7A    -11.348369     8A    -11.262582     9A     -1.442108
      10A     -1.403331    11A     -1.319222    12A     -1.250386
      13A     -1.092302    14A     -0.937653    15A     -0.905672
      16A     -0.810136    17A     -0.768183    18A     -0.716554
      19A     -0.680040    20A     -0.670280    21A     -0.655169
      22A     -0.616380    23A     -0.602991    24A     -0.571497
      25A     -0.526425    26A     -0.484499    27A     -0.449439
      28A     -0.436547    29A     -0.368849

  @DF-RHF Final Energy:  -412.52959970490042

   => Energetics <=

    Nuclear Repulsion Energy =            357.2354905417820987
    One-Electron Energy =               -1270.4550143805076914
    Two-Electron Energy =                 500.6899241338251159
    Total Energy =                       -412.5295997049004200

  Dipole Moment: [D]
     X:     4.9421      Y:     0.9089      Z:     0.6784     Total:     5.0706

    SAPT Results
  --------------------------------------------------------------------------------------------------------
    Electrostatics                 -1.02789410 [mEh]      -0.64501328 [kcal/mol]      -2.69873558 [kJ/mol]
      Elst10,r                     -1.25996138 [mEh]      -0.79063771 [kcal/mol]      -3.30802816 [kJ/mol]
      Elst12,r                      0.23206729 [mEh]       0.14562442 [kcal/mol]       0.60929258 [kJ/mol]

    Exchange                        0.02995150 [mEh]       0.01879485 [kcal/mol]       0.07863765 [kJ/mol]
      Exch10                        0.02637519 [mEh]       0.01655068 [kcal/mol]       0.06924805 [kJ/mol]
      Exch10(S^2)                   0.02637514 [mEh]       0.01655065 [kcal/mol]       0.06924792 [kJ/mol]
      Exch11(S^2)                  -0.00043379 [mEh]      -0.00027221 [kcal/mol]      -0.00113891 [kJ/mol]
      Exch12(S^2)                   0.00401010 [mEh]       0.00251637 [kcal/mol]       0.01052850 [kJ/mol]

    Induction                      -0.06138147 [mEh]      -0.03851745 [kcal/mol]      -0.16115703 [kJ/mol]
      Ind20,r                      -0.08434584 [mEh]      -0.05292781 [kcal/mol]      -0.22144997 [kJ/mol]
      Ind22                         0.02064716 [mEh]       0.01295629 [kcal/mol]       0.05420910 [kJ/mol]
      Exch-Ind20,r                  0.00944822 [mEh]       0.00592885 [kcal/mol]       0.02480630 [kJ/mol]
      Exch-Ind22                   -0.00231284 [mEh]      -0.00145133 [kcal/mol]      -0.00607237 [kJ/mol]
      delta HF,r (2)               -0.00481816 [mEh]      -0.00302344 [kcal/mol]      -0.01265008 [kJ/mol]

    Dispersion                     -1.26248950 [mEh]      -0.79222412 [kcal/mol]      -3.31466572 [kJ/mol]
      Disp20                       -1.37833994 [mEh]      -0.86492137 [kcal/mol]      -3.61883102 [kJ/mol]
      Disp21                        0.49826566 [mEh]       0.31266642 [kcal/mol]       1.30819631 [kJ/mol]
      Disp22 (SDQ)                 -0.06982431 [mEh]      -0.04381542 [kcal/mol]      -0.18332371 [kJ/mol]
      Disp22 (T)                   -0.31364855 [mEh]      -0.19681744 [kcal/mol]      -0.82348415 [kJ/mol]
      Est. Disp22 (T)              -0.31983599 [mEh]      -0.20070011 [kcal/mol]      -0.83972927 [kJ/mol]
      Exch-Disp20                   0.00724509 [mEh]       0.00454636 [kcal/mol]       0.01902197 [kJ/mol]

  Total HF                         -1.31330198 [mEh]      -0.82410943 [kcal/mol]      -3.44807386 [kJ/mol]
  Total SAPT0                      -2.68439683 [mEh]      -1.68448444 [kcal/mol]      -7.04788291 [kJ/mol]
  Total SAPT2                      -2.43041892 [mEh]      -1.52511090 [kcal/mol]      -6.38106400 [kJ/mol]
  Total SAPT2+                     -2.32181357 [mEh]      -1.45696001 [kcal/mol]      -6.09592068 [kJ/mol]

  Special recipe for scaled SAPT0 (see Manual):
    Electrostatics sSAPT0          -1.25996138 [mEh]      -0.79063771 [kcal/mol]      -3.30802816 [kJ/mol]
    Exchange sSAPT0                 0.02637519 [mEh]       0.01655068 [kcal/mol]       0.06924805 [kJ/mol]
    Induction sSAPT0               -0.07971573 [mEh]      -0.05002237 [kcal/mol]      -0.20929362 [kJ/mol]
    Dispersion sSAPT0              -1.37109481 [mEh]      -0.86037498 [kcal/mol]      -3.59980893 [kJ/mol]
  Total sSAPT0                     -2.68439674 [mEh]      -1.68448438 [kcal/mol]      -7.04788266 [kJ/mol]
  --------------------------------------------------------------------------------------------------------

*** Psi4 exiting successfully. Buy a developer a beer!
