                               Psi4 1.4a2.dev224

  ==> Input File <==

--------------------------------------------------------------------------
#Generated by lconvert.py for sapt job

memory 20 GB

molecule  {
0 1
  N       1.210760    0.028680    0.329710
  C       0.611940   -1.158450    0.153450
  H       1.251480   -2.029520    0.219290
  C      -0.751310   -1.308650   -0.088830
  H      -1.170420   -2.296870   -0.213380
  C      -1.547870   -0.169940   -0.156470
  H      -2.611010   -0.245960   -0.338760
  C      -0.943620    1.070640    0.019820
  H      -1.518810    1.984500   -0.011640
  C       0.427720    1.116110    0.257350
  H       0.924700    2.068050    0.397550
--
0 1
  N      -0.453650   -0.135330    6.206630
  H      -1.348540   -0.567190    6.022030
  C      -0.453390    1.262490    6.299640
  O      -1.493270    1.890680    6.184790
  C       0.866100    1.821570    6.527200
  H       0.967420    2.888790    6.623070
  C       1.935980    1.002870    6.598720
  H       2.939860    1.371540    6.747150
  N       1.817910   -0.354420    6.486170
  H       2.631350   -0.946610    6.478000
  C       0.617470   -1.001650    6.259790
  O       0.525330   -2.207070    6.126210
units angstrom
no_reorient
symmetry c1
}

set {
scf_type DF
basis aug-cc-pvdz
freeze_core True
guess SAD
}
energy('sapt2+')
--------------------------------------------------------------------------

  //              Dimer HF             //
    Molecular point group: c1
  Charge       = 0
  Multiplicity = 1
  Basis Set: AUG-CC-PVDZ
    Blend: AUG-CC-PVDZ
  Basis Set: (AUG-CC-PVDZ AUX)
    Blend: AUG-CC-PVDZ-JKFIT
  @DF-RHF Final Energy:  -659.25416940454556
    Total Energy =                       -659.2541694045455642
  //            Monomer A HF           //
    Molecular point group: c1
  Multiplicity = 1
  Basis Set: AUG-CC-PVDZ
    Blend: AUG-CC-PVDZ
  Basis Set: (AUG-CC-PVDZ AUX)
    Blend: AUG-CC-PVDZ-JKFIT
  @DF-RHF Final Energy:  -246.72386351103785
    Total Energy =                       -246.7238635110378482
  //            Monomer B HF           //
    Molecular point group: c1

    Geometry (in Angstrom), charge = 0, multiplicity = 1:

       Center              X                  Y                   Z               Mass
    ------------   -----------------  -----------------  -----------------  -----------------
      Gh(N)           1.044252427503    -0.088277487249    -3.416795087180    14.003074004430
      Gh(C)           0.445432427503    -1.275407487249    -3.593055087180    12.000000000000
      Gh(H)           1.084972427503    -2.146477487249    -3.527215087180     1.007825032230
      Gh(C)          -0.917817572497    -1.425607487249    -3.835335087180    12.000000000000
      Gh(H)          -1.336927572497    -2.413827487249    -3.959885087180     1.007825032230
      Gh(C)          -1.714377572497    -0.286897487249    -3.902975087180    12.000000000000
      Gh(H)          -2.777517572497    -0.362917487249    -4.085265087180     1.007825032230
      Gh(C)          -1.110127572497     0.953682512751    -3.726685087180    12.000000000000
      Gh(H)          -1.685317572497     1.867542512751    -3.758145087180     1.007825032230
      Gh(C)           0.261212427503     0.999152512751    -3.489155087180    12.000000000000
      Gh(H)           0.758192427503     1.951092512751    -3.348955087180     1.007825032230
         N           -0.620157572497    -0.252287487249     2.460124912820    14.003074004430
         H           -1.515047572497    -0.684147487249     2.275524912820     1.007825032230
         C           -0.619897572497     1.145532512751     2.553134912820    12.000000000000
         O           -1.659777572497     1.773722512751     2.438284912820    15.994914619570
         C            0.699592427503     1.704612512751     2.780694912820    12.000000000000
         H            0.800912427503     2.771832512751     2.876564912820     1.007825032230
         C            1.769472427503     0.885912512751     2.852214912820    12.000000000000
         H            2.773352427503     1.254582512751     3.000644912820     1.007825032230
         N            1.651402427503    -0.471377487249     2.739664912820    14.003074004430
         H            2.464842427503    -1.063567487249     2.731494912820     1.007825032230
         C            0.450962427503    -1.118607487249     2.513284912820    12.000000000000
         O            0.358822427503    -2.324027487249     2.379704912820    15.994914619570

  Charge       = 0
  Multiplicity = 1
  Basis Set: AUG-CC-PVDZ
    Blend: AUG-CC-PVDZ
  Basis Set: (AUG-CC-PVDZ AUX)
    Blend: AUG-CC-PVDZ-JKFIT

    Orbital Energies [Eh]
    ---------------------

    Doubly Occupied:

       1A    -20.558915     2A    -20.552948     3A    -15.652793
       4A    -15.635229     5A    -11.429203     6A    -11.389870
       7A    -11.348372     8A    -11.262581     9A     -1.442114
      10A     -1.403341    11A     -1.319236    12A     -1.250394
      13A     -1.092313    14A     -0.937669    15A     -0.905677
      16A     -0.810147    17A     -0.768195    18A     -0.716566
      19A     -0.680046    20A     -0.670288    21A     -0.655177
      22A     -0.616388    23A     -0.603004    24A     -0.571506
      25A     -0.526433    26A     -0.484504    27A     -0.449444
      28A     -0.436551    29A     -0.368841

  @DF-RHF Final Energy:  -412.52952293726850

   => Energetics <=

    Nuclear Repulsion Energy =            357.2357563784163403
    One-Electron Energy =               -1270.4550588929701007
    Two-Electron Energy =                 500.6897795772852646
    Total Energy =                       -412.5295229372684958

  Dipole Moment: [D]
     X:     4.9428      Y:     0.9081      Z:     0.6777     Total:     5.0710

    SAPT Results
  --------------------------------------------------------------------------------------------------------
    Electrostatics                 -0.62748237 [mEh]      -0.39375113 [kcal/mol]      -1.64745474 [kJ/mol]
      Elst10,r                     -0.75331278 [mEh]      -0.47271091 [kcal/mol]      -1.97782244 [kJ/mol]
      Elst12,r                      0.12583041 [mEh]       0.07895977 [kcal/mol]       0.33036769 [kJ/mol]

    Exchange                        0.00129483 [mEh]       0.00081252 [kcal/mol]       0.00339958 [kJ/mol]
      Exch10                        0.00123442 [mEh]       0.00077461 [kcal/mol]       0.00324097 [kJ/mol]
      Exch10(S^2)                   0.00123442 [mEh]       0.00077461 [kcal/mol]       0.00324097 [kJ/mol]
      Exch11(S^2)                  -0.00005602 [mEh]      -0.00003515 [kcal/mol]      -0.00014709 [kJ/mol]
      Exch12(S^2)                   0.00011643 [mEh]       0.00007306 [kcal/mol]       0.00030570 [kJ/mol]

    Induction                      -0.02301040 [mEh]      -0.01443924 [kcal/mol]      -0.06041380 [kJ/mol]
      Ind20,r                      -0.03074342 [mEh]      -0.01929179 [kcal/mol]      -0.08071684 [kJ/mol]
      Ind22                         0.00807324 [mEh]       0.00506604 [kcal/mol]       0.02119630 [kJ/mol]
      Exch-Ind20,r                  0.00078358 [mEh]       0.00049171 [kcal/mol]       0.00205730 [kJ/mol]
      Exch-Ind22                   -0.00020577 [mEh]      -0.00012912 [kcal/mol]      -0.00054025 [kJ/mol]
      delta HF,r (2)               -0.00091804 [mEh]      -0.00057608 [kcal/mol]      -0.00241031 [kJ/mol]

    Dispersion                     -0.47120499 [mEh]      -0.29568560 [kcal/mol]      -1.23714854 [kJ/mol]
      Disp20                       -0.51783386 [mEh]      -0.32494566 [kcal/mol]      -1.35957262 [kJ/mol]
      Disp21                        0.19425685 [mEh]       0.12189801 [kcal/mol]       0.51002129 [kJ/mol]
      Disp22 (SDQ)                 -0.02724997 [mEh]      -0.01709961 [kcal/mol]      -0.07154479 [kJ/mol]
      Disp22 (T)                   -0.11952885 [mEh]      -0.07500549 [kcal/mol]      -0.31382296 [kJ/mol]
      Est. Disp22 (T)              -0.12077730 [mEh]      -0.07578890 [kcal/mol]      -0.31710076 [kJ/mol]
      Exch-Disp20                   0.00039929 [mEh]       0.00025056 [kcal/mol]       0.00104834 [kJ/mol]

  Total HF                         -0.78295624 [mEh]      -0.49131246 [kcal/mol]      -2.05565132 [kJ/mol]
  Total SAPT0                      -1.30039081 [mEh]      -0.81600755 [kcal/mol]      -3.41417561 [kJ/mol]
  Total SAPT2                      -1.16663252 [mEh]      -0.73207296 [kcal/mol]      -3.06299325 [kJ/mol]
  Total SAPT2+                     -1.12040294 [mEh]      -0.70306346 [kcal/mol]      -2.94161751 [kJ/mol]

  Special recipe for scaled SAPT0 (see Manual):
    Electrostatics sSAPT0          -0.75331278 [mEh]      -0.47271091 [kcal/mol]      -1.97782244 [kJ/mol]
    Exchange sSAPT0                 0.00123442 [mEh]       0.00077461 [kcal/mol]       0.00324097 [kJ/mol]
    Induction sSAPT0               -0.03087788 [mEh]      -0.01937616 [kcal/mol]      -0.08106985 [kJ/mol]
    Dispersion sSAPT0              -0.51743457 [mEh]      -0.32469510 [kcal/mol]      -1.35852428 [kJ/mol]
  Total sSAPT0                     -1.30039081 [mEh]      -0.81600755 [kcal/mol]      -3.41417561 [kJ/mol]
  --------------------------------------------------------------------------------------------------------

*** Psi4 exiting successfully. Buy a developer a beer!
