                               Psi4 1.4a2.dev224

  ==> Input File <==

--------------------------------------------------------------------------
#Generated by lconvert.py for sapt job

memory 20 GB

molecule  {
0 1
  C       0.835520    1.115170    0.021400
  H       1.484320    1.980610    0.019530
  C       1.383280   -0.166150    0.023770
  H       2.457150   -0.295200    0.022770
  C       0.547560   -1.281320    0.021690
  H       0.972940   -2.275810    0.019780
  C      -0.835520   -1.115160    0.021400
  H      -1.484330   -1.980610    0.019530
  C      -1.383280    0.166150    0.023760
  H      -2.457160    0.295210    0.022760
  C      -0.547570    1.281320    0.021680
  H      -0.972940    2.275810    0.019770
--
0 1
  C       0.655780   -0.116790    4.518540
  H       1.047240   -1.123910    4.514080
  H       1.370860    0.693270    4.514040
  C      -0.655770    0.116790    4.518550
  H      -1.370850   -0.693270    4.514060
  H      -1.047240    1.123910    4.514090
units angstrom
no_reorient
symmetry c1
}

set {
scf_type DF
basis aug-cc-pvdz
freeze_core True
guess SAD
}
energy('sapt2+')
--------------------------------------------------------------------------

  //              Dimer HF             //
    Molecular point group: c1
  Charge       = 0
  Multiplicity = 1
  Basis Set: AUG-CC-PVDZ
    Blend: AUG-CC-PVDZ
  Basis Set: (AUG-CC-PVDZ AUX)
    Blend: AUG-CC-PVDZ-JKFIT
  @DF-RHF Final Energy:  -308.77073095048064
    Total Energy =                       -308.7707309504806403
  //            Monomer A HF           //
    Molecular point group: c1
  Multiplicity = 1
  Basis Set: AUG-CC-PVDZ
    Blend: AUG-CC-PVDZ
  Basis Set: (AUG-CC-PVDZ AUX)
    Blend: AUG-CC-PVDZ-JKFIT
  @DF-RHF Final Energy:  -230.72815175641938
    Total Energy =                       -230.7281517564193791
  //            Monomer B HF           //
    Molecular point group: c1

    Geometry (in Angstrom), charge = 0, multiplicity = 1:

       Center              X                  Y                   Z               Mass
    ------------   -----------------  -----------------  -----------------  -----------------
      Gh(C)           0.835520095008     1.115168773752    -1.188764684129    12.000000000000
      Gh(H)           1.484320095008     1.980608773752    -1.190634684129     1.007825032230
      Gh(C)           1.383280095008    -0.166151226248    -1.186394684129    12.000000000000
      Gh(H)           2.457150095008    -0.295201226248    -1.187394684129     1.007825032230
      Gh(C)           0.547560095008    -1.281321226248    -1.188474684129    12.000000000000
      Gh(H)           0.972940095008    -2.275811226248    -1.190384684129     1.007825032230
      Gh(C)          -0.835519904992    -1.115161226248    -1.188764684129    12.000000000000
      Gh(H)          -1.484329904992    -1.980611226248    -1.190634684129     1.007825032230
      Gh(C)          -1.383279904992     0.166148773752    -1.186404684129    12.000000000000
      Gh(H)          -2.457159904992     0.295208773752    -1.187404684129     1.007825032230
      Gh(C)          -0.547569904992     1.281318773752    -1.188484684129    12.000000000000
      Gh(H)          -0.972939904992     2.275808773752    -1.190394684129     1.007825032230
         C            0.655780095008    -0.116791226248     3.308375315871    12.000000000000
         H            1.047240095008    -1.123911226248     3.303915315871     1.007825032230
         H            1.370860095008     0.693268773752     3.303875315871     1.007825032230
         C           -0.655769904992     0.116788773752     3.308385315871    12.000000000000
         H           -1.370849904992    -0.693271226248     3.303895315871     1.007825032230
         H           -1.047239904992     1.123908773752     3.303925315871     1.007825032230

  Charge       = 0
  Multiplicity = 1
  Basis Set: AUG-CC-PVDZ
    Blend: AUG-CC-PVDZ
  Basis Set: (AUG-CC-PVDZ AUX)
    Blend: AUG-CC-PVDZ-JKFIT

    Orbital Energies [Eh]
    ---------------------

    Doubly Occupied:

       1A    -11.238747     2A    -11.237066     3A     -1.036959
       4A     -0.794319     5A     -0.644962     6A     -0.587488
       7A     -0.507904     8A     -0.376702

  @DF-RHF Final Energy:   -78.04363262049304

   => Energetics <=

    Nuclear Repulsion Energy =             33.4300619066981000
    One-Electron Energy =                -170.0990925188847882
    Two-Electron Energy =                  58.6253979916936672
    Total Energy =                        -78.0436326204930424

  Dipole Moment: [D]
     X:    -0.0000      Y:    -0.0000      Z:    -0.0137     Total:     0.0137

    SAPT Results
  --------------------------------------------------------------------------------------------------------
    Electrostatics                  0.51980501 [mEh]       0.32618257 [kcal/mol]       1.36474787 [kJ/mol]
      Elst10,r                      0.79812518 [mEh]       0.50083111 [kcal/mol]       2.09547736 [kJ/mol]
      Elst12,r                     -0.27832016 [mEh]      -0.17464854 [kcal/mol]      -0.73072949 [kJ/mol]

    Exchange                        0.39324727 [mEh]       0.24676639 [kcal/mol]       1.03247056 [kJ/mol]
      Exch10                        0.36258856 [mEh]       0.22752776 [kcal/mol]       0.95197613 [kJ/mol]
      Exch10(S^2)                   0.36246229 [mEh]       0.22744852 [kcal/mol]       0.95164462 [kJ/mol]
      Exch11(S^2)                   0.01478377 [mEh]       0.00927696 [kcal/mol]       0.03881479 [kJ/mol]
      Exch12(S^2)                   0.01587494 [mEh]       0.00996167 [kcal/mol]       0.04167964 [kJ/mol]

    Induction                      -0.09989225 [mEh]      -0.06268333 [kcal/mol]      -0.26226707 [kJ/mol]
      Ind20,r                      -0.19603354 [mEh]      -0.12301291 [kcal/mol]      -0.51468600 [kJ/mol]
      Ind22                         0.01711111 [mEh]       0.01073738 [kcal/mol]       0.04492521 [kJ/mol]
      Exch-Ind20,r                  0.11131204 [mEh]       0.06984936 [kcal/mol]       0.29224973 [kJ/mol]
      Exch-Ind22                   -0.00971605 [mEh]      -0.00609692 [kcal/mol]      -0.02550950 [kJ/mol]
      delta HF,r (2)               -0.02256580 [mEh]      -0.01416026 [kcal/mol]      -0.05924651 [kJ/mol]

    Dispersion                     -1.67309839 [mEh]      -1.04988509 [kcal/mol]      -4.39271922 [kJ/mol]
      Disp20                       -2.03689533 [mEh]      -1.27817112 [kcal/mol]      -5.34786796 [kJ/mol]
      Disp21                        0.49888963 [mEh]       0.31305797 [kcal/mol]       1.30983455 [kJ/mol]
      Disp22 (SDQ)                  0.14409391 [mEh]       0.09042029 [kcal/mol]       0.37831851 [kJ/mol]
      Disp22 (T)                   -0.35643872 [mEh]      -0.22366867 [kcal/mol]      -0.93582973 [kJ/mol]
      Est. Disp22 (T)              -0.38211889 [mEh]      -0.23978322 [kcal/mol]      -1.00325300 [kJ/mol]
      Exch-Disp20                   0.10293228 [mEh]       0.06459098 [kcal/mol]       0.27024867 [kJ/mol]

  Total HF                          1.05342643 [mEh]       0.66103507 [kcal/mol]       2.76577072 [kJ/mol]
  Total SAPT0                      -0.88053662 [mEh]      -0.55254507 [kcal/mol]      -2.31184857 [kJ/mol]
  Total SAPT2                      -1.12080302 [mEh]      -0.70331451 [kcal/mol]      -2.94266792 [kJ/mol]
  Total SAPT2+                     -0.85993836 [mEh]      -0.53961947 [kcal/mol]      -2.25776785 [kJ/mol]

  Special recipe for scaled SAPT0 (see Manual):
    Electrostatics sSAPT0           0.79812518 [mEh]       0.50083111 [kcal/mol]       2.09547736 [kJ/mol]
    Exchange sSAPT0                 0.36258856 [mEh]       0.22752776 [kcal/mol]       0.95197613 [kJ/mol]
    Induction sSAPT0               -0.10717094 [mEh]      -0.06725078 [kcal/mol]      -0.28137725 [kJ/mol]
    Dispersion sSAPT0              -1.93385544 [mEh]      -1.21351261 [kcal/mol]      -5.07733676 [kJ/mol]
  Total sSAPT0                     -0.88031264 [mEh]      -0.55240452 [kcal/mol]      -2.31126052 [kJ/mol]
  --------------------------------------------------------------------------------------------------------

*** Psi4 exiting successfully. Buy a developer a beer!
