                               Psi4 1.4a2.dev224

  ==> Input File <==

--------------------------------------------------------------------------
#Generated by lconvert.py for sapt job

memory 20 GB

molecule  {
0 1
  C       0.835520    1.115170    0.021400
  H       1.484320    1.980610    0.019530
  C       1.383280   -0.166150    0.023770
  H       2.457150   -0.295200    0.022770
  C       0.547560   -1.281320    0.021690
  H       0.972940   -2.275810    0.019780
  C      -0.835520   -1.115160    0.021400
  H      -1.484330   -1.980610    0.019530
  C      -1.383280    0.166150    0.023760
  H      -2.457160    0.295210    0.022760
  C      -0.547570    1.281320    0.021680
  H      -0.972940    2.275810    0.019770
--
0 1
  C       0.655790   -0.116790    5.582030
  H       1.047250   -1.123910    5.577560
  H       1.370860    0.693270    5.577520
  C      -0.655770    0.116790    5.582030
  H      -1.370840   -0.693270    5.577540
  H      -1.047230    1.123910    5.577580
units angstrom
no_reorient
symmetry c1
}

set {
scf_type DF
basis aug-cc-pvdz
freeze_core True
guess SAD
}
energy('sapt2+')
--------------------------------------------------------------------------

  //              Dimer HF             //
    Molecular point group: c1
  Charge       = 0
  Multiplicity = 1
  Basis Set: AUG-CC-PVDZ
    Blend: AUG-CC-PVDZ
  Basis Set: (AUG-CC-PVDZ AUX)
    Blend: AUG-CC-PVDZ-JKFIT
  @DF-RHF Final Energy:  -308.77115066995435
    Total Energy =                       -308.7711506699543520
  //            Monomer A HF           //
    Molecular point group: c1
  Multiplicity = 1
  Basis Set: AUG-CC-PVDZ
    Blend: AUG-CC-PVDZ
  Basis Set: (AUG-CC-PVDZ AUX)
    Blend: AUG-CC-PVDZ-JKFIT
  @DF-RHF Final Energy:  -230.72801732415979
    Total Energy =                       -230.7280173241597936
  //            Monomer B HF           //
    Molecular point group: c1

    Geometry (in Angstrom), charge = 0, multiplicity = 1:

       Center              X                  Y                   Z               Mass
    ------------   -----------------  -----------------  -----------------  -----------------
      Gh(C)           0.835518678744     1.115168773752    -1.469791728304    12.000000000000
      Gh(H)           1.484318678744     1.980608773752    -1.471661728304     1.007825032230
      Gh(C)           1.383278678744    -0.166151226248    -1.467421728304    12.000000000000
      Gh(H)           2.457148678744    -0.295201226248    -1.468421728304     1.007825032230
      Gh(C)           0.547558678744    -1.281321226248    -1.469501728304    12.000000000000
      Gh(H)           0.972938678744    -2.275811226248    -1.471411728304     1.007825032230
      Gh(C)          -0.835521321256    -1.115161226248    -1.469791728304    12.000000000000
      Gh(H)          -1.484331321256    -1.980611226248    -1.471661728304     1.007825032230
      Gh(C)          -1.383281321256     0.166148773752    -1.467431728304    12.000000000000
      Gh(H)          -2.457161321256     0.295208773752    -1.468431728304     1.007825032230
      Gh(C)          -0.547571321256     1.281318773752    -1.469511728304    12.000000000000
      Gh(H)          -0.972941321256     2.275808773752    -1.471421728304     1.007825032230
         C            0.655788678744    -0.116791226248     4.090838271696    12.000000000000
         H            1.047248678744    -1.123911226248     4.086368271696     1.007825032230
         H            1.370858678744     0.693268773752     4.086328271696     1.007825032230
         C           -0.655771321256     0.116788773752     4.090838271696    12.000000000000
         H           -1.370841321256    -0.693271226248     4.086348271696     1.007825032230
         H           -1.047231321256     1.123908773752     4.086388271696     1.007825032230

  Charge       = 0
  Multiplicity = 1
  Basis Set: AUG-CC-PVDZ
    Blend: AUG-CC-PVDZ
  Basis Set: (AUG-CC-PVDZ AUX)
    Blend: AUG-CC-PVDZ-JKFIT

    Orbital Energies [Eh]
    ---------------------

    Doubly Occupied:

       1A    -11.238781     2A    -11.237100     3A     -1.036961
       4A     -0.794324     5A     -0.644968     6A     -0.587486
       7A     -0.507911     8A     -0.376689

  @DF-RHF Final Energy:   -78.04357647011918

   => Energetics <=

    Nuclear Repulsion Energy =             33.4299978002247258
    One-Electron Energy =                -170.0987081993835943
    Two-Electron Energy =                  58.6251339290396842
    Total Energy =                        -78.0435764701191772

  Dipole Moment: [D]
     X:    -0.0000      Y:     0.0000      Z:    -0.0133     Total:     0.0133

    SAPT Results
  --------------------------------------------------------------------------------------------------------
    Electrostatics                  0.32134015 [mEh]       0.20164399 [kcal/mol]       0.84367845 [kJ/mol]
      Elst10,r                      0.45203817 [mEh]       0.28365823 [kcal/mol]       1.18682605 [kJ/mol]
      Elst12,r                     -0.13069802 [mEh]      -0.08201424 [kcal/mol]      -0.34314759 [kJ/mol]

    Exchange                        0.01454647 [mEh]       0.00912805 [kcal/mol]       0.03819175 [kJ/mol]
      Exch10                        0.01270616 [mEh]       0.00797323 [kcal/mol]       0.03336001 [kJ/mol]
      Exch10(S^2)                   0.01270594 [mEh]       0.00797310 [kcal/mol]       0.03335944 [kJ/mol]
      Exch11(S^2)                   0.00021097 [mEh]       0.00013239 [kcal/mol]       0.00055391 [kJ/mol]
      Exch12(S^2)                   0.00162934 [mEh]       0.00102243 [kcal/mol]       0.00427783 [kJ/mol]

    Induction                      -0.01808554 [mEh]      -0.01134885 [kcal/mol]      -0.04748358 [kJ/mol]
      Ind20,r                      -0.02854881 [mEh]      -0.01791465 [kcal/mol]      -0.07495488 [kJ/mol]
      Ind22                         0.00426101 [mEh]       0.00267382 [kcal/mol]       0.01118727 [kJ/mol]
      Exch-Ind20,r                  0.00486788 [mEh]       0.00305464 [kcal/mol]       0.01278061 [kJ/mol]
      Exch-Ind22                   -0.00072655 [mEh]      -0.00045592 [kcal/mol]      -0.00190755 [kJ/mol]
      delta HF,r (2)                0.00206093 [mEh]       0.00129325 [kcal/mol]       0.00541097 [kJ/mol]

    Dispersion                     -0.46746113 [mEh]      -0.29333629 [kcal/mol]      -1.22731902 [kJ/mol]
      Disp20                       -0.55034692 [mEh]      -0.34534791 [kcal/mol]      -1.44493565 [kJ/mol]
      Disp21                        0.14641012 [mEh]       0.09187374 [kcal/mol]       0.38439972 [kJ/mol]
      Disp22 (SDQ)                  0.03510789 [mEh]       0.02203053 [kcal/mol]       0.09217575 [kJ/mol]
      Disp22 (T)                   -0.10077527 [mEh]      -0.06323744 [kcal/mol]      -0.26458543 [kJ/mol]
      Est. Disp22 (T)              -0.10407767 [mEh]      -0.06530972 [kcal/mol]      -0.27325588 [kJ/mol]
      Exch-Disp20                   0.00544545 [mEh]       0.00341707 [kcal/mol]       0.01429703 [kJ/mol]

  Total HF                          0.44312432 [mEh]       0.27806471 [kcal/mol]       1.16342275 [kJ/mol]
  Total SAPT0                      -0.10177715 [mEh]      -0.06386612 [kcal/mol]      -0.26721586 [kJ/mol]
  Total SAPT2                      -0.22710039 [mEh]      -0.14250765 [kcal/mol]      -0.59625199 [kJ/mol]
  Total SAPT2+                     -0.14966004 [mEh]      -0.09391310 [kcal/mol]      -0.39293239 [kJ/mol]

  Special recipe for scaled SAPT0 (see Manual):
    Electrostatics sSAPT0           0.45203817 [mEh]       0.28365823 [kcal/mol]       1.18682605 [kJ/mol]
    Exchange sSAPT0                 0.01270616 [mEh]       0.00797323 [kcal/mol]       0.03336001 [kJ/mol]
    Induction sSAPT0               -0.02161975 [mEh]      -0.01356660 [kcal/mol]      -0.05676264 [kJ/mol]
    Dispersion sSAPT0              -0.54490119 [mEh]      -0.34193066 [kcal/mol]      -1.43063788 [kJ/mol]
  Total sSAPT0                     -0.10177662 [mEh]      -0.06386579 [kcal/mol]      -0.26721447 [kJ/mol]
  --------------------------------------------------------------------------------------------------------

*** Psi4 exiting successfully. Buy a developer a beer!
