                               Psi4 1.4a2.dev224

  ==> Input File <==

--------------------------------------------------------------------------
#Generated by lconvert.py for sapt job

memory 20 GB

molecule  {
0 1
  C       0.835520    1.115170    0.021400
  H       1.484320    1.980610    0.019530
  C       1.383280   -0.166150    0.023770
  H       2.457150   -0.295200    0.022770
  C       0.547560   -1.281320    0.021690
  H       0.972940   -2.275810    0.019780
  C      -0.835520   -1.115160    0.021400
  H      -1.484330   -1.980610    0.019530
  C      -1.383280    0.166150    0.023760
  H      -2.457160    0.295210    0.022760
  C      -0.547570    1.281320    0.021680
  H      -0.972940    2.275810    0.019770
--
0 1
  C       0.655790   -0.116790    6.645510
  H       1.047250   -1.123910    6.641040
  H       1.370860    0.693270    6.641010
  C      -0.655770    0.116790    6.645520
  H      -1.370840   -0.693270    6.641020
  H      -1.047230    1.123910    6.641060
units angstrom
no_reorient
symmetry c1
}

set {
scf_type DF
basis aug-cc-pvdz
freeze_core True
guess SAD
}
energy('sapt2+')
--------------------------------------------------------------------------

  //              Dimer HF             //
    Molecular point group: c1
  Charge       = 0
  Multiplicity = 1
  Basis Set: AUG-CC-PVDZ
    Blend: AUG-CC-PVDZ
  Basis Set: (AUG-CC-PVDZ AUX)
    Blend: AUG-CC-PVDZ-JKFIT
  @DF-RHF Final Energy:  -308.77125516884712
    Total Energy =                       -308.7712551688471194
  //            Monomer A HF           //
    Molecular point group: c1
  Multiplicity = 1
  Basis Set: AUG-CC-PVDZ
    Blend: AUG-CC-PVDZ
  Basis Set: (AUG-CC-PVDZ AUX)
    Blend: AUG-CC-PVDZ-JKFIT
  @DF-RHF Final Energy:  -230.72793687843961
    Total Energy =                       -230.7279368784396070
  //            Monomer B HF           //
    Molecular point group: c1

    Geometry (in Angstrom), charge = 0, multiplicity = 1:

       Center              X                  Y                   Z               Mass
    ------------   -----------------  -----------------  -----------------  -----------------
      Gh(C)           0.835518678744     1.115168773752    -1.750818772479    12.000000000000
      Gh(H)           1.484318678744     1.980608773752    -1.752688772479     1.007825032230
      Gh(C)           1.383278678744    -0.166151226248    -1.748448772479    12.000000000000
      Gh(H)           2.457148678744    -0.295201226248    -1.749448772479     1.007825032230
      Gh(C)           0.547558678744    -1.281321226248    -1.750528772479    12.000000000000
      Gh(H)           0.972938678744    -2.275811226248    -1.752438772479     1.007825032230
      Gh(C)          -0.835521321256    -1.115161226248    -1.750818772479    12.000000000000
      Gh(H)          -1.484331321256    -1.980611226248    -1.752688772479     1.007825032230
      Gh(C)          -1.383281321256     0.166148773752    -1.748458772479    12.000000000000
      Gh(H)          -2.457161321256     0.295208773752    -1.749458772479     1.007825032230
      Gh(C)          -0.547571321256     1.281318773752    -1.750538772479    12.000000000000
      Gh(H)          -0.972941321256     2.275808773752    -1.752448772479     1.007825032230
         C            0.655788678744    -0.116791226248     4.873291227521    12.000000000000
         H            1.047248678744    -1.123911226248     4.868821227521     1.007825032230
         H            1.370858678744     0.693268773752     4.868791227521     1.007825032230
         C           -0.655771321256     0.116788773752     4.873301227521    12.000000000000
         H           -1.370841321256    -0.693271226248     4.868801227521     1.007825032230
         H           -1.047231321256     1.123908773752     4.868841227521     1.007825032230

  Charge       = 0
  Multiplicity = 1
  Basis Set: AUG-CC-PVDZ
    Blend: AUG-CC-PVDZ
  Basis Set: (AUG-CC-PVDZ AUX)
    Blend: AUG-CC-PVDZ-JKFIT

    Orbital Energies [Eh]
    ---------------------

    Doubly Occupied:

       1A    -11.238805     2A    -11.237125     3A     -1.036972
       4A     -0.794332     5A     -0.644983     6A     -0.587491
       7A     -0.507925     8A     -0.376682

  @DF-RHF Final Energy:   -78.04354149276986

   => Energetics <=

    Nuclear Repulsion Energy =             33.4299976728157588
    One-Electron Energy =                -170.0984493900201073
    Two-Electron Energy =                  58.6249102244344797
    Total Energy =                        -78.0435414927698616

  Dipole Moment: [D]
     X:    -0.0000      Y:     0.0000      Z:    -0.0160     Total:     0.0160

    SAPT Results
  --------------------------------------------------------------------------------------------------------
    Electrostatics                  0.16560829 [mEh]       0.10392077 [kcal/mol]       0.43480452 [kJ/mol]
      Elst10,r                      0.22939665 [mEh]       0.14394857 [kcal/mol]       0.60228083 [kJ/mol]
      Elst12,r                     -0.06378836 [mEh]      -0.04002780 [kcal/mol]      -0.16747631 [kJ/mol]

    Exchange                        0.00044738 [mEh]       0.00028073 [kcal/mol]       0.00117459 [kJ/mol]
      Exch10                        0.00037745 [mEh]       0.00023686 [kcal/mol]       0.00099100 [kJ/mol]
      Exch10(S^2)                   0.00037745 [mEh]       0.00023686 [kcal/mol]       0.00099100 [kJ/mol]
      Exch11(S^2)                  -0.00001878 [mEh]      -0.00001178 [kcal/mol]      -0.00004930 [kJ/mol]
      Exch12(S^2)                   0.00008870 [mEh]       0.00005566 [kcal/mol]       0.00023288 [kJ/mol]

    Induction                      -0.00539070 [mEh]      -0.00338272 [kcal/mol]      -0.01415329 [kJ/mol]
      Ind20,r                      -0.00721768 [mEh]      -0.00452916 [kcal/mol]      -0.01895001 [kJ/mol]
      Ind22                         0.00121265 [mEh]       0.00076095 [kcal/mol]       0.00318382 [kJ/mol]
      Exch-Ind20,r                  0.00018815 [mEh]       0.00011807 [kcal/mol]       0.00049399 [kJ/mol]
      Exch-Ind22                   -0.00003161 [mEh]      -0.00001984 [kcal/mol]      -0.00008300 [kJ/mol]
      delta HF,r (2)                0.00045779 [mEh]       0.00028726 [kcal/mol]       0.00120192 [kJ/mol]

    Dispersion                     -0.16106952 [mEh]      -0.10107265 [kcal/mol]      -0.42288797 [kJ/mol]
      Disp20                       -0.18981825 [mEh]      -0.11911275 [kcal/mol]      -0.49836774 [kJ/mol]
      Disp21                        0.05311537 [mEh]       0.03333040 [kcal/mol]       0.13945439 [kJ/mol]
      Disp22 (SDQ)                  0.01113072 [mEh]       0.00698463 [kcal/mol]       0.02922371 [kJ/mol]
      Disp22 (T)                   -0.03510079 [mEh]      -0.02202608 [kcal/mol]      -0.09215711 [kJ/mol]
      Est. Disp22 (T)              -0.03579870 [mEh]      -0.02246402 [kcal/mol]      -0.09398948 [kJ/mol]
      Exch-Disp20                   0.00030133 [mEh]       0.00018909 [kcal/mol]       0.00079115 [kJ/mol]

  Total HF                          0.22320236 [mEh]       0.14006160 [kcal/mol]       0.58601772 [kJ/mol]
  Total SAPT0                       0.03368545 [mEh]       0.02113794 [kcal/mol]       0.08844113 [kJ/mol]
  Total SAPT2                      -0.02885194 [mEh]      -0.01810487 [kcal/mol]      -0.07575077 [kJ/mol]
  Total SAPT2+                     -0.00040455 [mEh]      -0.00025386 [kcal/mol]      -0.00106215 [kJ/mol]

  Special recipe for scaled SAPT0 (see Manual):
    Electrostatics sSAPT0           0.22939665 [mEh]       0.14394857 [kcal/mol]       0.60228083 [kJ/mol]
    Exchange sSAPT0                 0.00037745 [mEh]       0.00023686 [kcal/mol]       0.00099100 [kJ/mol]
    Induction sSAPT0               -0.00657174 [mEh]      -0.00412383 [kcal/mol]      -0.01725411 [kJ/mol]
    Dispersion sSAPT0              -0.18951691 [mEh]      -0.11892366 [kcal/mol]      -0.49757659 [kJ/mol]
  Total sSAPT0                      0.03368545 [mEh]       0.02113794 [kcal/mol]       0.08844113 [kJ/mol]
  --------------------------------------------------------------------------------------------------------

*** Psi4 exiting successfully. Buy a developer a beer!
