                               Psi4 1.4a2.dev224

  ==> Input File <==

--------------------------------------------------------------------------
#Generated by lconvert.py for sapt job

memory 20 GB

molecule  {
0 1
  N      -0.050870   -0.980080    0.033960
  H      -0.053220   -1.990690    0.049820
  C      -1.308810   -0.361880    0.004030
  O      -2.327220   -1.032550   -0.005830
  C      -1.236820    1.088050   -0.012220
  H      -2.152740    1.651460   -0.054770
  C      -0.035190    1.697840    0.033700
  H       0.070370    2.772480    0.031880
  N       1.134530    0.990280    0.091840
  H       2.023720    1.456770    0.155690
  C       1.193190   -0.391830    0.115780
  O       2.236400   -1.011190    0.194190
--
0 1
  C       0.774770    0.087110    5.217940
  H       1.291890   -0.783870    4.840710
  H       1.380380    0.874110    5.645250
  C      -0.554000    0.187700    5.168690
  H      -1.166010   -0.599780    4.751790
  H      -1.065830    1.058770    5.552690
units angstrom
no_reorient
symmetry c1
}

set {
scf_type DF
basis aug-cc-pvdz
freeze_core True
guess SAD
}
energy('sapt2+')
--------------------------------------------------------------------------

  //              Dimer HF             //
    Molecular point group: c1
  Charge       = 0
  Multiplicity = 1
  Basis Set: AUG-CC-PVDZ
    Blend: AUG-CC-PVDZ
  Basis Set: (AUG-CC-PVDZ AUX)
    Blend: AUG-CC-PVDZ-JKFIT
  @DF-RHF Final Energy:  -490.57386685574301
    Total Energy =                       -490.5738668557430628
  //            Monomer A HF           //
    Molecular point group: c1
  Multiplicity = 1
  Basis Set: AUG-CC-PVDZ
    Blend: AUG-CC-PVDZ
  Basis Set: (AUG-CC-PVDZ AUX)
    Blend: AUG-CC-PVDZ-JKFIT
  @DF-RHF Final Energy:  -412.52971237558887
    Total Energy =                       -412.5297123755888720
  //            Monomer B HF           //
    Molecular point group: c1

    Geometry (in Angstrom), charge = 0, multiplicity = 1:

       Center              X                  Y                   Z               Mass
    ------------   -----------------  -----------------  -----------------  -----------------
      Gh(N)          -0.051232162913    -0.977304388664    -1.053060919455    14.003074004430
      Gh(H)          -0.053582162913    -1.987914388664    -1.037200919455     1.007825032230
      Gh(C)          -1.309172162913    -0.359104388664    -1.082990919455    12.000000000000
      Gh(O)          -2.327582162913    -1.029774388664    -1.092850919455    15.994914619570
      Gh(C)          -1.237182162913     1.090825611336    -1.099240919455    12.000000000000
      Gh(H)          -2.153102162913     1.654235611336    -1.141790919455     1.007825032230
      Gh(C)          -0.035552162913     1.700615611336    -1.053320919455    12.000000000000
      Gh(H)           0.070007837087     2.775255611336    -1.055140919455     1.007825032230
      Gh(N)           1.134167837087     0.993055611336    -0.995180919455    14.003074004430
      Gh(H)           2.023357837087     1.459545611336    -0.931330919455     1.007825032230
      Gh(C)           1.192827837087    -0.389054388664    -0.971240919455    12.000000000000
      Gh(O)           2.236037837087    -1.008414388664    -0.892830919455    15.994914619570
         C            0.774407837087     0.089885611336     4.130919080545    12.000000000000
         H            1.291527837087    -0.781094388664     3.753689080545     1.007825032230
         H            1.380017837087     0.876885611336     4.558229080545     1.007825032230
         C           -0.554362162913     0.190475611336     4.081669080545    12.000000000000
         H           -1.166372162913    -0.597004388664     3.664769080545     1.007825032230
         H           -1.066192162913     1.061545611336     4.465669080545     1.007825032230

  Charge       = 0
  Multiplicity = 1
  Basis Set: AUG-CC-PVDZ
    Blend: AUG-CC-PVDZ
  Basis Set: (AUG-CC-PVDZ AUX)
    Blend: AUG-CC-PVDZ-JKFIT

    Orbital Energies [Eh]
    ---------------------

    Doubly Occupied:

       1A    -11.239184     2A    -11.237514     3A     -1.036456
       4A     -0.794575     5A     -0.644370     6A     -0.587689
       7A     -0.507802     8A     -0.376428

  @DF-RHF Final Energy:   -78.04357522749575

   => Energetics <=

    Nuclear Repulsion Energy =             33.4041570925336515
    One-Electron Energy =                -170.0474273495497073
    Two-Electron Energy =                  58.5996950295203192
    Total Energy =                        -78.0435752274957508

  Dipole Moment: [D]
     X:    -0.0007      Y:    -0.0006      Z:     0.0131     Total:     0.0131

    SAPT Results
  --------------------------------------------------------------------------------------------------------
    Electrostatics                 -0.38284021 [mEh]      -0.24023586 [kcal/mol]      -1.00514684 [kJ/mol]
      Elst10,r                     -0.57545113 [mEh]      -0.36110104 [kcal/mol]      -1.51084673 [kJ/mol]
      Elst12,r                      0.19261092 [mEh]       0.12086518 [kcal/mol]       0.50569989 [kJ/mol]

    Exchange                        0.03699938 [mEh]       0.02321746 [kcal/mol]       0.09714187 [kJ/mol]
      Exch10                        0.03658265 [mEh]       0.02295596 [kcal/mol]       0.09604773 [kJ/mol]
      Exch10(S^2)                   0.03658050 [mEh]       0.02295461 [kcal/mol]       0.09604208 [kJ/mol]
      Exch11(S^2)                   0.00044702 [mEh]       0.00028051 [kcal/mol]       0.00117364 [kJ/mol]
      Exch12(S^2)                  -0.00003028 [mEh]      -0.00001900 [kcal/mol]      -0.00007950 [kJ/mol]

    Induction                      -0.03143769 [mEh]      -0.01972745 [kcal/mol]      -0.08253964 [kJ/mol]
      Ind20,r                      -0.05769397 [mEh]      -0.03620351 [kcal/mol]      -0.15147549 [kJ/mol]
      Ind22                         0.01349982 [mEh]       0.00847126 [kcal/mol]       0.03544377 [kJ/mol]
      Exch-Ind20,r                  0.01945950 [mEh]       0.01221102 [kcal/mol]       0.05109090 [kJ/mol]
      Exch-Ind22                   -0.00455333 [mEh]      -0.00285726 [kcal/mol]      -0.01195477 [kJ/mol]
      delta HF,r (2)               -0.00214971 [mEh]      -0.00134896 [kcal/mol]      -0.00564405 [kJ/mol]

    Dispersion                     -0.72494467 [mEh]      -0.45490965 [kcal/mol]      -1.90334198 [kJ/mol]
      Disp20                       -0.78351954 [mEh]      -0.49166593 [kcal/mol]      -2.05713026 [kJ/mol]
      Disp21                        0.18387975 [mEh]       0.11538629 [kcal/mol]       0.48277623 [kJ/mol]
      Disp22 (SDQ)                  0.01468146 [mEh]       0.00921275 [kcal/mol]       0.03854616 [kJ/mol]
      Disp22 (T)                   -0.14325984 [mEh]      -0.08989691 [kcal/mol]      -0.37612866 [kJ/mol]
      Est. Disp22 (T)              -0.14931723 [mEh]      -0.09369798 [kcal/mol]      -0.39203234 [kJ/mol]
      Exch-Disp20                   0.00933088 [mEh]       0.00585522 [kcal/mol]       0.02449823 [kJ/mol]

  Total HF                         -0.57925266 [mEh]      -0.36348653 [kcal/mol]      -1.52082765 [kJ/mol]
  Total SAPT0                      -1.35344131 [mEh]      -0.84929725 [kcal/mol]      -3.55345968 [kJ/mol]
  Total SAPT2                      -1.15146717 [mEh]      -0.72255656 [kcal/mol]      -3.02317664 [kJ/mol]
  Total SAPT2+                     -1.10222319 [mEh]      -0.69165549 [kcal/mol]      -2.89388659 [kJ/mol]

  Special recipe for scaled SAPT0 (see Manual):
    Electrostatics sSAPT0          -0.57545113 [mEh]      -0.36110104 [kcal/mol]      -1.51084673 [kJ/mol]
    Exchange sSAPT0                 0.03658265 [mEh]       0.02295596 [kcal/mol]       0.09604773 [kJ/mol]
    Induction sSAPT0               -0.04038074 [mEh]      -0.02533930 [kcal/mol]      -0.10601962 [kJ/mol]
    Dispersion sSAPT0              -0.77418701 [mEh]      -0.48580968 [kcal/mol]      -2.03262771 [kJ/mol]
  Total sSAPT0                     -1.35343623 [mEh]      -0.84929406 [kcal/mol]      -3.55344634 [kJ/mol]
  --------------------------------------------------------------------------------------------------------

*** Psi4 exiting successfully. Buy a developer a beer!
