                               Psi4 1.4a2.dev224

  ==> Input File <==

--------------------------------------------------------------------------
#Generated by lconvert.py for sapt job

memory 20 GB

molecule  {
0 1
  N      -0.050870   -0.980080    0.033960
  H      -0.053220   -1.990690    0.049820
  C      -1.308810   -0.361880    0.004030
  O      -2.327220   -1.032550   -0.005830
  C      -1.236820    1.088050   -0.012220
  H      -2.152740    1.651460   -0.054770
  C      -0.035190    1.697840    0.033700
  H       0.070370    2.772480    0.031880
  N       1.134530    0.990280    0.091840
  H       2.023720    1.456770    0.155690
  C       1.193190   -0.391830    0.115780
  O       2.236400   -1.011190    0.194190
--
0 1
  C       0.798920    0.117850    6.119250
  H       1.316040   -0.753140    5.742030
  H       1.404540    0.904850    6.546570
  C      -0.529850    0.218440    6.070010
  H      -1.141860   -0.569040    5.653100
  H      -1.041680    1.089510    6.454010
units angstrom
no_reorient
symmetry c1
}

set {
scf_type DF
basis aug-cc-pvdz
freeze_core True
guess SAD
}
energy('sapt2+')
--------------------------------------------------------------------------

  //              Dimer HF             //
    Molecular point group: c1
  Charge       = 0
  Multiplicity = 1
  Basis Set: AUG-CC-PVDZ
    Blend: AUG-CC-PVDZ
  Basis Set: (AUG-CC-PVDZ AUX)
    Blend: AUG-CC-PVDZ-JKFIT
  @DF-RHF Final Energy:  -490.57354249799033
    Total Energy =                       -490.5735424979903883
  //            Monomer A HF           //
    Molecular point group: c1
  Multiplicity = 1
  Basis Set: AUG-CC-PVDZ
    Blend: AUG-CC-PVDZ
  Basis Set: (AUG-CC-PVDZ AUX)
    Blend: AUG-CC-PVDZ-JKFIT
  @DF-RHF Final Energy:  -412.52966452595177
    Total Energy =                       -412.5296645259517732
  //            Monomer B HF           //
    Molecular point group: c1

    Geometry (in Angstrom), charge = 0, multiplicity = 1:

       Center              X                  Y                   Z               Mass
    ------------   -----------------  -----------------  -----------------  -----------------
      Gh(N)          -0.056065611806    -0.983456615133    -1.233450023813    14.003074004430
      Gh(H)          -0.058415611806    -1.994066615133    -1.217590023813     1.007825032230
      Gh(C)          -1.314005611806    -0.365256615133    -1.263380023813    12.000000000000
      Gh(O)          -2.332415611806    -1.035926615133    -1.273240023813    15.994914619570
      Gh(C)          -1.242015611806     1.084673384867    -1.279630023813    12.000000000000
      Gh(H)          -2.157935611806     1.648083384867    -1.322180023813     1.007825032230
      Gh(C)          -0.040385611806     1.694463384867    -1.233710023813    12.000000000000
      Gh(H)           0.065174388194     2.769103384867    -1.235530023813     1.007825032230
      Gh(N)           1.129334388194     0.986903384867    -1.175570023813    14.003074004430
      Gh(H)           2.018524388194     1.453393384867    -1.111720023813     1.007825032230
      Gh(C)           1.187994388194    -0.395206615133    -1.151630023813    12.000000000000
      Gh(O)           2.231204388194    -1.014566615133    -1.073220023813    15.994914619570
         C            0.793724388194     0.114473384867     4.851839976187    12.000000000000
         H            1.310844388194    -0.756516615133     4.474619976187     1.007825032230
         H            1.399344388194     0.901473384867     5.279159976187     1.007825032230
         C           -0.535045611806     0.215063384867     4.802599976187    12.000000000000
         H           -1.147055611806    -0.572416615133     4.385689976187     1.007825032230
         H           -1.046875611806     1.086133384867     5.186599976187     1.007825032230

  Charge       = 0
  Multiplicity = 1
  Basis Set: AUG-CC-PVDZ
    Blend: AUG-CC-PVDZ
  Basis Set: (AUG-CC-PVDZ AUX)
    Blend: AUG-CC-PVDZ-JKFIT

    Orbital Energies [Eh]
    ---------------------

    Doubly Occupied:

       1A    -11.239196     2A    -11.237526     3A     -1.036454
       4A     -0.794573     5A     -0.644369     6A     -0.587683
       7A     -0.507801     8A     -0.376418

  @DF-RHF Final Energy:   -78.04353775786701

   => Energetics <=

    Nuclear Repulsion Energy =             33.4040971434768323
    One-Electron Energy =                -170.0472300188166628
    Two-Electron Energy =                  58.5995951174728162
    Total Energy =                        -78.0435377578670142

  Dipole Moment: [D]
     X:    -0.0008      Y:    -0.0022      Z:     0.0119     Total:     0.0121

    SAPT Results
  --------------------------------------------------------------------------------------------------------
    Electrostatics                 -0.21892965 [mEh]      -0.13738043 [kcal/mol]      -0.57479971 [kJ/mol]
      Elst10,r                     -0.32672186 [mEh]      -0.20502106 [kcal/mol]      -0.85780813 [kJ/mol]
      Elst12,r                      0.10779221 [mEh]       0.06764064 [kcal/mol]       0.28300842 [kJ/mol]

    Exchange                        0.00226727 [mEh]       0.00142273 [kcal/mol]       0.00595271 [kJ/mol]
      Exch10                        0.00232987 [mEh]       0.00146201 [kcal/mol]       0.00611707 [kJ/mol]
      Exch10(S^2)                   0.00232986 [mEh]       0.00146201 [kcal/mol]       0.00611704 [kJ/mol]
      Exch11(S^2)                  -0.00000931 [mEh]      -0.00000584 [kcal/mol]      -0.00002445 [kJ/mol]
      Exch12(S^2)                  -0.00005329 [mEh]      -0.00003344 [kcal/mol]      -0.00013991 [kJ/mol]

    Induction                      -0.01133590 [mEh]      -0.00711338 [kcal/mol]      -0.02976240 [kJ/mol]
      Ind20,r                      -0.01666766 [mEh]      -0.01045912 [kcal/mol]      -0.04376095 [kJ/mol]
      Ind22                         0.00487632 [mEh]       0.00305994 [kcal/mol]       0.01280279 [kJ/mol]
      Exch-Ind20,r                  0.00133320 [mEh]       0.00083660 [kcal/mol]       0.00350033 [kJ/mol]
      Exch-Ind22                   -0.00039004 [mEh]      -0.00024476 [kcal/mol]      -0.00102406 [kJ/mol]
      delta HF,r (2)               -0.00048772 [mEh]      -0.00030605 [kcal/mol]      -0.00128050 [kJ/mol]

    Dispersion                     -0.27632203 [mEh]      -0.17339469 [kcal/mol]      -0.72548339 [kJ/mol]
      Disp20                       -0.29850508 [mEh]      -0.18731476 [kcal/mol]      -0.78372497 [kJ/mol]
      Disp21                        0.07319444 [mEh]       0.04593020 [kcal/mol]       0.19217197 [kJ/mol]
      Disp22 (SDQ)                  0.00544743 [mEh]       0.00341831 [kcal/mol]       0.01430222 [kJ/mol]
      Disp22 (T)                   -0.05602030 [mEh]      -0.03515327 [kcal/mol]      -0.14708128 [kJ/mol]
      Est. Disp22 (T)              -0.05718676 [mEh]      -0.03588523 [kcal/mol]      -0.15014382 [kJ/mol]
      Exch-Disp20                   0.00072794 [mEh]       0.00045679 [kcal/mol]       0.00191121 [kJ/mol]

  Total HF                         -0.34021417 [mEh]      -0.21348762 [kcal/mol]      -0.89323218 [kJ/mol]
  Total SAPT0                      -0.63799131 [mEh]      -0.40034559 [kcal/mol]      -1.67504594 [kJ/mol]
  Total SAPT2                      -0.52577542 [mEh]      -0.32992905 [kcal/mol]      -1.38042317 [kJ/mol]
  Total SAPT2+                     -0.50432031 [mEh]      -0.31646577 [kcal/mol]      -1.32409279 [kJ/mol]

  Special recipe for scaled SAPT0 (see Manual):
    Electrostatics sSAPT0          -0.32672186 [mEh]      -0.20502106 [kcal/mol]      -0.85780813 [kJ/mol]
    Exchange sSAPT0                 0.00232987 [mEh]       0.00146201 [kcal/mol]       0.00611707 [kJ/mol]
    Induction sSAPT0               -0.01582218 [mEh]      -0.00992857 [kcal/mol]      -0.04154112 [kJ/mol]
    Dispersion sSAPT0              -0.29777713 [mEh]      -0.18685797 [kcal/mol]      -0.78181376 [kJ/mol]
  Total sSAPT0                     -0.63799131 [mEh]      -0.40034559 [kcal/mol]      -1.67504594 [kJ/mol]
  --------------------------------------------------------------------------------------------------------

*** Psi4 exiting successfully. Buy a developer a beer!
