                               Psi4 1.4a2.dev224

  ==> Input File <==

--------------------------------------------------------------------------
#Generated by lconvert.py for sapt job

memory 20 GB

molecule  {
0 1
  N      -0.050870   -0.980080    0.033960
  H      -0.053220   -1.990690    0.049820
  C      -1.308810   -0.361880    0.004030
  O      -2.327220   -1.032550   -0.005830
  C      -1.236820    1.088050   -0.012220
  H      -2.152740    1.651460   -0.054770
  C      -0.035190    1.697840    0.033700
  H       0.070370    2.772480    0.031880
  N       1.134530    0.990280    0.091840
  H       2.023720    1.456770    0.155690
  C       1.193190   -0.391830    0.115780
  O       2.236400   -1.011190    0.194190
--
0 1
  C       0.750620    0.056380    4.316620
  H       1.267740   -0.814610    3.939400
  H       1.356230    0.843370    4.743940
  C      -0.578160    0.156970    4.267380
  H      -1.190160   -0.630510    3.850480
  H      -1.089980    1.028040    4.651380
units angstrom
no_reorient
symmetry c1
}

set {
scf_type DF
basis aug-cc-pvdz
freeze_core True
guess SAD
}
energy('sapt2+')
--------------------------------------------------------------------------

  //              Dimer HF             //
    Molecular point group: c1
  Charge       = 0
  Multiplicity = 1
  Basis Set: AUG-CC-PVDZ
    Blend: AUG-CC-PVDZ
  Basis Set: (AUG-CC-PVDZ AUX)
    Blend: AUG-CC-PVDZ-JKFIT
  @DF-RHF Final Energy:  -490.57432008154910
    Total Energy =                       -490.5743200815491036
  //            Monomer A HF           //
    Molecular point group: c1
  Multiplicity = 1
  Basis Set: AUG-CC-PVDZ
    Blend: AUG-CC-PVDZ
  Basis Set: (AUG-CC-PVDZ AUX)
    Blend: AUG-CC-PVDZ-JKFIT
  @DF-RHF Final Energy:  -412.52982798969123
    Total Energy =                       -412.5298279896912277
  //            Monomer B HF           //
    Molecular point group: c1

    Geometry (in Angstrom), charge = 0, multiplicity = 1:

       Center              X                  Y                   Z               Mass
    ------------   -----------------  -----------------  -----------------  -----------------
      Gh(N)          -0.046397929194    -0.971153947721    -0.872672030969    14.003074004430
      Gh(H)          -0.048747929194    -1.981763947721    -0.856812030969     1.007825032230
      Gh(C)          -1.304337929194    -0.352953947721    -0.902602030969    12.000000000000
      Gh(O)          -2.322747929194    -1.023623947721    -0.912462030969    15.994914619570
      Gh(C)          -1.232347929194     1.096976052279    -0.918852030969    12.000000000000
      Gh(H)          -2.148267929194     1.660386052279    -0.961402030969     1.007825032230
      Gh(C)          -0.030717929194     1.706766052279    -0.872932030969    12.000000000000
      Gh(H)           0.074842070806     2.781406052279    -0.874752030969     1.007825032230
      Gh(N)           1.139002070806     0.999206052279    -0.814792030969    14.003074004430
      Gh(H)           2.028192070806     1.465696052279    -0.750942030969     1.007825032230
      Gh(C)           1.197662070806    -0.382903947721    -0.790852030969    12.000000000000
      Gh(O)           2.240872070806    -1.002263947721    -0.712442030969    15.994914619570
         C            0.755092070806     0.065306052279     3.409987969031    12.000000000000
         H            1.272212070806    -0.805683947721     3.032767969031     1.007825032230
         H            1.360702070806     0.852296052279     3.837307969031     1.007825032230
         C           -0.573687929194     0.165896052279     3.360747969031    12.000000000000
         H           -1.185687929194    -0.621583947721     2.943847969031     1.007825032230
         H           -1.085507929194     1.036966052279     3.744747969031     1.007825032230

  Charge       = 0
  Multiplicity = 1
  Basis Set: AUG-CC-PVDZ
    Blend: AUG-CC-PVDZ
  Basis Set: (AUG-CC-PVDZ AUX)
    Blend: AUG-CC-PVDZ-JKFIT

    Orbital Energies [Eh]
    ---------------------

    Doubly Occupied:

       1A    -11.239134     2A    -11.237465     3A     -1.036415
       4A     -0.794540     5A     -0.644332     6A     -0.587648
       7A     -0.507772     8A     -0.376419

  @DF-RHF Final Energy:   -78.04366121829911

   => Energetics <=

    Nuclear Repulsion Energy =             33.4040656780556233
    One-Electron Energy =                -170.0480020979908886
    Two-Electron Energy =                  58.6002752016361725
    Total Energy =                        -78.0436612182990928

  Dipole Moment: [D]
     X:    -0.0006      Y:    -0.0014      Z:     0.0119     Total:     0.0120

    SAPT Results
  --------------------------------------------------------------------------------------------------------
    Electrostatics                 -0.91136056 [mEh]      -0.57188739 [kcal/mol]      -2.39277683 [kJ/mol]
      Elst10,r                     -1.27074266 [mEh]      -0.79740306 [kcal/mol]      -3.33633439 [kJ/mol]
      Elst12,r                      0.35938209 [mEh]       0.22551567 [kcal/mol]       0.94355756 [kJ/mol]

    Exchange                        0.59904607 [mEh]       0.37590708 [kcal/mol]       1.57279523 [kJ/mol]
      Exch10                        0.58222500 [mEh]       0.36535171 [kcal/mol]       1.52863154 [kJ/mol]
      Exch10(S^2)                   0.58187291 [mEh]       0.36513077 [kcal/mol]       1.52770713 [kJ/mol]
      Exch11(S^2)                   0.01212212 [mEh]       0.00760675 [kcal/mol]       0.03182663 [kJ/mol]
      Exch12(S^2)                   0.00469894 [mEh]       0.00294863 [kcal/mol]       0.01233706 [kJ/mol]

    Induction                      -0.12817124 [mEh]      -0.08042867 [kcal/mol]      -0.33651355 [kJ/mol]
      Ind20,r                      -0.42102007 [mEh]      -0.26419408 [kcal/mol]      -1.10538805 [kJ/mol]
      Ind22                         0.05248119 [mEh]       0.03293244 [kcal/mol]       0.13778935 [kJ/mol]
      Exch-Ind20,r                  0.30722640 [mEh]       0.19278748 [kcal/mol]       0.80662281 [kJ/mol]
      Exch-Ind22                   -0.03829653 [mEh]      -0.02403143 [kcal/mol]      -0.10054752 [kJ/mol]
      delta HF,r (2)               -0.02856224 [mEh]      -0.01792307 [kcal/mol]      -0.07499014 [kJ/mol]

    Dispersion                     -2.25092091 [mEh]      -1.41247420 [kcal/mol]      -5.90979204 [kJ/mol]
      Disp20                       -2.49342427 [mEh]      -1.56464735 [kcal/mol]      -6.54648451 [kJ/mol]
      Disp21                        0.54511300 [mEh]       0.34206357 [kcal/mol]       1.43119399 [kJ/mol]
      Disp22 (SDQ)                  0.04766266 [mEh]       0.02990877 [kcal/mol]       0.12513831 [kJ/mol]
      Disp22 (T)                   -0.43789977 [mEh]      -0.27478626 [kcal/mol]      -1.14970570 [kJ/mol]
      Est. Disp22 (T)              -0.46912265 [mEh]      -0.29437891 [kcal/mol]      -1.23168135 [kJ/mol]
      Exch-Disp20                   0.11885034 [mEh]       0.07457971 [kcal/mol]       0.31204152 [kJ/mol]

  Total HF                         -0.83087356 [mEh]      -0.52138103 [kcal/mol]      -2.18145823 [kJ/mol]
  Total SAPT0                      -3.20544749 [mEh]      -2.01144867 [kcal/mol]      -8.41590122 [kJ/mol]
  Total SAPT2                      -2.81505967 [mEh]      -1.76647661 [kcal/mol]      -7.39093815 [kJ/mol]
  Total SAPT2+                     -2.69140665 [mEh]      -1.68888317 [kcal/mol]      -7.06628720 [kJ/mol]

  Special recipe for scaled SAPT0 (see Manual):
    Electrostatics sSAPT0          -1.27074266 [mEh]      -0.79740306 [kcal/mol]      -3.33633439 [kJ/mol]
    Exchange sSAPT0                 0.58222500 [mEh]       0.36535171 [kcal/mol]       1.52863154 [kJ/mol]
    Induction sSAPT0               -0.14179786 [mEh]      -0.08897950 [kcal/mol]      -0.37229023 [kJ/mol]
    Dispersion sSAPT0              -2.37435805 [mEh]      -1.48993217 [kcal/mol]      -6.23387620 [kJ/mol]
  Total sSAPT0                     -3.20467357 [mEh]      -2.01096302 [kcal/mol]      -8.41386929 [kJ/mol]
  --------------------------------------------------------------------------------------------------------

*** Psi4 exiting successfully. Buy a developer a beer!
