                               Psi4 1.4a2.dev224

  ==> Input File <==

--------------------------------------------------------------------------
#Generated by lconvert.py for sapt job

memory 20 GB

molecule  {
0 1
  N       1.381380   -0.000230    0.131460
  C       0.679350   -1.140240    0.092080
  H       1.258720   -2.054960    0.125880
  C      -0.709720   -1.193110    0.006660
  H      -1.214090   -2.148560   -0.025310
  C      -1.421610    0.000130   -0.040820
  H      -2.500700    0.000260   -0.109170
  C      -0.709400    1.193180    0.006520
  H      -1.213510    2.148750   -0.025530
  C       0.679650    1.139960    0.091890
  H       1.259260    2.054510    0.125500
--
0 1
  C       0.045170    0.666560    6.327960
  H       0.955650    1.226050    6.168850
  H      -0.864370    1.228970    6.484920
  C       0.045510   -0.666120    6.328090
  H       0.956240   -1.225210    6.169080
  H      -0.863780   -1.228950    6.485180
units angstrom
no_reorient
symmetry c1
}

set {
scf_type DF
basis aug-cc-pvdz
freeze_core True
guess SAD
}
energy('sapt2+')
--------------------------------------------------------------------------

  //              Dimer HF             //
    Molecular point group: c1
  Charge       = 0
  Multiplicity = 1
  Basis Set: AUG-CC-PVDZ
    Blend: AUG-CC-PVDZ
  Basis Set: (AUG-CC-PVDZ AUX)
    Blend: AUG-CC-PVDZ-JKFIT
  @DF-RHF Final Energy:  -324.76735284504377
    Total Energy =                       -324.7673528450437743
  //            Monomer A HF           //
    Molecular point group: c1
  Multiplicity = 1
  Basis Set: AUG-CC-PVDZ
    Blend: AUG-CC-PVDZ
  Basis Set: (AUG-CC-PVDZ AUX)
    Blend: AUG-CC-PVDZ-JKFIT
  @DF-RHF Final Energy:  -246.72396209104954
    Total Energy =                       -246.7239620910495432
  //            Monomer B HF           //
    Molecular point group: c1

    Geometry (in Angstrom), charge = 0, multiplicity = 1:

       Center              X                  Y                   Z               Mass
    ------------   -----------------  -----------------  -----------------  -----------------
      Gh(N)           1.377579215393    -0.000248361429    -1.560719264020    14.003074004430
      Gh(C)           0.675549215393    -1.140258361429    -1.600099264020    12.000000000000
      Gh(H)           1.254919215393    -2.054978361429    -1.566299264020     1.007825032230
      Gh(C)          -0.713520784607    -1.193128361429    -1.685519264020    12.000000000000
      Gh(H)          -1.217890784607    -2.148578361429    -1.717489264020     1.007825032230
      Gh(C)          -1.425410784607     0.000111638571    -1.732999264020    12.000000000000
      Gh(H)          -2.504500784607     0.000241638571    -1.801349264020     1.007825032230
      Gh(C)          -0.713200784607     1.193161638571    -1.685659264020    12.000000000000
      Gh(H)          -1.217310784607     2.148731638571    -1.717709264020     1.007825032230
      Gh(C)           0.675849215393     1.139941638571    -1.600289264020    12.000000000000
      Gh(H)           1.255459215393     2.054491638571    -1.566679264020     1.007825032230
         C            0.041369215393     0.666541638571     4.635780735980    12.000000000000
         H            0.951849215393     1.226031638571     4.476670735980     1.007825032230
         H           -0.868170784607     1.228951638571     4.792740735980     1.007825032230
         C            0.041709215393    -0.666138361429     4.635910735980    12.000000000000
         H            0.952439215393    -1.225228361429     4.476900735980     1.007825032230
         H           -0.867580784607    -1.228968361429     4.793000735980     1.007825032230

  Charge       = 0
  Multiplicity = 1
  Basis Set: AUG-CC-PVDZ
    Blend: AUG-CC-PVDZ
  Basis Set: (AUG-CC-PVDZ AUX)
    Blend: AUG-CC-PVDZ-JKFIT

    Orbital Energies [Eh]
    ---------------------

    Doubly Occupied:

       1A    -11.238863     2A    -11.237186     3A     -1.036864
       4A     -0.794166     5A     -0.645150     6A     -0.587074
       7A     -0.508132     8A     -0.376563

  @DF-RHF Final Energy:   -78.04353842065426

   => Energetics <=

    Nuclear Repulsion Energy =             33.4239844456542556
    One-Electron Energy =                -170.0870471071352767
    Two-Electron Energy =                  58.6195242408267774
    Total Energy =                        -78.0435384206542579

  Dipole Moment: [D]
     X:    -0.0011      Y:     0.0000      Z:    -0.0037     Total:     0.0039

    SAPT Results
  --------------------------------------------------------------------------------------------------------
    Electrostatics                  0.09142828 [mEh]       0.05737211 [kcal/mol]       0.24004492 [kJ/mol]
      Elst10,r                      0.15393241 [mEh]       0.09659405 [kcal/mol]       0.40414949 [kJ/mol]
      Elst12,r                     -0.06250413 [mEh]      -0.03922193 [kcal/mol]      -0.16410457 [kJ/mol]

    Exchange                        0.00127852 [mEh]       0.00080228 [kcal/mol]       0.00335676 [kJ/mol]
      Exch10                        0.00111793 [mEh]       0.00070151 [kcal/mol]       0.00293512 [kJ/mol]
      Exch10(S^2)                   0.00111793 [mEh]       0.00070151 [kcal/mol]       0.00293512 [kJ/mol]
      Exch11(S^2)                  -0.00003335 [mEh]      -0.00002093 [kcal/mol]      -0.00008757 [kJ/mol]
      Exch12(S^2)                   0.00019394 [mEh]       0.00012170 [kcal/mol]       0.00050920 [kJ/mol]

    Induction                      -0.00608274 [mEh]      -0.00381697 [kcal/mol]      -0.01597022 [kJ/mol]
      Ind20,r                      -0.00854423 [mEh]      -0.00536159 [kcal/mol]      -0.02243288 [kJ/mol]
      Ind22                         0.00139065 [mEh]       0.00087264 [kcal/mol]       0.00365114 [kJ/mol]
      Exch-Ind20,r                  0.00055113 [mEh]       0.00034584 [kcal/mol]       0.00144700 [kJ/mol]
      Exch-Ind22                   -0.00008970 [mEh]      -0.00005629 [kcal/mol]      -0.00023551 [kJ/mol]
      delta HF,r (2)                0.00060942 [mEh]       0.00038242 [kcal/mol]       0.00160003 [kJ/mol]

    Dispersion                     -0.20946624 [mEh]      -0.13144205 [kcal/mol]      -0.54995354 [kJ/mol]
      Disp20                       -0.24395062 [mEh]      -0.15308132 [kcal/mol]      -0.64049226 [kJ/mol]
      Disp21                        0.06828850 [mEh]       0.04285168 [kcal/mol]       0.17929142 [kJ/mol]
      Disp22 (SDQ)                  0.01231979 [mEh]       0.00773078 [kcal/mol]       0.03234560 [kJ/mol]
      Disp22 (T)                   -0.04562859 [mEh]      -0.02863237 [kcal/mol]      -0.11979785 [kJ/mol]
      Est. Disp22 (T)              -0.04673825 [mEh]      -0.02932869 [kcal/mol]      -0.12271125 [kJ/mol]
      Exch-Disp20                   0.00061434 [mEh]       0.00038551 [kcal/mol]       0.00161296 [kJ/mol]

  Total HF                          0.14766666 [mEh]       0.09266223 [kcal/mol]       0.38769876 [kJ/mol]
  Total SAPT0                      -0.09566962 [mEh]      -0.06003359 [kcal/mol]      -0.25118054 [kJ/mol]
  Total SAPT2                      -0.15671221 [mEh]      -0.09833840 [kcal/mol]      -0.41144785 [kJ/mol]
  Total SAPT2+                     -0.12284217 [mEh]      -0.07708463 [kcal/mol]      -0.32252208 [kJ/mol]

  Special recipe for scaled SAPT0 (see Manual):
    Electrostatics sSAPT0           0.15393241 [mEh]       0.09659405 [kcal/mol]       0.40414949 [kJ/mol]
    Exchange sSAPT0                 0.00111793 [mEh]       0.00070151 [kcal/mol]       0.00293512 [kJ/mol]
    Induction sSAPT0               -0.00738368 [mEh]      -0.00463333 [kcal/mol]      -0.01938585 [kJ/mol]
    Dispersion sSAPT0              -0.24333628 [mEh]      -0.15269582 [kcal/mol]      -0.63887931 [kJ/mol]
  Total sSAPT0                     -0.09566962 [mEh]      -0.06003359 [kcal/mol]      -0.25118054 [kJ/mol]
  --------------------------------------------------------------------------------------------------------

*** Psi4 exiting successfully. Buy a developer a beer!
