                               Psi4 1.4a2.dev224

  ==> Input File <==

--------------------------------------------------------------------------
#Generated by lconvert.py for sapt job

memory 20 GB

molecule  {
0 1
  N       1.381380   -0.000230    0.131460
  C       0.679350   -1.140240    0.092080
  H       1.258720   -2.054960    0.125880
  C      -0.709720   -1.193110    0.006660
  H      -1.214090   -2.148560   -0.025310
  C      -1.421610    0.000130   -0.040820
  H      -2.500700    0.000260   -0.109170
  C      -0.709400    1.193180    0.006520
  H      -1.213510    2.148750   -0.025530
  C       0.679650    1.139960    0.091890
  H       1.259260    2.054510    0.125500
--
0 1
  C       0.027820    0.666480    4.400330
  H       0.938300    1.225960    4.241220
  H      -0.881720    1.228880    4.557290
  C       0.028160   -0.666210    4.400460
  H       0.938890   -1.225290    4.241450
  H      -0.881130   -1.229030    4.557550
units angstrom
no_reorient
symmetry c1
}

set {
scf_type DF
basis aug-cc-pvdz
freeze_core True
guess SAD
}
energy('sapt2+')
--------------------------------------------------------------------------

  //              Dimer HF             //
    Molecular point group: c1
  Charge       = 0
  Multiplicity = 1
  Basis Set: AUG-CC-PVDZ
    Blend: AUG-CC-PVDZ
  Basis Set: (AUG-CC-PVDZ AUX)
    Blend: AUG-CC-PVDZ-JKFIT
  @DF-RHF Final Energy:  -324.76701451157982
    Total Energy =                       -324.7670145115798164
  //            Monomer A HF           //
    Molecular point group: c1
  Multiplicity = 1
  Basis Set: AUG-CC-PVDZ
    Blend: AUG-CC-PVDZ
  Basis Set: (AUG-CC-PVDZ AUX)
    Blend: AUG-CC-PVDZ-JKFIT
  @DF-RHF Final Energy:  -246.72411075775088
    Total Energy =                       -246.7241107577508501
  //            Monomer B HF           //
    Molecular point group: c1

    Geometry (in Angstrom), charge = 0, multiplicity = 1:

       Center              X                  Y                   Z               Mass
    ------------   -----------------  -----------------  -----------------  -----------------
      Gh(N)           1.382121357570    -0.000226108860    -1.056075487329    14.003074004430
      Gh(C)           0.680091357570    -1.140236108860    -1.095455487329    12.000000000000
      Gh(H)           1.259461357570    -2.054956108860    -1.061655487329     1.007825032230
      Gh(C)          -0.708978642430    -1.193106108860    -1.180875487329    12.000000000000
      Gh(H)          -1.213348642430    -2.148556108860    -1.212845487329     1.007825032230
      Gh(C)          -1.420868642430     0.000133891140    -1.228355487329    12.000000000000
      Gh(H)          -2.499958642430     0.000263891140    -1.296705487329     1.007825032230
      Gh(C)          -0.708658642430     1.193183891140    -1.181015487329    12.000000000000
      Gh(H)          -1.212768642430     2.148753891140    -1.213065487329     1.007825032230
      Gh(C)           0.680391357570     1.139963891140    -1.095645487329    12.000000000000
      Gh(H)           1.260001357570     2.054513891140    -1.062035487329     1.007825032230
         C            0.028561357570     0.666483891140     3.212794512671    12.000000000000
         H            0.939041357570     1.225963891140     3.053684512671     1.007825032230
         H           -0.880978642430     1.228883891140     3.369754512671     1.007825032230
         C            0.028901357570    -0.666206108860     3.212924512671    12.000000000000
         H            0.939631357570    -1.225286108860     3.053914512671     1.007825032230
         H           -0.880388642430    -1.229026108860     3.370014512671     1.007825032230

  Charge       = 0
  Multiplicity = 1
  Basis Set: AUG-CC-PVDZ
    Blend: AUG-CC-PVDZ
  Basis Set: (AUG-CC-PVDZ AUX)
    Blend: AUG-CC-PVDZ-JKFIT

    Orbital Energies [Eh]
    ---------------------

    Doubly Occupied:

       1A    -11.238809     2A    -11.237133     3A     -1.036844
       4A     -0.794152     5A     -0.645130     6A     -0.587060
       7A     -0.508118     8A     -0.376577

  @DF-RHF Final Energy:   -78.04363821662744

   => Energetics <=

    Nuclear Repulsion Energy =             33.4239362907177764
    One-Electron Energy =                -170.0875001539695290
    Two-Electron Energy =                  58.6199256466242957
    Total Energy =                        -78.0436382166274427

  Dipole Moment: [D]
     X:    -0.0017      Y:     0.0000      Z:    -0.0026     Total:     0.0031

    SAPT Results
  --------------------------------------------------------------------------------------------------------
    Electrostatics                  0.09407651 [mEh]       0.05903390 [kcal/mol]       0.24699784 [kJ/mol]
      Elst10,r                      0.33390793 [mEh]       0.20953039 [kcal/mol]       0.87667516 [kJ/mol]
      Elst12,r                     -0.23983143 [mEh]      -0.15049649 [kcal/mol]      -0.62967732 [kJ/mol]

    Exchange                        0.54172836 [mEh]       0.33993968 [kcal/mol]       1.42230761 [kJ/mol]
      Exch10                        0.50641023 [mEh]       0.31777722 [kcal/mol]       1.32957988 [kJ/mol]
      Exch10(S^2)                   0.50615888 [mEh]       0.31761949 [kcal/mol]       1.32891996 [kJ/mol]
      Exch11(S^2)                   0.01741808 [mEh]       0.01093001 [kcal/mol]       0.04573117 [kJ/mol]
      Exch12(S^2)                   0.01790004 [mEh]       0.01123245 [kcal/mol]       0.04699656 [kJ/mol]

    Induction                      -0.10141470 [mEh]      -0.06363868 [kcal/mol]      -0.26626426 [kJ/mol]
      Ind20,r                      -0.25482934 [mEh]      -0.15990783 [kcal/mol]      -0.66905435 [kJ/mol]
      Ind22                         0.01647569 [mEh]       0.01033865 [kcal/mol]       0.04325691 [kJ/mol]
      Exch-Ind20,r                  0.18614552 [mEh]       0.11680808 [kcal/mol]       0.48872500 [kJ/mol]
      Exch-Ind22                   -0.01203502 [mEh]      -0.00755209 [kcal/mol]      -0.03159793 [kJ/mol]
      delta HF,r (2)               -0.03717155 [mEh]      -0.02332550 [kcal/mol]      -0.09759388 [kJ/mol]

    Dispersion                     -1.92433128 [mEh]      -1.20753611 [kcal/mol]      -5.05233107 [kJ/mol]
      Disp20                       -2.32951174 [mEh]      -1.46179068 [kcal/mol]      -6.11613223 [kJ/mol]
      Disp21                        0.57037906 [mEh]       0.35791827 [kcal/mol]       1.49753003 [kJ/mol]
      Disp22 (SDQ)                  0.14711855 [mEh]       0.09231828 [kcal/mol]       0.38625970 [kJ/mol]
      Disp22 (T)                   -0.40959600 [mEh]      -0.25702537 [kcal/mol]      -1.07539414 [kJ/mol]
      Est. Disp22 (T)              -0.44293535 [mEh]      -0.27794613 [kcal/mol]      -1.16292661 [kJ/mol]
      Exch-Disp20                   0.13061820 [mEh]       0.08196416 [kcal/mol]       0.34293804 [kJ/mol]

  Total HF                          0.73446280 [mEh]       0.46088236 [kcal/mol]       1.92833181 [kJ/mol]
  Total SAPT0                      -1.46443074 [mEh]      -0.91894416 [kcal/mol]      -3.84486237 [kJ/mol]
  Total SAPT2                      -1.66450337 [mEh]      -1.04449163 [kcal/mol]      -4.37015299 [kJ/mol]
  Total SAPT2+                     -1.38994111 [mEh]      -0.87220121 [kcal/mol]      -3.64928987 [kJ/mol]

  Special recipe for scaled SAPT0 (see Manual):
    Electrostatics sSAPT0           0.33390793 [mEh]       0.20953039 [kcal/mol]       0.87667516 [kJ/mol]
    Exchange sSAPT0                 0.50641023 [mEh]       0.31777722 [kcal/mol]       1.32957988 [kJ/mol]
    Induction sSAPT0               -0.10557792 [mEh]      -0.06625115 [kcal/mol]      -0.27719479 [kJ/mol]
    Dispersion sSAPT0              -2.19869885 [mEh]      -1.37970436 [kcal/mol]      -5.77268304 [kJ/mol]
  Total sSAPT0                     -1.46395860 [mEh]      -0.91864789 [kcal/mol]      -3.84362279 [kJ/mol]
  --------------------------------------------------------------------------------------------------------

*** Psi4 exiting successfully. Buy a developer a beer!
