                               Psi4 1.4a2.dev224

  ==> Input File <==

--------------------------------------------------------------------------
#Generated by lconvert.py for sapt job

memory 20 GB

molecule  {
0 1
  N       1.381380   -0.000230    0.131460
  C       0.679350   -1.140240    0.092080
  H       1.258720   -2.054960    0.125880
  C      -0.709720   -1.193110    0.006660
  H      -1.214090   -2.148560   -0.025310
  C      -1.421610    0.000130   -0.040820
  H      -2.500700    0.000260   -0.109170
  C      -0.709400    1.193180    0.006520
  H      -1.213510    2.148750   -0.025530
  C       0.679650    1.139960    0.091890
  H       1.259260    2.054510    0.125500
--
0 1
  C       0.036500    0.666520    5.364150
  H       0.946970    1.226010    5.205030
  H      -0.873050    1.228930    5.521110
  C       0.036830   -0.666170    5.364280
  H       0.947570   -1.225250    5.205270
  H      -0.872460   -1.228990    5.521370
units angstrom
no_reorient
symmetry c1
}

set {
scf_type DF
basis aug-cc-pvdz
freeze_core True
guess SAD
}
energy('sapt2+')
--------------------------------------------------------------------------

  //              Dimer HF             //
    Molecular point group: c1
  Charge       = 0
  Multiplicity = 1
  Basis Set: AUG-CC-PVDZ
    Blend: AUG-CC-PVDZ
  Basis Set: (AUG-CC-PVDZ AUX)
    Blend: AUG-CC-PVDZ-JKFIT
  @DF-RHF Final Energy:  -324.76730504951814
    Total Energy =                       -324.7673050495181428
  //            Monomer A HF           //
    Molecular point group: c1
  Multiplicity = 1
  Basis Set: AUG-CC-PVDZ
    Blend: AUG-CC-PVDZ
  Basis Set: (AUG-CC-PVDZ AUX)
    Blend: AUG-CC-PVDZ-JKFIT
  @DF-RHF Final Energy:  -246.72401555411565
    Total Energy =                       -246.7240155541156810
  //            Monomer B HF           //
    Molecular point group: c1

    Geometry (in Angstrom), charge = 0, multiplicity = 1:

       Center              X                  Y                   Z               Mass
    ------------   -----------------  -----------------  -----------------  -----------------
      Gh(N)           1.379850380606    -0.000236768906    -1.308398590525    14.003074004430
      Gh(C)           0.677820380606    -1.140246768906    -1.347778590525    12.000000000000
      Gh(H)           1.257190380606    -2.054966768906    -1.313978590525     1.007825032230
      Gh(C)          -0.711249619394    -1.193116768906    -1.433198590525    12.000000000000
      Gh(H)          -1.215619619394    -2.148566768906    -1.465168590525     1.007825032230
      Gh(C)          -1.423139619394     0.000123231094    -1.480678590525    12.000000000000
      Gh(H)          -2.502229619394     0.000253231094    -1.549028590525     1.007825032230
      Gh(C)          -0.710929619394     1.193173231094    -1.433338590525    12.000000000000
      Gh(H)          -1.215039619394     2.148743231094    -1.465388590525     1.007825032230
      Gh(C)           0.678120380606     1.139953231094    -1.347968590525    12.000000000000
      Gh(H)           1.257730380606     2.054503231094    -1.314358590525     1.007825032230
         C            0.034970380606     0.666513231094     3.924291409475    12.000000000000
         H            0.945440380606     1.226003231094     3.765171409475     1.007825032230
         H           -0.874579619394     1.228923231094     4.081251409475     1.007825032230
         C            0.035300380606    -0.666176768906     3.924421409475    12.000000000000
         H            0.946040380606    -1.225256768906     3.765411409475     1.007825032230
         H           -0.873989619394    -1.228996768906     4.081511409475     1.007825032230

  Charge       = 0
  Multiplicity = 1
  Basis Set: AUG-CC-PVDZ
    Blend: AUG-CC-PVDZ
  Basis Set: (AUG-CC-PVDZ AUX)
    Blend: AUG-CC-PVDZ-JKFIT

    Orbital Energies [Eh]
    ---------------------

    Doubly Occupied:

       1A    -11.238845     2A    -11.237168     3A     -1.036857
       4A     -0.794163     5A     -0.645143     6A     -0.587072
       7A     -0.508129     8A     -0.376570

  @DF-RHF Final Energy:   -78.04357419966641

   => Energetics <=

    Nuclear Repulsion Energy =             33.4238598898007027
    One-Electron Energy =                -170.0869756193759770
    Two-Electron Energy =                  58.6195415299088722
    Total Energy =                        -78.0435741996664092

  Dipole Moment: [D]
     X:    -0.0022      Y:     0.0000      Z:    -0.0017     Total:     0.0028

    SAPT Results
  --------------------------------------------------------------------------------------------------------
    Electrostatics                  0.15950521 [mEh]       0.10009103 [kcal/mol]       0.41878087 [kJ/mol]
      Elst10,r                      0.28150542 [mEh]       0.17664732 [kcal/mol]       0.73909239 [kJ/mol]
      Elst12,r                     -0.12200021 [mEh]      -0.07655629 [kcal/mol]      -0.32031152 [kJ/mol]

    Exchange                        0.02778248 [mEh]       0.01743377 [kcal/mol]       0.07294290 [kJ/mol]
      Exch10                        0.02506171 [mEh]       0.01572646 [kcal/mol]       0.06579951 [kJ/mol]
      Exch10(S^2)                   0.02506079 [mEh]       0.01572588 [kcal/mol]       0.06579709 [kJ/mol]
      Exch11(S^2)                   0.00040085 [mEh]       0.00025153 [kcal/mol]       0.00105242 [kJ/mol]
      Exch12(S^2)                   0.00231993 [mEh]       0.00145578 [kcal/mol]       0.00609097 [kJ/mol]

    Induction                      -0.01881130 [mEh]      -0.01180427 [kcal/mol]      -0.04938905 [kJ/mol]
      Ind20,r                      -0.03254146 [mEh]      -0.02042008 [kcal/mol]      -0.08543760 [kJ/mol]
      Ind22                         0.00437316 [mEh]       0.00274420 [kcal/mol]       0.01148173 [kJ/mol]
      Exch-Ind20,r                  0.00983418 [mEh]       0.00617104 [kcal/mol]       0.02581964 [kJ/mol]
      Exch-Ind22                   -0.00132159 [mEh]      -0.00082931 [kcal/mol]      -0.00346983 [kJ/mol]
      delta HF,r (2)                0.00084442 [mEh]       0.00052988 [kcal/mol]       0.00221701 [kJ/mol]

    Dispersion                     -0.57845298 [mEh]      -0.36298473 [kcal/mol]      -1.51872810 [kJ/mol]
      Disp20                       -0.67495931 [mEh]      -0.42354336 [kcal/mol]      -1.77210542 [kJ/mol]
      Disp21                        0.17933213 [mEh]       0.11253261 [kcal/mol]       0.47083645 [kJ/mol]
      Disp22 (SDQ)                  0.03779388 [mEh]       0.02371602 [kcal/mol]       0.09922783 [kJ/mol]
      Disp22 (T)                   -0.12455157 [mEh]      -0.07815729 [kcal/mol]      -0.32701010 [kJ/mol]
      Est. Disp22 (T)              -0.12951960 [mEh]      -0.08127477 [kcal/mol]      -0.34005365 [kJ/mol]
      Exch-Disp20                   0.00889990 [mEh]       0.00558477 [kcal/mol]       0.02336670 [kJ/mol]

  Total HF                          0.28470426 [mEh]       0.17865462 [kcal/mol]       0.74749094 [kJ/mol]
  Total SAPT0                      -0.38135514 [mEh]      -0.23930396 [kcal/mol]      -1.00124778 [kJ/mol]
  Total SAPT2                      -0.49758301 [mEh]      -0.31223805 [kcal/mol]      -1.30640401 [kJ/mol]
  Total SAPT2+                     -0.40997659 [mEh]      -0.25726419 [kcal/mol]      -1.07639339 [kJ/mol]

  Special recipe for scaled SAPT0 (see Manual):
    Electrostatics sSAPT0           0.28150542 [mEh]       0.17664732 [kcal/mol]       0.73909239 [kJ/mol]
    Exchange sSAPT0                 0.02506171 [mEh]       0.01572646 [kcal/mol]       0.06579951 [kJ/mol]
    Induction sSAPT0               -0.02186178 [mEh]      -0.01371848 [kcal/mol]      -0.05739810 [kJ/mol]
    Dispersion sSAPT0              -0.66605842 [mEh]      -0.41795797 [kcal/mol]      -1.74873615 [kJ/mol]
  Total sSAPT0                     -0.38135307 [mEh]      -0.23930267 [kcal/mol]      -1.00124236 [kJ/mol]
  --------------------------------------------------------------------------------------------------------

*** Psi4 exiting successfully. Buy a developer a beer!
