                               Psi4 1.4a2.dev224

  ==> Input File <==

--------------------------------------------------------------------------
#Generated by lconvert.py for sapt job

memory 20 GB

molecule  {
0 1
  C      -2.533310   -0.294880    0.713150
  H      -2.563630   -0.977080   -0.136420
  H      -2.566980   -0.895880    1.621730
  H      -3.434430    0.315960    0.684100
  C      -1.271880    0.557660    0.674360
  H      -1.271030    1.256570    1.514320
  H      -1.266630    1.167900   -0.231830
  C      -0.000140   -0.278420    0.719600
  H      -0.000160   -0.887230    1.628640
  H      -0.000360   -0.980710   -0.119400
  C       1.271890    0.557380    0.674060
  H       1.270970    1.256630    1.513710
  H       1.266640    1.167180   -0.232390
  C       2.533400   -0.294940    0.713280
  H       2.563920   -0.977770   -0.135780
  H       3.434310    0.316250    0.683600
  H       2.567560   -0.895210    1.622330
--
0 1
  C       2.533550    0.231530    7.630050
  H       2.568130    0.831330    6.720730
  H       2.564050    0.914730    8.478800
  H       3.434230   -0.379970    7.660260
  C       1.271720   -0.620360    7.669360
  H       1.266280   -1.230090    8.575850
  H       1.270590   -1.319720    6.829770
  C      -0.000050    0.215740    7.623740
  H      -0.000210    0.918050    8.462720
  H       0.000020    0.824510    6.714670
  C      -1.271810   -0.620410    7.669010
  H      -1.266430   -1.230520    8.575260
  H      -1.270710   -1.319430    6.829150
  C      -2.533530    0.231640    7.630030
  H      -2.567730    0.832170    6.721160
  H      -3.434330   -0.379660    7.659550
  H      -2.564070    0.914230    8.479300
units angstrom
no_reorient
symmetry c1
}

set {
scf_type DF
basis aug-cc-pvdz
freeze_core True
guess SAD
}
energy('sapt2+')
--------------------------------------------------------------------------

  //              Dimer HF             //
    Molecular point group: c1
  Charge       = 0
  Multiplicity = 1
  Basis Set: AUG-CC-PVDZ
    Blend: AUG-CC-PVDZ
  Basis Set: (AUG-CC-PVDZ AUX)
    Blend: AUG-CC-PVDZ-JKFIT
  @DF-RHF Final Energy:  -392.70759907782804
    Total Energy =                       -392.7075990778280357
  //            Monomer A HF           //
    Molecular point group: c1
  Multiplicity = 1
  Basis Set: AUG-CC-PVDZ
    Blend: AUG-CC-PVDZ
  Basis Set: (AUG-CC-PVDZ AUX)
    Blend: AUG-CC-PVDZ-JKFIT
  @DF-RHF Final Energy:  -196.35380330633799
    Total Energy =                       -196.3538033063379942
  //            Monomer B HF           //
    Molecular point group: c1

    Geometry (in Angstrom), charge = 0, multiplicity = 1:

       Center              X                  Y                   Z               Mass
    ------------   -----------------  -----------------  -----------------  -----------------
      Gh(C)          -2.533296684033    -0.263362704695    -3.458513259095    12.000000000000
      Gh(H)          -2.563616684033    -0.945562704695    -4.308083259095     1.007825032230
      Gh(H)          -2.566966684033    -0.864362704695    -2.549933259095     1.007825032230
      Gh(H)          -3.434416684033     0.347477295305    -3.487563259095     1.007825032230
      Gh(C)          -1.271866684033     0.589177295305    -3.497303259095    12.000000000000
      Gh(H)          -1.271016684033     1.288087295305    -2.657343259095     1.007825032230
      Gh(H)          -1.266616684033     1.199417295305    -4.403493259095     1.007825032230
      Gh(C)          -0.000126684033    -0.246902704695    -3.452063259095    12.000000000000
      Gh(H)          -0.000146684033    -0.855712704695    -2.543023259095     1.007825032230
      Gh(H)          -0.000346684033    -0.949192704695    -4.291063259095     1.007825032230
      Gh(C)           1.271903315967     0.588897295305    -3.497603259095    12.000000000000
      Gh(H)           1.270983315967     1.288147295305    -2.657953259095     1.007825032230
      Gh(H)           1.266653315967     1.198697295305    -4.404053259095     1.007825032230
      Gh(C)           2.533413315967    -0.263422704695    -3.458383259095    12.000000000000
      Gh(H)           2.563933315967    -0.946252704695    -4.307443259095     1.007825032230
      Gh(H)           3.434323315967     0.347767295305    -3.488063259095     1.007825032230
      Gh(H)           2.567573315967    -0.863692704695    -2.549333259095     1.007825032230
         C            2.533563315967     0.263047295305     3.458386740905    12.000000000000
         H            2.568143315967     0.862847295305     2.549066740905     1.007825032230
         H            2.564063315967     0.946247295305     4.307136740905     1.007825032230
         H            3.434243315967    -0.348452704695     3.488596740905     1.007825032230
         C            1.271733315967    -0.588842704695     3.497696740905    12.000000000000
         H            1.266293315967    -1.198572704695     4.404186740905     1.007825032230
         H            1.270603315967    -1.288202704695     2.658106740905     1.007825032230
         C           -0.000036684033     0.247257295305     3.452076740905    12.000000000000
         H           -0.000196684033     0.949567295305     4.291056740905     1.007825032230
         H            0.000033315967     0.856027295305     2.543006740905     1.007825032230
         C           -1.271796684033    -0.588892704695     3.497346740905    12.000000000000
         H           -1.266416684033    -1.199002704695     4.403596740905     1.007825032230
         H           -1.270696684033    -1.287912704695     2.657486740905     1.007825032230
         C           -2.533516684033     0.263157295305     3.458366740905    12.000000000000
         H           -2.567716684033     0.863687295305     2.549496740905     1.007825032230
         H           -3.434316684033    -0.348142704695     3.487886740905     1.007825032230
         H           -2.564056684033     0.945747295305     4.307636740905     1.007825032230

  Charge       = 0
  Multiplicity = 1
  Basis Set: AUG-CC-PVDZ
    Blend: AUG-CC-PVDZ
  Basis Set: (AUG-CC-PVDZ AUX)
    Blend: AUG-CC-PVDZ-JKFIT

    Orbital Energies [Eh]
    ---------------------

    Doubly Occupied:

       1A    -11.218284     2A    -11.218224     3A    -11.215675
       4A    -11.214012     5A    -11.214010     6A     -1.082586
       7A     -1.016613     8A     -0.920040     9A     -0.820546
      10A     -0.785399    11A     -0.646822    12A     -0.598001
      13A     -0.592359    14A     -0.553490    15A     -0.546781
      16A     -0.525028    17A     -0.493727    18A     -0.474866
      19A     -0.460983    20A     -0.458011    21A     -0.446185

  @DF-RHF Final Energy:  -196.35380458089884

   => Energetics <=

    Nuclear Repulsion Energy =            185.6355783709635432
    One-Electron Energy =                -630.9754773742527050
    Two-Electron Energy =                 248.9860944223902948
    Total Energy =                       -196.3538045808988386

  Dipole Moment: [D]
     X:    -0.0000      Y:    -0.0857      Z:     0.0041     Total:     0.0858

    SAPT Results
  --------------------------------------------------------------------------------------------------------
    Electrostatics                  0.00725597 [mEh]       0.00455319 [kcal/mol]       0.01905055 [kJ/mol]
      Elst10,r                      0.00842520 [mEh]       0.00528689 [kcal/mol]       0.02212035 [kJ/mol]
      Elst12,r                     -0.00116923 [mEh]      -0.00073370 [kcal/mol]      -0.00306981 [kJ/mol]

    Exchange                        0.00026306 [mEh]       0.00016508 [kcal/mol]       0.00069067 [kJ/mol]
      Exch10                        0.00023450 [mEh]       0.00014715 [kcal/mol]       0.00061567 [kJ/mol]
      Exch10(S^2)                   0.00023450 [mEh]       0.00014715 [kcal/mol]       0.00061567 [kJ/mol]
      Exch11(S^2)                  -0.00001213 [mEh]      -0.00000761 [kcal/mol]      -0.00003184 [kJ/mol]
      Exch12(S^2)                   0.00004069 [mEh]       0.00002554 [kcal/mol]       0.00010684 [kJ/mol]

    Induction                       0.00005357 [mEh]       0.00003362 [kcal/mol]       0.00014065 [kJ/mol]
      Ind20,r                      -0.00038458 [mEh]      -0.00024133 [kcal/mol]      -0.00100972 [kJ/mol]
      Ind22                        -0.00011034 [mEh]      -0.00006924 [kcal/mol]      -0.00028969 [kJ/mol]
      Exch-Ind20,r                  0.00004947 [mEh]       0.00003104 [kcal/mol]       0.00012989 [kJ/mol]
      Exch-Ind22                    0.00001419 [mEh]       0.00000891 [kcal/mol]       0.00003726 [kJ/mol]
      delta HF,r (2)                0.00048482 [mEh]       0.00030423 [kcal/mol]       0.00127291 [kJ/mol]

    Dispersion                     -0.31185274 [mEh]      -0.19569055 [kcal/mol]      -0.81876925 [kJ/mol]
      Disp20                       -0.32411768 [mEh]      -0.20338691 [kcal/mol]      -0.85097084 [kJ/mol]
      Disp21                        0.05676353 [mEh]       0.03561965 [kcal/mol]       0.14903262 [kJ/mol]
      Disp22 (SDQ)                  0.00324679 [mEh]       0.00203739 [kcal/mol]       0.00852444 [kJ/mol]
      Disp22 (T)                   -0.04738539 [mEh]      -0.02973478 [kcal/mol]      -0.12441033 [kJ/mol]
      Est. Disp22 (T)              -0.04781562 [mEh]      -0.03000476 [kcal/mol]      -0.12553990 [kJ/mol]
      Exch-Disp20                   0.00007025 [mEh]       0.00004408 [kcal/mol]       0.00018443 [kJ/mol]

  Total HF                          0.00880941 [mEh]       0.00552799 [kcal/mol]       0.02312910 [kJ/mol]
  Total SAPT0                      -0.31523802 [mEh]      -0.19781484 [kcal/mol]      -0.82765731 [kJ/mol]
  Total SAPT2                      -0.31647483 [mEh]      -0.19859095 [kcal/mol]      -0.83090454 [kJ/mol]
  Total SAPT2+                     -0.30428013 [mEh]      -0.19093867 [kcal/mol]      -0.79888738 [kJ/mol]

  Special recipe for scaled SAPT0 (see Manual):
    Electrostatics sSAPT0           0.00842520 [mEh]       0.00528689 [kcal/mol]       0.02212035 [kJ/mol]
    Exchange sSAPT0                 0.00023450 [mEh]       0.00014715 [kcal/mol]       0.00061567 [kJ/mol]
    Induction sSAPT0                0.00014971 [mEh]       0.00009395 [kcal/mol]       0.00039308 [kJ/mol]
    Dispersion sSAPT0              -0.32404743 [mEh]      -0.20334283 [kcal/mol]      -0.85078641 [kJ/mol]
  Total sSAPT0                     -0.31523802 [mEh]      -0.19781484 [kcal/mol]      -0.82765731 [kJ/mol]
  --------------------------------------------------------------------------------------------------------

*** Psi4 exiting successfully. Buy a developer a beer!
