                               Psi4 1.4a2.dev224

  ==> Input File <==

--------------------------------------------------------------------------
#Generated by lconvert.py for sapt job

memory 20 GB

molecule  {
0 1
  C      -2.533310   -0.294880    0.713150
  H      -2.563630   -0.977080   -0.136420
  H      -2.566980   -0.895880    1.621730
  H      -3.434430    0.315960    0.684100
  C      -1.271880    0.557660    0.674360
  H      -1.271030    1.256570    1.514320
  H      -1.266630    1.167900   -0.231830
  C      -0.000140   -0.278420    0.719600
  H      -0.000160   -0.887230    1.628640
  H      -0.000360   -0.980710   -0.119400
  C       1.271890    0.557380    0.674060
  H       1.270970    1.256630    1.513710
  H       1.266640    1.167180   -0.232390
  C       2.533400   -0.294940    0.713280
  H       2.563920   -0.977770   -0.135780
  H       3.434310    0.316250    0.683600
  H       2.567560   -0.895210    1.622330
--
0 1
  C       2.533550    0.252990    6.576220
  H       2.568140    0.852800    5.666890
  H       2.564060    0.936200    7.424960
  H       3.434230   -0.358510    6.606430
  C       1.271720   -0.598890    6.615520
  H       1.266280   -1.208620    7.522020
  H       1.270590   -1.298250    5.775940
  C      -0.000050    0.237200    6.569910
  H      -0.000200    0.939510    7.408890
  H       0.000030    0.845980    5.660840
  C      -1.271810   -0.598940    6.615180
  H      -1.266430   -1.209050    7.521430
  H      -1.270700   -1.297960    5.775310
  C      -2.533530    0.253110    6.576200
  H      -2.567720    0.853640    5.667320
  H      -3.434330   -0.358190    6.605710
  H      -2.564070    0.935700    7.425460
units angstrom
no_reorient
symmetry c1
}

set {
scf_type DF
basis aug-cc-pvdz
freeze_core True
guess SAD
}
energy('sapt2+')
--------------------------------------------------------------------------

  //              Dimer HF             //
    Molecular point group: c1
  Charge       = 0
  Multiplicity = 1
  Basis Set: AUG-CC-PVDZ
    Blend: AUG-CC-PVDZ
  Basis Set: (AUG-CC-PVDZ AUX)
    Blend: AUG-CC-PVDZ-JKFIT
  @DF-RHF Final Energy:  -392.70769721822580
    Total Energy =                       -392.7076972182258032
  //            Monomer A HF           //
    Molecular point group: c1
  Multiplicity = 1
  Basis Set: AUG-CC-PVDZ
    Blend: AUG-CC-PVDZ
  Basis Set: (AUG-CC-PVDZ AUX)
    Blend: AUG-CC-PVDZ-JKFIT
  @DF-RHF Final Energy:  -196.35385827599518
    Total Energy =                       -196.3538582759951794
  //            Monomer B HF           //
    Molecular point group: c1

    Geometry (in Angstrom), charge = 0, multiplicity = 1:

       Center              X                  Y                   Z               Mass
    ------------   -----------------  -----------------  -----------------  -----------------
      Gh(C)          -2.533297103413    -0.274095900405    -2.931597007467    12.000000000000
      Gh(H)          -2.563617103413    -0.956295900405    -3.781167007467     1.007825032230
      Gh(H)          -2.566967103413    -0.875095900405    -2.023017007467     1.007825032230
      Gh(H)          -3.434417103413     0.336744099595    -2.960647007467     1.007825032230
      Gh(C)          -1.271867103413     0.578444099595    -2.970387007467    12.000000000000
      Gh(H)          -1.271017103413     1.277354099595    -2.130427007467     1.007825032230
      Gh(H)          -1.266617103413     1.188684099595    -3.876577007467     1.007825032230
      Gh(C)          -0.000127103413    -0.257635900405    -2.925147007467    12.000000000000
      Gh(H)          -0.000147103413    -0.866445900405    -2.016107007467     1.007825032230
      Gh(H)          -0.000347103413    -0.959925900405    -3.764147007467     1.007825032230
      Gh(C)           1.271902896587     0.578164099595    -2.970687007467    12.000000000000
      Gh(H)           1.270982896587     1.277414099595    -2.131037007467     1.007825032230
      Gh(H)           1.266652896587     1.187964099595    -3.877137007467     1.007825032230
      Gh(C)           2.533412896587    -0.274155900405    -2.931467007467    12.000000000000
      Gh(H)           2.563932896587    -0.956985900405    -3.780527007467     1.007825032230
      Gh(H)           3.434322896587     0.337034099595    -2.961147007467     1.007825032230
      Gh(H)           2.567572896587    -0.874425900405    -2.022417007467     1.007825032230
         C            2.533562896587     0.273774099595     2.931472992533    12.000000000000
         H            2.568152896587     0.873584099595     2.022142992533     1.007825032230
         H            2.564072896587     0.956984099595     3.780212992533     1.007825032230
         H            3.434242896587    -0.337725900405     2.961682992533     1.007825032230
         C            1.271732896587    -0.578105900405     2.970772992533    12.000000000000
         H            1.266292896587    -1.187835900405     3.877272992533     1.007825032230
         H            1.270602896587    -1.277465900405     2.131192992533     1.007825032230
         C           -0.000037103413     0.257984099595     2.925162992533    12.000000000000
         H           -0.000187103413     0.960294099595     3.764142992533     1.007825032230
         H            0.000042896587     0.866764099595     2.016092992533     1.007825032230
         C           -1.271797103413    -0.578155900405     2.970432992533    12.000000000000
         H           -1.266417103413    -1.188265900405     3.876682992533     1.007825032230
         H           -1.270687103413    -1.277175900405     2.130562992533     1.007825032230
         C           -2.533517103413     0.273894099595     2.931452992533    12.000000000000
         H           -2.567707103413     0.874424099595     2.022572992533     1.007825032230
         H           -3.434317103413    -0.337405900405     2.960962992533     1.007825032230
         H           -2.564057103413     0.956484099595     3.780712992533     1.007825032230

  Charge       = 0
  Multiplicity = 1
  Basis Set: AUG-CC-PVDZ
    Blend: AUG-CC-PVDZ
  Basis Set: (AUG-CC-PVDZ AUX)
    Blend: AUG-CC-PVDZ-JKFIT

    Orbital Energies [Eh]
    ---------------------

    Doubly Occupied:

       1A    -11.218268     2A    -11.218208     3A    -11.215659
       4A    -11.213991     5A    -11.213988     6A     -1.082586
       7A     -1.016612     8A     -0.920039     9A     -0.820544
      10A     -0.785395    11A     -0.646830    12A     -0.598001
      13A     -0.592357    14A     -0.553493    15A     -0.546781
      16A     -0.525023    17A     -0.493728    18A     -0.474862
      19A     -0.460983    20A     -0.458004    21A     -0.446188

  @DF-RHF Final Energy:  -196.35385954346003

   => Energetics <=

    Nuclear Repulsion Energy =            185.6356721985181366
    One-Electron Energy =                -630.9759834984849931
    Two-Electron Energy =                 248.9864517565068240
    Total Energy =                       -196.3538595434600325

  Dipole Moment: [D]
     X:    -0.0000      Y:    -0.0861      Z:     0.0045     Total:     0.0862

    SAPT Results
  --------------------------------------------------------------------------------------------------------
    Electrostatics                  0.00899150 [mEh]       0.00564225 [kcal/mol]       0.02360719 [kJ/mol]
      Elst10,r                      0.01300031 [mEh]       0.00815782 [kcal/mol]       0.03413232 [kJ/mol]
      Elst12,r                     -0.00400881 [mEh]      -0.00251557 [kcal/mol]      -0.01052513 [kJ/mol]

    Exchange                        0.01183402 [mEh]       0.00742596 [kcal/mol]       0.03107022 [kJ/mol]
      Exch10                        0.00922509 [mEh]       0.00578883 [kcal/mol]       0.02422048 [kJ/mol]
      Exch10(S^2)                   0.00922510 [mEh]       0.00578884 [kcal/mol]       0.02422050 [kJ/mol]
      Exch11(S^2)                  -0.00012773 [mEh]      -0.00008015 [kcal/mol]      -0.00033535 [kJ/mol]
      Exch12(S^2)                   0.00273666 [mEh]       0.00171728 [kcal/mol]       0.00718509 [kJ/mol]

    Induction                      -0.00190229 [mEh]      -0.00119370 [kcal/mol]      -0.00499445 [kJ/mol]
      Ind20,r                      -0.00180775 [mEh]      -0.00113438 [kcal/mol]      -0.00474624 [kJ/mol]
      Ind22                        -0.00045740 [mEh]      -0.00028702 [kcal/mol]      -0.00120090 [kJ/mol]
      Exch-Ind20,r                  0.00070859 [mEh]       0.00044465 [kcal/mol]       0.00186040 [kJ/mol]
      Exch-Ind22                    0.00017929 [mEh]       0.00011250 [kcal/mol]       0.00047072 [kJ/mol]
      delta HF,r (2)               -0.00052501 [mEh]      -0.00032945 [kcal/mol]      -0.00137843 [kJ/mol]

    Dispersion                     -0.84925924 [mEh]      -0.53291822 [kcal/mol]      -2.22972982 [kJ/mol]
      Disp20                       -0.86648733 [mEh]      -0.54372901 [kcal/mol]      -2.27496218 [kJ/mol]
      Disp21                        0.13305031 [mEh]       0.08349033 [kcal/mol]       0.34932354 [kJ/mol]
      Disp22 (SDQ)                  0.00894117 [mEh]       0.00561067 [kcal/mol]       0.02347504 [kJ/mol]
      Disp22 (T)                   -0.12425112 [mEh]      -0.07796875 [kcal/mol]      -0.32622127 [kJ/mol]
      Est. Disp22 (T)              -0.12680749 [mEh]      -0.07957290 [kcal/mol]      -0.33293302 [kJ/mol]
      Exch-Disp20                   0.00204411 [mEh]       0.00128270 [kcal/mol]       0.00536681 [kJ/mol]

  Total HF                          0.02060123 [mEh]       0.01292747 [kcal/mol]       0.05408852 [kJ/mol]
  Total SAPT0                      -0.84384199 [mEh]      -0.52951885 [kcal/mol]      -2.21550685 [kJ/mol]
  Total SAPT2                      -0.84551999 [mEh]      -0.53057180 [kcal/mol]      -2.21991242 [kJ/mol]
  Total SAPT2+                     -0.83033600 [mEh]      -0.52104371 [kcal/mol]      -2.18004686 [kJ/mol]

  Special recipe for scaled SAPT0 (see Manual):
    Electrostatics sSAPT0           0.01300031 [mEh]       0.00815782 [kcal/mol]       0.03413232 [kJ/mol]
    Exchange sSAPT0                 0.00922509 [mEh]       0.00578883 [kcal/mol]       0.02422048 [kJ/mol]
    Induction sSAPT0               -0.00162418 [mEh]      -0.00101919 [kcal/mol]      -0.00426427 [kJ/mol]
    Dispersion sSAPT0              -0.86444322 [mEh]      -0.54244631 [kcal/mol]      -2.26959537 [kJ/mol]
  Total sSAPT0                     -0.84384199 [mEh]      -0.52951885 [kcal/mol]      -2.21550685 [kJ/mol]
  --------------------------------------------------------------------------------------------------------

*** Psi4 exiting successfully. Buy a developer a beer!
