                               Psi4 1.4a2.dev224

  ==> Input File <==

--------------------------------------------------------------------------
#Generated by lconvert.py for sapt job

memory 20 GB

molecule  {
0 1
  C      -2.533310   -0.294880    0.713150
  H      -2.563630   -0.977080   -0.136420
  H      -2.566980   -0.895880    1.621730
  H      -3.434430    0.315960    0.684100
  C      -1.271880    0.557660    0.674360
  H      -1.271030    1.256570    1.514320
  H      -1.266630    1.167900   -0.231830
  C      -0.000140   -0.278420    0.719600
  H      -0.000160   -0.887230    1.628640
  H      -0.000360   -0.980710   -0.119400
  C       1.271890    0.557380    0.674060
  H       1.270970    1.256630    1.513710
  H       1.266640    1.167180   -0.232390
  C       2.533400   -0.294940    0.713280
  H       2.563920   -0.977770   -0.135780
  H       3.434310    0.316250    0.683600
  H       2.567560   -0.895210    1.622330
--
0 1
  C       2.533550    0.274460    5.522380
  H       2.568140    0.874270    4.613060
  H       2.564060    0.957670    6.371130
  H       3.434240   -0.337040    5.552590
  C       1.271730   -0.577430    5.561690
  H       1.266280   -1.187150    6.468190
  H       1.270600   -1.276780    4.722110
  C      -0.000050    0.258670    5.516070
  H      -0.000200    0.960980    6.355060
  H       0.000030    0.867450    4.607000
  C      -1.271810   -0.577470    5.561340
  H      -1.266420   -1.187580    6.467590
  H      -1.270700   -1.276490    4.721480
  C      -2.533530    0.274580    5.522370
  H      -2.567720    0.875110    4.613490
  H      -3.434330   -0.336720    5.551880
  H      -2.564070    0.957160    6.371630
units angstrom
no_reorient
symmetry c1
}

set {
scf_type DF
basis aug-cc-pvdz
freeze_core True
guess SAD
}
energy('sapt2+')
--------------------------------------------------------------------------

  //              Dimer HF             //
    Molecular point group: c1
  Charge       = 0
  Multiplicity = 1
  Basis Set: AUG-CC-PVDZ
    Blend: AUG-CC-PVDZ
  Basis Set: (AUG-CC-PVDZ AUX)
    Blend: AUG-CC-PVDZ-JKFIT
  @DF-RHF Final Energy:  -392.70778524804552
    Total Energy =                       -392.7077852480455249
  //            Monomer A HF           //
    Molecular point group: c1
  Multiplicity = 1
  Basis Set: AUG-CC-PVDZ
    Blend: AUG-CC-PVDZ
  Basis Set: (AUG-CC-PVDZ AUX)
    Blend: AUG-CC-PVDZ-JKFIT
  @DF-RHF Final Energy:  -196.35400778927345
    Total Energy =                       -196.3540077892734530
  //            Monomer B HF           //
    Molecular point group: c1

    Geometry (in Angstrom), charge = 0, multiplicity = 1:

       Center              X                  Y                   Z               Mass
    ------------   -----------------  -----------------  -----------------  -----------------
      Gh(C)          -2.533298145351    -0.284829998261    -2.404679301033    12.000000000000
      Gh(H)          -2.563618145351    -0.967029998261    -3.254249301033     1.007825032230
      Gh(H)          -2.566968145351    -0.885829998261    -1.496099301033     1.007825032230
      Gh(H)          -3.434418145351     0.326010001739    -2.433729301033     1.007825032230
      Gh(C)          -1.271868145351     0.567710001739    -2.443469301033    12.000000000000
      Gh(H)          -1.271018145351     1.266620001739    -1.603509301033     1.007825032230
      Gh(H)          -1.266618145351     1.177950001739    -3.349659301033     1.007825032230
      Gh(C)          -0.000128145351    -0.268369998261    -2.398229301033    12.000000000000
      Gh(H)          -0.000148145351    -0.877179998261    -1.489189301033     1.007825032230
      Gh(H)          -0.000348145351    -0.970659998261    -3.237229301033     1.007825032230
      Gh(C)           1.271901854649     0.567430001739    -2.443769301033    12.000000000000
      Gh(H)           1.270981854649     1.266680001739    -1.604119301033     1.007825032230
      Gh(H)           1.266651854649     1.177230001739    -3.350219301033     1.007825032230
      Gh(C)           2.533411854649    -0.284889998261    -2.404549301033    12.000000000000
      Gh(H)           2.563931854649    -0.967719998261    -3.253609301033     1.007825032230
      Gh(H)           3.434321854649     0.326300001739    -2.434229301033     1.007825032230
      Gh(H)           2.567571854649    -0.885159998261    -1.495499301033     1.007825032230
         C            2.533561854649     0.284510001739     2.404550698967    12.000000000000
         H            2.568151854649     0.884320001739     1.495230698967     1.007825032230
         H            2.564071854649     0.967720001739     3.253300698967     1.007825032230
         H            3.434251854649    -0.326989998261     2.434760698967     1.007825032230
         C            1.271741854649    -0.567379998261     2.443860698967    12.000000000000
         H            1.266291854649    -1.177099998261     3.350360698967     1.007825032230
         H            1.270611854649    -1.266729998261     1.604280698967     1.007825032230
         C           -0.000038145351     0.268720001739     2.398240698967    12.000000000000
         H           -0.000188145351     0.971030001739     3.237230698967     1.007825032230
         H            0.000041854649     0.877500001739     1.489170698967     1.007825032230
         C           -1.271798145351    -0.567419998261     2.443510698967    12.000000000000
         H           -1.266408145351    -1.177529998261     3.349760698967     1.007825032230
         H           -1.270688145351    -1.266439998261     1.603650698967     1.007825032230
         C           -2.533518145351     0.284630001739     2.404540698967    12.000000000000
         H           -2.567708145351     0.885160001739     1.495660698967     1.007825032230
         H           -3.434318145351    -0.326669998261     2.434050698967     1.007825032230
         H           -2.564058145351     0.967210001739     3.253800698967     1.007825032230

  Charge       = 0
  Multiplicity = 1
  Basis Set: AUG-CC-PVDZ
    Blend: AUG-CC-PVDZ
  Basis Set: (AUG-CC-PVDZ AUX)
    Blend: AUG-CC-PVDZ-JKFIT

    Orbital Energies [Eh]
    ---------------------

    Doubly Occupied:

       1A    -11.218256     2A    -11.218196     3A    -11.215629
       4A    -11.213946     5A    -11.213942     6A     -1.082581
       7A     -1.016610     8A     -0.920033     9A     -0.820540
      10A     -0.785391    11A     -0.646840    12A     -0.597997
      13A     -0.592358    14A     -0.553490    15A     -0.546777
      16A     -0.525022    17A     -0.493728    18A     -0.474860
      19A     -0.460986    20A     -0.458002    21A     -0.446179

  @DF-RHF Final Energy:  -196.35400908282926

   => Energetics <=

    Nuclear Repulsion Energy =            185.6355284492453563
    One-Electron Energy =                -630.9763538531749418
    Two-Electron Energy =                 248.9868163211002923
    Total Energy =                       -196.3540090828292648

  Dipole Moment: [D]
     X:    -0.0000      Y:    -0.0864      Z:     0.0048     Total:     0.0865

    SAPT Results
  --------------------------------------------------------------------------------------------------------
    Electrostatics                 -0.11169482 [mEh]      -0.07008956 [kcal/mol]      -0.29325471 [kJ/mol]
      Elst10,r                     -0.07015925 [mEh]      -0.04402559 [kcal/mol]      -0.18420308 [kJ/mol]
      Elst12,r                     -0.04153557 [mEh]      -0.02606397 [kcal/mol]      -0.10905163 [kJ/mol]

    Exchange                        0.40406199 [mEh]       0.25355273 [kcal/mol]       1.06086462 [kJ/mol]
      Exch10                        0.33263315 [mEh]       0.20873045 [kcal/mol]       0.87332821 [kJ/mol]
      Exch10(S^2)                   0.33262780 [mEh]       0.20872710 [kcal/mol]       0.87331417 [kJ/mol]
      Exch11(S^2)                   0.00228076 [mEh]       0.00143120 [kcal/mol]       0.00598814 [kJ/mol]
      Exch12(S^2)                   0.06914809 [mEh]       0.04339108 [kcal/mol]       0.18154828 [kJ/mol]

    Induction                      -0.03332576 [mEh]      -0.02091223 [kcal/mol]      -0.08749677 [kJ/mol]
      Ind20,r                      -0.03807000 [mEh]      -0.02388928 [kcal/mol]      -0.09995276 [kJ/mol]
      Ind22                        -0.01045517 [mEh]      -0.00656072 [kcal/mol]      -0.02745005 [kJ/mol]
      Exch-Ind20,r                  0.02905454 [mEh]       0.01823200 [kcal/mol]       0.07628267 [kJ/mol]
      Exch-Ind22                    0.00797925 [mEh]       0.00500706 [kcal/mol]       0.02094953 [kJ/mol]
      delta HF,r (2)               -0.02183438 [mEh]      -0.01370128 [kcal/mol]      -0.05732616 [kJ/mol]

    Dispersion                     -2.89559195 [mEh]      -1.81701138 [kcal/mol]      -7.60237563 [kJ/mol]
      Disp20                       -2.90583857 [mEh]      -1.82344123 [kcal/mol]      -7.62927811 [kJ/mol]
      Disp21                        0.34544720 [mEh]       0.21677139 [kcal/mol]       0.90697150 [kJ/mol]
      Disp22 (SDQ)                  0.03022675 [mEh]       0.01896757 [kcal/mol]       0.07936033 [kJ/mol]
      Disp22 (T)                   -0.40152647 [mEh]      -0.25196166 [kcal/mol]      -1.05420760 [kJ/mol]
      Est. Disp22 (T)              -0.41878355 [mEh]      -0.26279065 [kcal/mol]      -1.09951607 [kJ/mol]
      Exch-Disp20                   0.05335622 [mEh]       0.03348153 [kcal/mol]       0.14008673 [kJ/mol]

  Total HF                          0.23162406 [mEh]       0.14534629 [kcal/mol]       0.60812888 [kJ/mol]
  Total SAPT0                      -2.62085830 [mEh]      -1.64461341 [kcal/mol]      -6.88106251 [kJ/mol]
  Total SAPT2                      -2.59344094 [mEh]      -1.62740876 [kcal/mol]      -6.80907825 [kJ/mol]
  Total SAPT2+                     -2.63655054 [mEh]      -1.65446044 [kcal/mol]      -6.92226249 [kJ/mol]

  Special recipe for scaled SAPT0 (see Manual):
    Electrostatics sSAPT0          -0.07015925 [mEh]      -0.04402559 [kcal/mol]      -0.18420308 [kJ/mol]
    Exchange sSAPT0                 0.33263315 [mEh]       0.20873045 [kcal/mol]       0.87332821 [kJ/mol]
    Induction sSAPT0               -0.03084844 [mEh]      -0.01935769 [kcal/mol]      -0.08099257 [kJ/mol]
    Dispersion sSAPT0              -2.85247978 [mEh]      -1.78995809 [kcal/mol]      -7.48918463 [kJ/mol]
  Total sSAPT0                     -2.62085432 [mEh]      -1.64461092 [kcal/mol]      -6.88105207 [kJ/mol]
  --------------------------------------------------------------------------------------------------------

*** Psi4 exiting successfully. Buy a developer a beer!
