                               Psi4 1.4a2.dev224

  ==> Input File <==

--------------------------------------------------------------------------
#Generated by lconvert.py for sapt job

memory 20 GB

molecule  {
0 1
  C      -2.530380   -0.417570    0.681310
  H      -2.559890   -0.982790   -0.250160
  H      -2.554040   -1.133860    1.502660
  H      -3.436210    0.184140    0.736770
  C      -1.276160    0.443640    0.750030
  H      -1.278080    1.025220    1.675080
  H      -1.280340    1.168560   -0.067160
  C       0.002200   -0.380720    0.678990
  H       0.007830   -1.111410    1.493830
  H       0.006250   -0.960520   -0.248820
  C       1.268330    0.462400    0.749370
  H       1.262020    1.044250    1.674250
  H       1.261640    1.187060   -0.068030
  C       2.534970   -0.380430    0.680690
  H       2.572440   -0.945720   -0.250450
  H       3.431980    0.234420    0.735580
  H       2.569210   -1.095810    1.502460
--
0 1
  C      -0.000610    0.094680    6.321720
  C       0.000460   -0.045450    7.841450
  H      -0.886580    0.418620    8.274820
  H       0.009710   -1.096230    8.134460
  H       0.879120    0.434210    8.275100
  C      -1.240070   -0.586970    5.747820
  H      -1.263370   -0.498020    4.660990
  H      -1.252160   -1.648250    6.000840
  H      -2.151010   -0.134680    6.142910
  C       1.251990   -0.562860    5.748250
  H       1.273320   -0.474580    4.661280
  H       1.285120   -1.623420    6.002340
  H       2.153800   -0.092220    6.142670
  C      -0.014860    1.574470    5.947100
  H       0.862900    2.085060    6.346050
  H      -0.015390    1.700930    4.863450
  H      -0.902970    2.067800    6.344890
units angstrom
no_reorient
symmetry c1
}

set {
scf_type DF
basis aug-cc-pvdz
freeze_core True
guess SAD
}
energy('sapt2+')
--------------------------------------------------------------------------

  //              Dimer HF             //
    Molecular point group: c1
  Charge       = 0
  Multiplicity = 1
  Basis Set: AUG-CC-PVDZ
    Blend: AUG-CC-PVDZ
  Basis Set: (AUG-CC-PVDZ AUX)
    Blend: AUG-CC-PVDZ-JKFIT
  @DF-RHF Final Energy:  -392.70866007439452
    Total Energy =                       -392.7086600743945155
  //            Monomer A HF           //
    Molecular point group: c1
  Multiplicity = 1
  Basis Set: AUG-CC-PVDZ
    Blend: AUG-CC-PVDZ
  Basis Set: (AUG-CC-PVDZ AUX)
    Blend: AUG-CC-PVDZ-JKFIT
  @DF-RHF Final Energy:  -196.35395222228047
    Total Energy =                       -196.3539522222804692
  //            Monomer B HF           //
    Molecular point group: c1

    Geometry (in Angstrom), charge = 0, multiplicity = 1:

       Center              X                  Y                   Z               Mass
    ------------   -----------------  -----------------  -----------------  -----------------
      Gh(C)          -2.530003430156    -0.432585870465    -2.832899291365    12.000000000000
      Gh(H)          -2.559513430156    -0.997805870465    -3.764369291365     1.007825032230
      Gh(H)          -2.553663430156    -1.148875870465    -2.011549291365     1.007825032230
      Gh(H)          -3.435833430156     0.169124129535    -2.777439291365     1.007825032230
      Gh(C)          -1.275783430156     0.428624129535    -2.764179291365    12.000000000000
      Gh(H)          -1.277703430156     1.010204129535    -1.839129291365     1.007825032230
      Gh(H)          -1.279963430156     1.153544129535    -3.581369291365     1.007825032230
      Gh(C)           0.002576569844    -0.395735870465    -2.835219291365    12.000000000000
      Gh(H)           0.008206569844    -1.126425870465    -2.020379291365     1.007825032230
      Gh(H)           0.006626569844    -0.975535870465    -3.763029291365     1.007825032230
      Gh(C)           1.268706569844     0.447384129535    -2.764839291365    12.000000000000
      Gh(H)           1.262396569844     1.029234129535    -1.839959291365     1.007825032230
      Gh(H)           1.262016569844     1.172044129535    -3.582239291365     1.007825032230
      Gh(C)           2.535346569844    -0.395445870465    -2.833519291365    12.000000000000
      Gh(H)           2.572816569844    -0.960735870465    -3.764659291365     1.007825032230
      Gh(H)           3.432356569844     0.219404129535    -2.778629291365     1.007825032230
      Gh(H)           2.569586569844    -1.110825870465    -2.011749291365     1.007825032230
         C           -0.000233430156     0.079664129535     2.807510708635    12.000000000000
         C            0.000836569844    -0.060465870465     4.327240708635    12.000000000000
         H           -0.886203430156     0.403604129535     4.760610708635     1.007825032230
         H            0.010086569844    -1.111245870465     4.620250708635     1.007825032230
         H            0.879496569844     0.419194129535     4.760890708635     1.007825032230
         C           -1.239693430156    -0.601985870465     2.233610708635    12.000000000000
         H           -1.262993430156    -0.513035870465     1.146780708635     1.007825032230
         H           -1.251783430156    -1.663265870465     2.486630708635     1.007825032230
         H           -2.150633430156    -0.149695870465     2.628700708635     1.007825032230
         C            1.252366569844    -0.577875870465     2.234040708635    12.000000000000
         H            1.273696569844    -0.489595870465     1.147070708635     1.007825032230
         H            1.285496569844    -1.638435870465     2.488130708635     1.007825032230
         H            2.154176569844    -0.107235870465     2.628460708635     1.007825032230
         C           -0.014483430156     1.559454129535     2.432890708635    12.000000000000
         H            0.863276569844     2.070044129535     2.831840708635     1.007825032230
         H           -0.015013430156     1.685914129535     1.349240708635     1.007825032230
         H           -0.902593430156     2.052784129535     2.830680708635     1.007825032230

  Charge       = 0
  Multiplicity = 1
  Basis Set: AUG-CC-PVDZ
    Blend: AUG-CC-PVDZ
  Basis Set: (AUG-CC-PVDZ AUX)
    Blend: AUG-CC-PVDZ-JKFIT

    Orbital Energies [Eh]
    ---------------------

    Doubly Occupied:

       1A    -11.231196     2A    -11.212011     3A    -11.211997
       4A    -11.211980     5A    -11.211947     6A     -1.107859
       7A     -0.929849     8A     -0.929708     9A     -0.929703
      10A     -0.730211    11A     -0.611515    12A     -0.611449
      13A     -0.611420    14A     -0.552462    15A     -0.552427
      16A     -0.508407    17A     -0.508359    18A     -0.508328
      19A     -0.451771    20A     -0.451655    21A     -0.451644

  @DF-RHF Final Energy:  -196.35485050825358

   => Energetics <=

    Nuclear Repulsion Energy =            199.3691129943304645
    One-Electron Energy =                -658.3961283281814758
    Two-Electron Energy =                 262.6721648255974628
    Total Energy =                       -196.3548505082535485

  Dipole Moment: [D]
     X:     0.0000      Y:     0.0004      Z:    -0.0006     Total:     0.0007

    SAPT Results
  --------------------------------------------------------------------------------------------------------
    Electrostatics                 -0.06902437 [mEh]      -0.04331345 [kcal/mol]      -0.18122345 [kJ/mol]
      Elst10,r                     -0.04131018 [mEh]      -0.02592253 [kcal/mol]      -0.10845986 [kJ/mol]
      Elst12,r                     -0.02771419 [mEh]      -0.01739092 [kcal/mol]      -0.07276359 [kJ/mol]

    Exchange                        0.25581418 [mEh]       0.16052582 [kcal/mol]       0.67164004 [kJ/mol]
      Exch10                        0.20618926 [mEh]       0.12938571 [kcal/mol]       0.54134983 [kJ/mol]
      Exch10(S^2)                   0.20616271 [mEh]       0.12936905 [kcal/mol]       0.54128013 [kJ/mol]
      Exch11(S^2)                   0.00193782 [mEh]       0.00121600 [kcal/mol]       0.00508775 [kJ/mol]
      Exch12(S^2)                   0.04768710 [mEh]       0.02992411 [kcal/mol]       0.12520246 [kJ/mol]

    Induction                      -0.02455256 [mEh]      -0.01540696 [kcal/mol]      -0.06446272 [kJ/mol]
      Ind20,r                      -0.02456562 [mEh]      -0.01541516 [kcal/mol]      -0.06449702 [kJ/mol]
      Ind22                        -0.00761641 [mEh]      -0.00477937 [kcal/mol]      -0.01999689 [kJ/mol]
      Exch-Ind20,r                  0.01705179 [mEh]       0.01070016 [kcal/mol]       0.04476947 [kJ/mol]
      Exch-Ind22                    0.00528680 [mEh]       0.00331752 [kcal/mol]       0.01388049 [kJ/mol]
      delta HF,r (2)               -0.01470911 [mEh]      -0.00923011 [kcal/mol]      -0.03861878 [kJ/mol]

    Dispersion                     -1.93521342 [mEh]      -1.21436476 [kcal/mol]      -5.08090214 [kJ/mol]
      Disp20                       -1.91241813 [mEh]      -1.20006049 [kcal/mol]      -5.02105310 [kJ/mol]
      Disp21                        0.20200162 [mEh]       0.12675793 [kcal/mol]       0.53035519 [kJ/mol]
      Disp22 (SDQ)                  0.02721174 [mEh]       0.01707563 [kcal/mol]       0.07144442 [kJ/mol]
      Disp22 (T)                   -0.27174990 [mEh]      -0.17052564 [kcal/mol]      -0.71347927 [kJ/mol]
      Est. Disp22 (T)              -0.28471041 [mEh]      -0.17865848 [kcal/mol]      -0.74750709 [kJ/mol]
      Exch-Disp20                   0.03270175 [mEh]       0.02052066 [kcal/mol]       0.08585844 [kJ/mol]

  Total HF                          0.14265614 [mEh]       0.08951808 [kcal/mol]       0.37454364 [kJ/mol]
  Total SAPT0                      -1.73706024 [mEh]      -1.09002175 [kcal/mol]      -4.56065102 [kJ/mol]
  Total SAPT2                      -1.71747912 [mEh]      -1.07773442 [kcal/mol]      -4.50924080 [kJ/mol]
  Total SAPT2+                     -1.77297616 [mEh]      -1.11255934 [kcal/mol]      -4.65494827 [kJ/mol]

  Special recipe for scaled SAPT0 (see Manual):
    Electrostatics sSAPT0          -0.04131018 [mEh]      -0.02592253 [kcal/mol]      -0.10845986 [kJ/mol]
    Exchange sSAPT0                 0.20618926 [mEh]       0.12938571 [kcal/mol]       0.54134983 [kJ/mol]
    Induction sSAPT0               -0.02221635 [mEh]      -0.01394097 [kcal/mol]      -0.05832903 [kJ/mol]
    Dispersion sSAPT0              -1.87970374 [mEh]      -1.17953190 [kcal/mol]      -4.93516149 [kJ/mol]
  Total sSAPT0                     -1.73704101 [mEh]      -1.09000969 [kcal/mol]      -4.56060055 [kJ/mol]
  --------------------------------------------------------------------------------------------------------

*** Psi4 exiting successfully. Buy a developer a beer!
