                               Psi4 1.4a2.dev224

  ==> Input File <==

--------------------------------------------------------------------------
#Generated by lconvert.py for sapt job

memory 20 GB

molecule  {
0 1
  C       0.382520   -0.070610    0.766900
  C      -1.040640    0.396810    1.060940
  H      -1.771570   -0.281500    0.618330
  H      -1.224720    0.435730    2.135520
  H      -1.214070    1.393720    0.653090
  C       0.590850   -1.466820    1.347980
  H       1.602910   -1.822950    1.150100
  H       0.438970   -1.466750    2.428290
  H      -0.109920   -2.178680    0.909310
  C       1.378270    0.898430    1.399150
  H       2.404390    0.585440    1.200730
  H       1.243780    0.945970    2.480710
  H       1.248370    1.905020    0.998950
  C       0.601960   -0.111030   -0.743100
  H       0.459210    0.877040   -1.182900
  H       1.613690   -0.443460   -0.979670
  H      -0.099530   -0.797550   -1.219220
--
0 1
  C      -0.886130    0.163720    9.474580
  C       0.536680   -0.305240    9.181180
  H       0.721120   -0.344570    8.106660
  H       1.268120    0.372430    9.623920
  H       0.708950   -1.302250    9.589300
  C      -1.092530    1.560280    8.893750
  H      -2.104490    1.917270    9.090600
  H      -0.391610    2.271360    9.333470
  H      -0.939420    1.560480    7.813610
  C      -1.106420    0.203900   10.984430
  H      -2.117640    0.538180   11.220510
  H      -0.403910    0.888850   11.461270
  H      -0.965860   -0.784620   11.423890
  C      -1.882590   -0.804050    8.841440
  H      -1.753670   -1.811030    9.241010
  H      -2.908480   -0.490280    9.039820
  H      -1.747890   -0.851030    7.759860
units angstrom
no_reorient
symmetry c1
}

set {
scf_type DF
basis aug-cc-pvdz
freeze_core True
guess SAD
}
energy('sapt2+')
--------------------------------------------------------------------------

  //              Dimer HF             //
    Molecular point group: c1
  Charge       = 0
  Multiplicity = 1
  Basis Set: AUG-CC-PVDZ
    Blend: AUG-CC-PVDZ
  Basis Set: (AUG-CC-PVDZ AUX)
    Blend: AUG-CC-PVDZ-JKFIT
  @DF-RHF Final Energy:  -392.70936960213169
    Total Energy =                       -392.7093696021316873
  //            Monomer A HF           //
    Molecular point group: c1
  Multiplicity = 1
  Basis Set: AUG-CC-PVDZ
    Blend: AUG-CC-PVDZ
  Basis Set: (AUG-CC-PVDZ AUX)
    Blend: AUG-CC-PVDZ-JKFIT
  @DF-RHF Final Energy:  -196.35468848855396
    Total Energy =                       -196.3546884885539612
  //            Monomer B HF           //
    Molecular point group: c1

    Geometry (in Angstrom), charge = 0, multiplicity = 1:

       Center              X                  Y                   Z               Mass
    ------------   -----------------  -----------------  -----------------  -----------------
      Gh(C)           0.634322986021    -0.117148189198    -4.353823322479    12.000000000000
      Gh(C)          -0.788837013979     0.350271810802    -4.059783322479    12.000000000000
      Gh(H)          -1.519767013979    -0.328038189198    -4.502393322479     1.007825032230
      Gh(H)          -0.972917013979     0.389191810802    -2.985203322479     1.007825032230
      Gh(H)          -0.962267013979     1.347181810802    -4.467633322479     1.007825032230
      Gh(C)           0.842652986021    -1.513358189198    -3.772743322479    12.000000000000
      Gh(H)           1.854712986021    -1.869488189198    -3.970623322479     1.007825032230
      Gh(H)           0.690772986021    -1.513288189198    -2.692433322479     1.007825032230
      Gh(H)           0.141882986021    -2.225218189198    -4.211413322479     1.007825032230
      Gh(C)           1.630072986021     0.851891810802    -3.721573322479    12.000000000000
      Gh(H)           2.656192986021     0.538901810802    -3.919993322479     1.007825032230
      Gh(H)           1.495582986021     0.899431810802    -2.640013322479     1.007825032230
      Gh(H)           1.500172986021     1.858481810802    -4.121773322479     1.007825032230
      Gh(C)           0.853762986021    -0.157568189198    -5.863823322479    12.000000000000
      Gh(H)           0.711012986021     0.830501810802    -6.303623322479     1.007825032230
      Gh(H)           1.865492986021    -0.489998189198    -6.100393322479     1.007825032230
      Gh(H)           0.152272986021    -0.844088189198    -6.339943322479     1.007825032230
         C           -0.634327013979     0.117181810802     4.353856677521    12.000000000000
         C            0.788482986021    -0.351778189198     4.060456677521    12.000000000000
         H            0.972922986021    -0.391108189198     2.985936677521     1.007825032230
         H            1.519922986021     0.325891810802     4.503196677521     1.007825032230
         H            0.960752986021    -1.348788189198     4.468576677521     1.007825032230
         C           -0.840727013979     1.513741810802     3.773026677521    12.000000000000
         H           -1.852687013979     1.870731810802     3.969876677521     1.007825032230
         H           -0.139807013979     2.224821810802     4.212746677521     1.007825032230
         H           -0.687617013979     1.513941810802     2.692886677521     1.007825032230
         C           -0.854617013979     0.157361810802     5.863706677521    12.000000000000
         H           -1.865837013979     0.491641810802     6.099786677521     1.007825032230
         H           -0.152107013979     0.842311810802     6.340546677521     1.007825032230
         H           -0.714057013979    -0.831158189198     6.303166677521     1.007825032230
         C           -1.630787013979    -0.850588189198     3.720716677521    12.000000000000
         H           -1.501867013979    -1.857568189198     4.120286677521     1.007825032230
         H           -2.656677013979    -0.536818189198     3.919096677521     1.007825032230
         H           -1.496087013979    -0.897568189198     2.639136677521     1.007825032230

  Charge       = 0
  Multiplicity = 1
  Basis Set: AUG-CC-PVDZ
    Blend: AUG-CC-PVDZ
  Basis Set: (AUG-CC-PVDZ AUX)
    Blend: AUG-CC-PVDZ-JKFIT

    Orbital Energies [Eh]
    ---------------------

    Doubly Occupied:

       1A    -11.231279     2A    -11.212059     3A    -11.212058
       4A    -11.212036     5A    -11.211990     6A     -1.107802
       7A     -0.929790     8A     -0.929787     9A     -0.929698
      10A     -0.730308    11A     -0.611567    12A     -0.611565
      13A     -0.611139    14A     -0.552401    15A     -0.552397
      16A     -0.508418    17A     -0.508302    18A     -0.508298
      19A     -0.451767    20A     -0.451762    21A     -0.451669

  @DF-RHF Final Energy:  -196.35468829517842

   => Energetics <=

    Nuclear Repulsion Energy =            199.3552230971570225
    One-Electron Energy =                -658.3676399902499270
    Two-Electron Energy =                 262.6577285979145131
    Total Energy =                       -196.3546882951783914

  Dipole Moment: [D]
     X:     0.0001      Y:     0.0000      Z:    -0.0010     Total:     0.0010

    SAPT Results
  --------------------------------------------------------------------------------------------------------
    Electrostatics                  0.00703155 [mEh]       0.00441237 [kcal/mol]       0.01846134 [kJ/mol]
      Elst10,r                      0.00743044 [mEh]       0.00466267 [kcal/mol]       0.01950861 [kJ/mol]
      Elst12,r                     -0.00039888 [mEh]      -0.00025030 [kcal/mol]      -0.00104726 [kJ/mol]

    Exchange                        0.00006934 [mEh]       0.00004351 [kcal/mol]       0.00018206 [kJ/mol]
      Exch10                        0.00005028 [mEh]       0.00003155 [kcal/mol]       0.00013201 [kJ/mol]
      Exch10(S^2)                   0.00005028 [mEh]       0.00003155 [kcal/mol]       0.00013201 [kJ/mol]
      Exch11(S^2)                  -0.00000173 [mEh]      -0.00000109 [kcal/mol]      -0.00000454 [kJ/mol]
      Exch12(S^2)                   0.00002079 [mEh]       0.00001305 [kcal/mol]       0.00005459 [kJ/mol]

    Induction                      -0.00033575 [mEh]      -0.00021069 [kcal/mol]      -0.00088152 [kJ/mol]
      Ind20,r                      -0.00016756 [mEh]      -0.00010515 [kcal/mol]      -0.00043993 [kJ/mol]
      Ind22                        -0.00003941 [mEh]      -0.00002473 [kcal/mol]      -0.00010348 [kJ/mol]
      Exch-Ind20,r                  0.00001180 [mEh]       0.00000741 [kcal/mol]       0.00003099 [kJ/mol]
      Exch-Ind22                    0.00000278 [mEh]       0.00000174 [kcal/mol]       0.00000729 [kJ/mol]
      delta HF,r (2)               -0.00014336 [mEh]      -0.00008996 [kcal/mol]      -0.00037639 [kJ/mol]

    Dispersion                     -0.13420853 [mEh]      -0.08421713 [kcal/mol]      -0.35236445 [kJ/mol]
      Disp20                       -0.13504627 [mEh]      -0.08474281 [kcal/mol]      -0.35456394 [kJ/mol]
      Disp21                        0.01855309 [mEh]       0.01164224 [kcal/mol]       0.04871113 [kJ/mol]
      Disp22 (SDQ)                  0.00351116 [mEh]       0.00220329 [kcal/mol]       0.00921856 [kJ/mol]
      Disp22 (T)                   -0.02108259 [mEh]      -0.01322952 [kcal/mol]      -0.05535232 [kJ/mol]
      Est. Disp22 (T)              -0.02123978 [mEh]      -0.01332816 [kcal/mol]      -0.05576503 [kJ/mol]
      Exch-Disp20                   0.00001326 [mEh]       0.00000832 [kcal/mol]       0.00003481 [kJ/mol]

  Total HF                          0.00718160 [mEh]       0.00450652 [kcal/mol]       0.01885529 [kJ/mol]
  Total SAPT0                      -0.12785141 [mEh]      -0.08022797 [kcal/mol]      -0.33567383 [kJ/mol]
  Total SAPT2                      -0.12826787 [mEh]      -0.08048930 [kcal/mol]      -0.33676724 [kJ/mol]
  Total SAPT2+                     -0.12744339 [mEh]      -0.07997193 [kcal/mol]      -0.33460257 [kJ/mol]

  Special recipe for scaled SAPT0 (see Manual):
    Electrostatics sSAPT0           0.00743044 [mEh]       0.00466267 [kcal/mol]       0.01950861 [kJ/mol]
    Exchange sSAPT0                 0.00005028 [mEh]       0.00003155 [kcal/mol]       0.00013201 [kJ/mol]
    Induction sSAPT0               -0.00029912 [mEh]      -0.00018770 [kcal/mol]      -0.00078533 [kJ/mol]
    Dispersion sSAPT0              -0.13503301 [mEh]      -0.08473449 [kcal/mol]      -0.35452912 [kJ/mol]
  Total sSAPT0                     -0.12785141 [mEh]      -0.08022797 [kcal/mol]      -0.33567383 [kJ/mol]
  --------------------------------------------------------------------------------------------------------

*** Psi4 exiting successfully. Buy a developer a beer!
