                               Psi4 1.4a2.dev224

  ==> Input File <==

--------------------------------------------------------------------------
#Generated by lconvert.py for sapt job

memory 20 GB

molecule  {
0 1
  C       0.799910   -1.022050    0.687740
  H       0.853560   -1.122050   -0.398010
  H       1.491400   -1.744170    1.119720
  C       1.116890    0.424950    1.099660
  H       1.838140    0.890140    0.430450
  H       1.555570    0.439830    2.097080
  C      -0.244560    1.165690    1.102980
  H      -0.258080    2.000860    0.405320
  H      -0.448800    1.577000    2.090980
  C      -1.298710    0.103810    0.739310
  H      -1.473560    0.105240   -0.338000
  H      -2.256730    0.278040    1.227160
  C      -0.646880   -1.220070    1.136310
  H      -1.124440   -2.087630    0.682990
  H      -0.686020   -1.345280    2.220220
--
0 1
  C       0.116610    0.224240    8.607550
  C       0.020270    0.072150   10.123190
  H       1.012820    0.056690   10.575550
  H      -0.538650    0.900040   10.561620
  H      -0.486890   -0.856510   10.388540
  C       0.830670    1.531150    8.271920
  H       0.912190    1.664640    7.192240
  H       0.287200    2.385830    8.677420
  H       1.838270    1.541800    8.690160
  C      -1.288400    0.244070    8.010230
  H      -1.251470    0.361250    6.926380
  H      -1.870700    1.071490    8.418580
  H      -1.818300   -0.683720    8.231560
  C       0.904510   -0.949240    8.030210
  H       0.409290   -1.896230    8.250450
  H       0.999360   -0.862060    6.947080
  H       1.909230   -0.986650    8.453960
units angstrom
no_reorient
symmetry c1
}

set {
scf_type DF
basis aug-cc-pvdz
freeze_core True
guess SAD
}
energy('sapt2+')
--------------------------------------------------------------------------

  //              Dimer HF             //
    Molecular point group: c1
  Charge       = 0
  Multiplicity = 1
  Basis Set: AUG-CC-PVDZ
    Blend: AUG-CC-PVDZ
  Basis Set: (AUG-CC-PVDZ AUX)
    Blend: AUG-CC-PVDZ-JKFIT
  @DF-RHF Final Energy:  -391.53827094473837
    Total Energy =                       -391.5382709447383149
  //            Monomer A HF           //
    Molecular point group: c1
  Multiplicity = 1
  Basis Set: AUG-CC-PVDZ
    Blend: AUG-CC-PVDZ
  Basis Set: (AUG-CC-PVDZ AUX)
    Blend: AUG-CC-PVDZ-JKFIT
  @DF-RHF Final Energy:  -195.18358610623534
    Total Energy =                       -195.1835861062353388
  //            Monomer B HF           //
    Molecular point group: c1

    Geometry (in Angstrom), charge = 0, multiplicity = 1:

       Center              X                  Y                   Z               Mass
    ------------   -----------------  -----------------  -----------------  -----------------
      Gh(C)           0.767385340406    -1.082527125199    -4.147550968062    12.000000000000
      Gh(H)           0.821035340406    -1.182527125199    -5.233300968062     1.007825032230
      Gh(H)           1.458875340406    -1.804647125199    -3.715570968062     1.007825032230
      Gh(C)           1.084365340406     0.364472874801    -3.735630968062    12.000000000000
      Gh(H)           1.805615340406     0.829662874801    -4.404840968062     1.007825032230
      Gh(H)           1.523045340406     0.379352874801    -2.738210968062     1.007825032230
      Gh(C)          -0.277084659594     1.105212874801    -3.732310968062    12.000000000000
      Gh(H)          -0.290604659594     1.940382874801    -4.429970968062     1.007825032230
      Gh(H)          -0.481324659594     1.516522874801    -2.744310968062     1.007825032230
      Gh(C)          -1.331234659594     0.043332874801    -4.095980968062    12.000000000000
      Gh(H)          -1.506084659594     0.044762874801    -5.173290968062     1.007825032230
      Gh(H)          -2.289254659594     0.217562874801    -3.608130968062     1.007825032230
      Gh(C)          -0.679404659594    -1.280547125199    -3.698980968062    12.000000000000
      Gh(H)          -1.156964659594    -2.148107125199    -4.152300968062     1.007825032230
      Gh(H)          -0.718544659594    -1.405757125199    -2.615070968062     1.007825032230
         C            0.084085340406     0.163762874801     3.772259031938    12.000000000000
         C           -0.012254659594     0.011672874801     5.287899031938    12.000000000000
         H            0.980295340406    -0.003787125199     5.740259031938     1.007825032230
         H           -0.571174659594     0.839562874801     5.726329031938     1.007825032230
         H           -0.519414659594    -0.916987125199     5.553249031938     1.007825032230
         C            0.798145340406     1.470672874801     3.436629031938    12.000000000000
         H            0.879665340406     1.604162874801     2.356949031938     1.007825032230
         H            0.254675340406     2.325352874801     3.842129031938     1.007825032230
         H            1.805745340406     1.481322874801     3.854869031938     1.007825032230
         C           -1.320924659594     0.183592874801     3.174939031938    12.000000000000
         H           -1.283994659594     0.300772874801     2.091089031938     1.007825032230
         H           -1.903224659594     1.011012874801     3.583289031938     1.007825032230
         H           -1.850824659594    -0.744197125199     3.396269031938     1.007825032230
         C            0.871985340406    -1.009717125199     3.194919031938    12.000000000000
         H            0.376765340406    -1.956707125199     3.415159031938     1.007825032230
         H            0.966835340406    -0.922537125199     2.111789031938     1.007825032230
         H            1.876705340406    -1.047127125199     3.618669031938     1.007825032230

  Charge       = 0
  Multiplicity = 1
  Basis Set: AUG-CC-PVDZ
    Blend: AUG-CC-PVDZ
  Basis Set: (AUG-CC-PVDZ AUX)
    Blend: AUG-CC-PVDZ-JKFIT

    Orbital Energies [Eh]
    ---------------------

    Doubly Occupied:

       1A    -11.231309     2A    -11.212094     3A    -11.212077
       4A    -11.212044     5A    -11.211961     6A     -1.107738
       7A     -0.929965     8A     -0.929768     9A     -0.929488
      10A     -0.730270    11A     -0.611678    12A     -0.611503
      13A     -0.611023    14A     -0.552600    15A     -0.552217
      16A     -0.508437    17A     -0.508322    18A     -0.508311
      19A     -0.451877    20A     -0.451709    21A     -0.451522

  @DF-RHF Final Energy:  -196.35469410094595

   => Energetics <=

    Nuclear Repulsion Energy =            199.3448207917182060
    One-Electron Energy =                -658.3472045784374131
    Two-Electron Energy =                 262.6476896857732299
    Total Energy =                       -196.3546941009459488

  Dipole Moment: [D]
     X:     0.0001      Y:     0.0002      Z:    -0.0013     Total:     0.0013

    SAPT Results
  --------------------------------------------------------------------------------------------------------
    Electrostatics                  0.00812054 [mEh]       0.00509572 [kcal/mol]       0.02132048 [kJ/mol]
      Elst10,r                      0.00901846 [mEh]       0.00565917 [kcal/mol]       0.02367795 [kJ/mol]
      Elst12,r                     -0.00089791 [mEh]      -0.00056345 [kcal/mol]      -0.00235747 [kJ/mol]

    Exchange                        0.00073508 [mEh]       0.00046127 [kcal/mol]       0.00192994 [kJ/mol]
      Exch10                        0.00051844 [mEh]       0.00032533 [kcal/mol]       0.00136116 [kJ/mol]
      Exch10(S^2)                   0.00051844 [mEh]       0.00032533 [kcal/mol]       0.00136116 [kJ/mol]
      Exch11(S^2)                  -0.00001329 [mEh]      -0.00000834 [kcal/mol]      -0.00003489 [kJ/mol]
      Exch12(S^2)                   0.00022992 [mEh]       0.00014428 [kcal/mol]       0.00060367 [kJ/mol]

    Induction                      -0.00039043 [mEh]      -0.00024500 [kcal/mol]      -0.00102508 [kJ/mol]
      Ind20,r                      -0.00047467 [mEh]      -0.00029786 [kcal/mol]      -0.00124626 [kJ/mol]
      Ind22                        -0.00015152 [mEh]      -0.00009508 [kcal/mol]      -0.00039782 [kJ/mol]
      Exch-Ind20,r                  0.00011134 [mEh]       0.00006987 [kcal/mol]       0.00029233 [kJ/mol]
      Exch-Ind22                    0.00003554 [mEh]       0.00002230 [kcal/mol]       0.00009331 [kJ/mol]
      delta HF,r (2)                0.00008888 [mEh]       0.00005577 [kcal/mol]       0.00023335 [kJ/mol]

    Dispersion                     -0.25410825 [mEh]      -0.15945533 [kcal/mol]      -0.66716111 [kJ/mol]
      Disp20                       -0.25877012 [mEh]      -0.16238070 [kcal/mol]      -0.67940085 [kJ/mol]
      Disp21                        0.04122853 [mEh]       0.02587129 [kcal/mol]       0.10824549 [kJ/mol]
      Disp22 (SDQ)                  0.00367480 [mEh]       0.00230597 [kcal/mol]       0.00964818 [kJ/mol]
      Disp22 (T)                   -0.03992406 [mEh]      -0.02505272 [kcal/mol]      -0.10482060 [kJ/mol]
      Est. Disp22 (T)              -0.04035717 [mEh]      -0.02532451 [kcal/mol]      -0.10595774 [kJ/mol]
      Exch-Disp20                   0.00011572 [mEh]       0.00007261 [kcal/mol]       0.00030382 [kJ/mol]

  Total HF                          0.00926244 [mEh]       0.00581227 [kcal/mol]       0.02431854 [kJ/mol]
  Total SAPT0                      -0.24939196 [mEh]      -0.15649582 [kcal/mol]      -0.65477849 [kJ/mol]
  Total SAPT2                      -0.25018921 [mEh]      -0.15699610 [kcal/mol]      -0.65687169 [kJ/mol]
  Total SAPT2+                     -0.24564306 [mEh]      -0.15414335 [kcal/mol]      -0.64493576 [kJ/mol]

  Special recipe for scaled SAPT0 (see Manual):
    Electrostatics sSAPT0           0.00901846 [mEh]       0.00565917 [kcal/mol]       0.02367795 [kJ/mol]
    Exchange sSAPT0                 0.00051844 [mEh]       0.00032533 [kcal/mol]       0.00136116 [kJ/mol]
    Induction sSAPT0               -0.00027445 [mEh]      -0.00017222 [kcal/mol]      -0.00072058 [kJ/mol]
    Dispersion sSAPT0              -0.25865440 [mEh]      -0.16230809 [kcal/mol]      -0.67909703 [kJ/mol]
  Total sSAPT0                     -0.24939196 [mEh]      -0.15649582 [kcal/mol]      -0.65477849 [kJ/mol]
  --------------------------------------------------------------------------------------------------------

*** Psi4 exiting successfully. Buy a developer a beer!
