                               Psi4 1.4a2.dev224

  ==> Input File <==

--------------------------------------------------------------------------
#Generated by lconvert.py for sapt job

memory 20 GB

molecule  {
0 1
  C       0.799910   -1.022050    0.687740
  H       0.853560   -1.122050   -0.398010
  H       1.491400   -1.744170    1.119720
  C       1.116890    0.424950    1.099660
  H       1.838140    0.890140    0.430450
  H       1.555570    0.439830    2.097080
  C      -0.244560    1.165690    1.102980
  H      -0.258080    2.000860    0.405320
  H      -0.448800    1.577000    2.090980
  C      -1.298710    0.103810    0.739310
  H      -1.473560    0.105240   -0.338000
  H      -2.256730    0.278040    1.227160
  C      -0.646880   -1.220070    1.136310
  H      -1.124440   -2.087630    0.682990
  H      -0.686020   -1.345280    2.220220
--
0 1
  C       0.094150    0.180480    7.600880
  C      -0.002200    0.028390    9.116510
  H       0.990350    0.012930    9.568870
  H      -0.561120    0.856280    9.554950
  H      -0.509360   -0.900270    9.381860
  C       0.808200    1.487380    7.265250
  H       0.889720    1.620880    6.185570
  H       0.264730    2.342070    7.670750
  H       1.815800    1.498040    7.683480
  C      -1.310870    0.200310    7.003560
  H      -1.273940    0.317490    5.919710
  H      -1.893170    1.027730    7.411900
  H      -1.840770   -0.727480    7.224880
  C       0.882040   -0.993010    7.023540
  H       0.386820   -1.940000    7.243780
  H       0.976890   -0.905820    5.940400
  H       1.886760   -1.030410    7.447280
units angstrom
no_reorient
symmetry c1
}

set {
scf_type DF
basis aug-cc-pvdz
freeze_core True
guess SAD
}
energy('sapt2+')
--------------------------------------------------------------------------

  //              Dimer HF             //
    Molecular point group: c1
  Charge       = 0
  Multiplicity = 1
  Basis Set: AUG-CC-PVDZ
    Blend: AUG-CC-PVDZ
  Basis Set: (AUG-CC-PVDZ AUX)
    Blend: AUG-CC-PVDZ-JKFIT
  @DF-RHF Final Energy:  -391.53833937731747
    Total Energy =                       -391.5383393773174703
  //            Monomer A HF           //
    Molecular point group: c1
  Multiplicity = 1
  Basis Set: AUG-CC-PVDZ
    Blend: AUG-CC-PVDZ
  Basis Set: (AUG-CC-PVDZ AUX)
    Blend: AUG-CC-PVDZ-JKFIT
  @DF-RHF Final Energy:  -195.18362785814168
    Total Energy =                       -195.1836278581416764
  //            Monomer B HF           //
    Molecular point group: c1

    Geometry (in Angstrom), charge = 0, multiplicity = 1:

       Center              X                  Y                   Z               Mass
    ------------   -----------------  -----------------  -----------------  -----------------
      Gh(C)           0.778778780919    -1.060335161840    -3.637078580269    12.000000000000
      Gh(H)           0.832428780919    -1.160335161840    -4.722828580269     1.007825032230
      Gh(H)           1.470268780919    -1.782455161840    -3.205098580269     1.007825032230
      Gh(C)           1.095758780919     0.386664838160    -3.225158580269    12.000000000000
      Gh(H)           1.817008780919     0.851854838160    -3.894368580269     1.007825032230
      Gh(H)           1.534438780919     0.401544838160    -2.227738580269     1.007825032230
      Gh(C)          -0.265691219081     1.127404838160    -3.221838580269    12.000000000000
      Gh(H)          -0.279211219081     1.962574838160    -3.919498580269     1.007825032230
      Gh(H)          -0.469931219081     1.538714838160    -2.233838580269     1.007825032230
      Gh(C)          -1.319841219081     0.065524838160    -3.585508580269    12.000000000000
      Gh(H)          -1.494691219081     0.066954838160    -4.662818580269     1.007825032230
      Gh(H)          -2.277861219081     0.239754838160    -3.097658580269     1.007825032230
      Gh(C)          -0.668011219081    -1.258355161840    -3.188508580269    12.000000000000
      Gh(H)          -1.145571219081    -2.125915161840    -3.641828580269     1.007825032230
      Gh(H)          -0.707151219081    -1.383565161840    -2.104598580269     1.007825032230
         C            0.073018780919     0.142194838160     3.276061419731    12.000000000000
         C           -0.023331219081    -0.009895161840     4.791691419731    12.000000000000
         H            0.969218780919    -0.025355161840     5.244051419731     1.007825032230
         H           -0.582251219081     0.817994838160     5.230131419731     1.007825032230
         H           -0.530491219081    -0.938555161840     5.057041419731     1.007825032230
         C            0.787068780919     1.449094838160     2.940431419731    12.000000000000
         H            0.868588780919     1.582594838160     1.860751419731     1.007825032230
         H            0.243598780919     2.303784838160     3.345931419731     1.007825032230
         H            1.794668780919     1.459754838160     3.358661419731     1.007825032230
         C           -1.332001219081     0.162024838160     2.678741419731    12.000000000000
         H           -1.295071219081     0.279204838160     1.594891419731     1.007825032230
         H           -1.914301219081     0.989444838160     3.087081419731     1.007825032230
         H           -1.861901219081    -0.765765161840     2.900061419731     1.007825032230
         C            0.860908780919    -1.031295161840     2.698721419731    12.000000000000
         H            0.365688780919    -1.978285161840     2.918961419731     1.007825032230
         H            0.955758780919    -0.944105161840     1.615581419731     1.007825032230
         H            1.865628780919    -1.068695161840     3.122461419731     1.007825032230

  Charge       = 0
  Multiplicity = 1
  Basis Set: AUG-CC-PVDZ
    Blend: AUG-CC-PVDZ
  Basis Set: (AUG-CC-PVDZ AUX)
    Blend: AUG-CC-PVDZ-JKFIT

    Orbital Energies [Eh]
    ---------------------

    Doubly Occupied:

       1A    -11.231306     2A    -11.212076     3A    -11.212061
       4A    -11.212031     5A    -11.211959     6A     -1.107740
       7A     -0.929961     8A     -0.929767     9A     -0.929487
      10A     -0.730271    11A     -0.611678    12A     -0.611504
      13A     -0.611021    14A     -0.552597    15A     -0.552215
      16A     -0.508436    17A     -0.508319    18A     -0.508307
      19A     -0.451875    20A     -0.451714    21A     -0.451522

  @DF-RHF Final Energy:  -196.35473556076693

   => Energetics <=

    Nuclear Repulsion Energy =            199.3449814611988131
    One-Electron Energy =                -658.3477383916292638
    Two-Electron Energy =                 262.6480213696635246
    Total Energy =                       -196.3547355607669260

  Dipole Moment: [D]
     X:     0.0001      Y:     0.0001      Z:    -0.0012     Total:     0.0012

    SAPT Results
  --------------------------------------------------------------------------------------------------------
    Electrostatics                  0.00878103 [mEh]       0.00551018 [kcal/mol]       0.02305458 [kJ/mol]
      Elst10,r                      0.01297119 [mEh]       0.00813955 [kcal/mol]       0.03405586 [kJ/mol]
      Elst12,r                     -0.00419017 [mEh]      -0.00262937 [kcal/mol]      -0.01100128 [kJ/mol]

    Exchange                        0.01753614 [mEh]       0.01100410 [kcal/mol]       0.04604114 [kJ/mol]
      Exch10                        0.01329755 [mEh]       0.00834434 [kcal/mol]       0.03491270 [kJ/mol]
      Exch10(S^2)                   0.01329732 [mEh]       0.00834419 [kcal/mol]       0.03491211 [kJ/mol]
      Exch11(S^2)                  -0.00005624 [mEh]      -0.00003529 [kcal/mol]      -0.00014766 [kJ/mol]
      Exch12(S^2)                   0.00429484 [mEh]       0.00269505 [kcal/mol]       0.01127609 [kJ/mol]

    Induction                      -0.00263916 [mEh]      -0.00165610 [kcal/mol]      -0.00692911 [kJ/mol]
      Ind20,r                      -0.00261284 [mEh]      -0.00163958 [kcal/mol]      -0.00686001 [kJ/mol]
      Ind22                        -0.00076778 [mEh]      -0.00048179 [kcal/mol]      -0.00201581 [kJ/mol]
      Exch-Ind20,r                  0.00121073 [mEh]       0.00075974 [kcal/mol]       0.00317877 [kJ/mol]
      Exch-Ind22                    0.00035577 [mEh]       0.00022325 [kcal/mol]       0.00093408 [kJ/mol]
      delta HF,r (2)               -0.00082504 [mEh]      -0.00051772 [kcal/mol]      -0.00216614 [kJ/mol]

    Dispersion                     -0.66758489 [mEh]      -0.41891584 [kcal/mol]      -1.75274388 [kJ/mol]
      Disp20                       -0.66690359 [mEh]      -0.41848832 [kcal/mol]      -1.75095514 [kJ/mol]
      Disp21                        0.09183386 [mEh]       0.05762662 [kcal/mol]       0.24110976 [kJ/mol]
      Disp22 (SDQ)                  0.00792193 [mEh]       0.00497108 [kcal/mol]       0.02079902 [kJ/mol]
      Disp22 (T)                   -0.10041076 [mEh]      -0.06300870 [kcal/mol]      -0.26362841 [kJ/mol]
      Est. Disp22 (T)              -0.10296981 [mEh]      -0.06461453 [kcal/mol]      -0.27034719 [kJ/mol]
      Exch-Disp20                   0.00253272 [mEh]       0.00158931 [kcal/mol]       0.00664966 [kJ/mol]

  Total HF                          0.02404159 [mEh]       0.01508633 [kcal/mol]       0.06312119 [kJ/mol]
  Total SAPT0                      -0.64032928 [mEh]      -0.40181269 [kcal/mol]      -1.68118428 [kJ/mol]
  Total SAPT2                      -0.64069286 [mEh]      -0.40204084 [kcal/mol]      -1.68213886 [kJ/mol]
  Total SAPT2+                     -0.64390688 [mEh]      -0.40405767 [kcal/mol]      -1.69057727 [kJ/mol]

  Special recipe for scaled SAPT0 (see Manual):
    Electrostatics sSAPT0           0.01297119 [mEh]       0.00813955 [kcal/mol]       0.03405586 [kJ/mol]
    Exchange sSAPT0                 0.01329755 [mEh]       0.00834434 [kcal/mol]       0.03491270 [kJ/mol]
    Induction sSAPT0               -0.00222709 [mEh]      -0.00139752 [kcal/mol]      -0.00584721 [kJ/mol]
    Dispersion sSAPT0              -0.66437074 [mEh]      -0.41689893 [kcal/mol]      -1.74430514 [kJ/mol]
  Total sSAPT0                     -0.64032909 [mEh]      -0.40181257 [kcal/mol]      -1.68118379 [kJ/mol]
  --------------------------------------------------------------------------------------------------------

*** Psi4 exiting successfully. Buy a developer a beer!
