                               Psi4 1.4a2.dev224

  ==> Input File <==

--------------------------------------------------------------------------
#Generated by lconvert.py for sapt job

memory 20 GB

molecule  {
0 1
  C       0.799910   -1.022050    0.687740
  H       0.853560   -1.122050   -0.398010
  H       1.491400   -1.744170    1.119720
  C       1.116890    0.424950    1.099660
  H       1.838140    0.890140    0.430450
  H       1.555570    0.439830    2.097080
  C      -0.244560    1.165690    1.102980
  H      -0.258080    2.000860    0.405320
  H      -0.448800    1.577000    2.090980
  C      -1.298710    0.103810    0.739310
  H      -1.473560    0.105240   -0.338000
  H      -2.256730    0.278040    1.227160
  C      -0.646880   -1.220070    1.136310
  H      -1.124440   -2.087630    0.682990
  H      -0.686020   -1.345280    2.220220
--
0 1
  C       0.071680    0.136720    6.594200
  C      -0.024670   -0.015370    8.109840
  H       0.967880   -0.030830    8.562200
  H      -0.583590    0.812520    8.548280
  H      -0.531830   -0.944030    8.375190
  C       0.785730    1.443620    6.258580
  H       0.867250    1.577120    5.178890
  H       0.242260    2.298310    6.664080
  H       1.793330    1.454270    6.676810
  C      -1.333340    0.156540    5.996880
  H      -1.296410    0.273730    4.913030
  H      -1.915640    0.983970    6.405230
  H      -1.863240   -0.771240    6.218210
  C       0.859570   -1.036770    6.016860
  H       0.364350   -1.983760    6.237110
  H       0.954420   -0.949580    4.933730
  H       1.864290   -1.074170    6.440610
units angstrom
no_reorient
symmetry c1
}

set {
scf_type DF
basis aug-cc-pvdz
freeze_core True
guess SAD
}
energy('sapt2+')
--------------------------------------------------------------------------

  //              Dimer HF             //
    Molecular point group: c1
  Charge       = 0
  Multiplicity = 1
  Basis Set: AUG-CC-PVDZ
    Blend: AUG-CC-PVDZ
  Basis Set: (AUG-CC-PVDZ AUX)
    Blend: AUG-CC-PVDZ-JKFIT
  @DF-RHF Final Energy:  -391.53838912897766
    Total Energy =                       -391.5383891289776557
  //            Monomer A HF           //
    Molecular point group: c1
  Multiplicity = 1
  Basis Set: AUG-CC-PVDZ
    Blend: AUG-CC-PVDZ
  Basis Set: (AUG-CC-PVDZ AUX)
    Blend: AUG-CC-PVDZ-JKFIT
  @DF-RHF Final Energy:  -195.18373897826780
    Total Energy =                       -195.1837389782677974
  //            Monomer B HF           //
    Molecular point group: c1

    Geometry (in Angstrom), charge = 0, multiplicity = 1:

       Center              X                  Y                   Z               Mass
    ------------   -----------------  -----------------  -----------------  -----------------
      Gh(C)           0.790173065479    -1.038144042528    -3.126604858820    12.000000000000
      Gh(H)           0.843823065479    -1.138144042528    -4.212354858820     1.007825032230
      Gh(H)           1.481663065479    -1.760264042528    -2.694624858820     1.007825032230
      Gh(C)           1.107153065479     0.408855957472    -2.714684858820    12.000000000000
      Gh(H)           1.828403065479     0.874045957472    -3.383894858820     1.007825032230
      Gh(H)           1.545833065479     0.423735957472    -1.717264858820     1.007825032230
      Gh(C)          -0.254296934521     1.149595957472    -2.711364858820    12.000000000000
      Gh(H)          -0.267816934521     1.984765957472    -3.409024858820     1.007825032230
      Gh(H)          -0.458536934521     1.560905957472    -1.723364858820     1.007825032230
      Gh(C)          -1.308446934521     0.087715957472    -3.075034858820    12.000000000000
      Gh(H)          -1.483296934521     0.089145957472    -4.152344858820     1.007825032230
      Gh(H)          -2.266466934521     0.261945957472    -2.587184858820     1.007825032230
      Gh(C)          -0.656616934521    -1.236164042528    -2.678034858820    12.000000000000
      Gh(H)          -1.134176934521    -2.103724042528    -3.131354858820     1.007825032230
      Gh(H)          -0.695756934521    -1.361374042528    -1.594124858820     1.007825032230
         C            0.061943065479     0.120625957472     2.779855141180    12.000000000000
         C           -0.034406934521    -0.031464042528     4.295495141180    12.000000000000
         H            0.958143065479    -0.046924042528     4.747855141180     1.007825032230
         H           -0.593326934521     0.796425957472     4.733935141180     1.007825032230
         H           -0.541566934521    -0.960124042528     4.560845141180     1.007825032230
         C            0.775993065479     1.427525957472     2.444235141180    12.000000000000
         H            0.857513065479     1.561025957472     1.364545141180     1.007825032230
         H            0.232523065479     2.282215957472     2.849735141180     1.007825032230
         H            1.783593065479     1.438175957472     2.862465141180     1.007825032230
         C           -1.343076934521     0.140445957472     2.182535141180    12.000000000000
         H           -1.306146934521     0.257635957472     1.098685141180     1.007825032230
         H           -1.925376934521     0.967875957472     2.590885141180     1.007825032230
         H           -1.872976934521    -0.787334042528     2.403865141180     1.007825032230
         C            0.849833065479    -1.052864042528     2.202515141180    12.000000000000
         H            0.354613065479    -1.999854042528     2.422765141180     1.007825032230
         H            0.944683065479    -0.965674042528     1.119385141180     1.007825032230
         H            1.854553065479    -1.090264042528     2.626265141180     1.007825032230

  Charge       = 0
  Multiplicity = 1
  Basis Set: AUG-CC-PVDZ
    Blend: AUG-CC-PVDZ
  Basis Set: (AUG-CC-PVDZ AUX)
    Blend: AUG-CC-PVDZ-JKFIT

    Orbital Energies [Eh]
    ---------------------

    Doubly Occupied:

       1A    -11.231304     2A    -11.212026     3A    -11.212017
       4A    -11.211997     5A    -11.211953     6A     -1.107737
       7A     -0.929957     8A     -0.929763     9A     -0.929484
      10A     -0.730272    11A     -0.611681    12A     -0.611508
      13A     -0.611017    14A     -0.552596    15A     -0.552211
      16A     -0.508432    17A     -0.508314    18A     -0.508306
      19A     -0.451873    20A     -0.451713    21A     -0.451516

  @DF-RHF Final Energy:  -196.35487239303558

   => Energetics <=

    Nuclear Repulsion Energy =            199.3447969761765819
    One-Electron Energy =                -658.3479906772415688
    Two-Electron Energy =                 262.6483213080294377
    Total Energy =                       -196.3548723930355777

  Dipole Moment: [D]
     X:     0.0001      Y:     0.0000      Z:    -0.0017     Total:     0.0017

    SAPT Results
  --------------------------------------------------------------------------------------------------------
    Electrostatics                 -0.10809532 [mEh]      -0.06783084 [kcal/mol]      -0.28380422 [kJ/mol]
      Elst10,r                     -0.06866533 [mEh]      -0.04308814 [kcal/mol]      -0.18028079 [kJ/mol]
      Elst12,r                     -0.03942999 [mEh]      -0.02474269 [kcal/mol]      -0.10352343 [kJ/mol]

    Exchange                        0.40305365 [mEh]       0.25291998 [kcal/mol]       1.05821720 [kJ/mol]
      Exch10                        0.32640228 [mEh]       0.20482052 [kcal/mol]       0.85696907 [kJ/mol]
      Exch10(S^2)                   0.32631452 [mEh]       0.20476545 [kcal/mol]       0.85673864 [kJ/mol]
      Exch11(S^2)                   0.00424034 [mEh]       0.00266085 [kcal/mol]       0.01113301 [kJ/mol]
      Exch12(S^2)                   0.07241103 [mEh]       0.04543861 [kcal/mol]       0.19011513 [kJ/mol]

    Induction                      -0.03886173 [mEh]      -0.02438610 [kcal/mol]      -0.10203145 [kJ/mol]
      Ind20,r                      -0.03808137 [mEh]      -0.02389642 [kcal/mol]      -0.09998263 [kJ/mol]
      Ind22                        -0.01155028 [mEh]      -0.00724791 [kcal/mol]      -0.03032526 [kJ/mol]
      Exch-Ind20,r                  0.02698002 [mEh]       0.01693022 [kcal/mol]       0.07083604 [kJ/mol]
      Exch-Ind22                    0.00818318 [mEh]       0.00513502 [kcal/mol]       0.02148494 [kJ/mol]
      delta HF,r (2)               -0.02439328 [mEh]      -0.01530701 [kcal/mol]      -0.06404454 [kJ/mol]

    Dispersion                     -2.13866009 [mEh]      -1.34202947 [kcal/mol]      -5.61505129 [kJ/mol]
      Disp20                       -2.10852198 [mEh]      -1.32311752 [kcal/mol]      -5.53592370 [kJ/mol]
      Disp21                        0.22359354 [mEh]       0.14030706 [kcal/mol]       0.58704475 [kJ/mol]
      Disp22 (SDQ)                  0.01850700 [mEh]       0.01161331 [kcal/mol]       0.04859011 [kJ/mol]
      Disp22 (T)                   -0.30415422 [mEh]      -0.19085965 [kcal/mol]      -0.79855679 [kJ/mol]
      Est. Disp22 (T)              -0.31967919 [mEh]      -0.20060172 [kcal/mol]      -0.83931759 [kJ/mol]
      Exch-Disp20                   0.04744055 [mEh]       0.02976940 [kcal/mol]       0.12455515 [kJ/mol]

  Total HF                          0.22224233 [mEh]       0.13945916 [kcal/mol]       0.58349715 [kJ/mol]
  Total SAPT0                      -1.83883910 [mEh]      -1.15388896 [kcal/mol]      -4.82787140 [kJ/mol]
  Total SAPT2                      -1.80498483 [mEh]      -1.13264508 [kcal/mol]      -4.73898701 [kJ/mol]
  Total SAPT2+                     -1.88256348 [mEh]      -1.18132642 [kcal/mol]      -4.94266975 [kJ/mol]

  Special recipe for scaled SAPT0 (see Manual):
    Electrostatics sSAPT0          -0.06866533 [mEh]      -0.04308814 [kcal/mol]      -0.18028079 [kJ/mol]
    Exchange sSAPT0                 0.32640228 [mEh]       0.20482052 [kcal/mol]       0.85696907 [kJ/mol]
    Induction sSAPT0               -0.03547285 [mEh]      -0.02225955 [kcal/mol]      -0.09313396 [kJ/mol]
    Dispersion sSAPT0              -2.06104314 [mEh]      -1.29332410 [kcal/mol]      -5.41126802 [kJ/mol]
  Total sSAPT0                     -1.83877904 [mEh]      -1.15385127 [kcal/mol]      -4.82771371 [kJ/mol]
  --------------------------------------------------------------------------------------------------------

*** Psi4 exiting successfully. Buy a developer a beer!
