                               Psi4 1.4a2.dev224

  ==> Input File <==

--------------------------------------------------------------------------
#Generated by lconvert.py for sapt job

memory 20 GB

molecule  {
0 1
  C       0.956880   -0.891850    1.141950
  H       1.504570   -1.278360    0.283420
  H       1.421380   -1.314780    2.031030
  C       0.990950    0.658510    1.145500
  H       1.510590    1.023100    0.259950
  H       1.516260    1.059820    2.010540
  C      -0.479450    1.102320    1.103880
  H      -0.616270    2.064880    0.613570
  H      -0.874740    1.189070    2.118070
  C      -1.182110   -0.052800    0.393350
  H      -0.948880   -0.026830   -0.673800
  H      -2.265660   -0.033560    0.501270
  C      -0.530660   -1.274890    1.039310
  H      -0.690390   -2.197020    0.482990
  H      -0.950850   -1.415410    2.036750
--
0 1
  C      -1.090900   -0.301340    6.931730
  H      -1.424030   -0.064640    5.919140
  H      -1.895690   -0.844430    7.424710
  C       0.222700   -1.096880    6.883970
  H       0.272650   -1.754620    6.017830
  H       0.302990   -1.728240    7.768350
  C       1.352020   -0.034170    6.884560
  H       1.973290   -0.094850    5.992690
  H       2.009430   -0.184060    7.739970
  C       0.641850    1.327500    6.992430
  H       0.461980    1.735990    5.996430
  H       1.222230    2.061900    7.548400
  C      -0.700200    0.993020    7.642240
  H      -1.439870    1.785530    7.537360
  H      -0.560170    0.801380    8.708790
units angstrom
no_reorient
symmetry c1
}

set {
scf_type DF
basis aug-cc-pvdz
freeze_core True
guess SAD
}
energy('sapt2+')
--------------------------------------------------------------------------

  //              Dimer HF             //
    Molecular point group: c1
  Charge       = 0
  Multiplicity = 1
  Basis Set: AUG-CC-PVDZ
    Blend: AUG-CC-PVDZ
  Basis Set: (AUG-CC-PVDZ AUX)
    Blend: AUG-CC-PVDZ-JKFIT
  @DF-RHF Final Energy:  -390.36711292870979
    Total Energy =                       -390.3671129287097301
  //            Monomer A HF           //
    Molecular point group: c1
  Multiplicity = 1
  Basis Set: AUG-CC-PVDZ
    Blend: AUG-CC-PVDZ
  Basis Set: (AUG-CC-PVDZ AUX)
    Blend: AUG-CC-PVDZ-JKFIT
  @DF-RHF Final Energy:  -195.18356333038884
    Total Energy =                       -195.1835633303888358
  //            Monomer B HF           //
    Molecular point group: c1

    Geometry (in Angstrom), charge = 0, multiplicity = 1:

       Center              X                  Y                   Z               Mass
    ------------   -----------------  -----------------  -----------------  -----------------
      Gh(C)           0.937573595937    -0.934260103033    -2.873939267529    12.000000000000
      Gh(H)           1.485263595937    -1.320770103033    -3.732469267529     1.007825032230
      Gh(H)           1.402073595937    -1.357190103033    -1.984859267529     1.007825032230
      Gh(C)           0.971643595937     0.616099896967    -2.870389267529    12.000000000000
      Gh(H)           1.491283595937     0.980689896967    -3.755939267529     1.007825032230
      Gh(H)           1.496953595937     1.017409896967    -2.005349267529     1.007825032230
      Gh(C)          -0.498756404063     1.059909896967    -2.912009267529    12.000000000000
      Gh(H)          -0.635576404063     2.022469896967    -3.402319267529     1.007825032230
      Gh(H)          -0.894046404063     1.146659896967    -1.897819267529     1.007825032230
      Gh(C)          -1.201416404063    -0.095210103033    -3.622539267529    12.000000000000
      Gh(H)          -0.968186404063    -0.069240103033    -4.689689267529     1.007825032230
      Gh(H)          -2.284966404063    -0.075970103033    -3.514619267529     1.007825032230
      Gh(C)          -0.549966404063    -1.317300103033    -2.976579267529    12.000000000000
      Gh(H)          -0.709696404063    -2.239430103033    -3.532899267529     1.007825032230
      Gh(H)          -0.970156404063    -1.457820103033    -1.979139267529     1.007825032230
         C           -1.110206404063    -0.343750103033     2.915840732471    12.000000000000
         H           -1.443336404063    -0.107050103033     1.903250732471     1.007825032230
         H           -1.914996404063    -0.886840103033     3.408820732471     1.007825032230
         C            0.203393595937    -1.139290103033     2.868080732471    12.000000000000
         H            0.253343595937    -1.797030103033     2.001940732471     1.007825032230
         H            0.283683595937    -1.770650103033     3.752460732471     1.007825032230
         C            1.332713595937    -0.076580103033     2.868670732471    12.000000000000
         H            1.953983595937    -0.137260103033     1.976800732471     1.007825032230
         H            1.990123595937    -0.226470103033     3.724080732471     1.007825032230
         C            0.622543595937     1.285089896967     2.976540732471    12.000000000000
         H            0.442673595937     1.693579896967     1.980540732471     1.007825032230
         H            1.202923595937     2.019489896967     3.532510732471     1.007825032230
         C           -0.719506404063     0.950609896967     3.626350732471    12.000000000000
         H           -1.459176404063     1.743119896967     3.521470732471     1.007825032230
         H           -0.579476404063     0.758969896967     4.692900732471     1.007825032230

  Charge       = 0
  Multiplicity = 1
  Basis Set: AUG-CC-PVDZ
    Blend: AUG-CC-PVDZ
  Basis Set: (AUG-CC-PVDZ AUX)
    Blend: AUG-CC-PVDZ-JKFIT

    Orbital Energies [Eh]
    ---------------------

    Doubly Occupied:

       1A    -11.215872     2A    -11.215520     3A    -11.215461
       4A    -11.214835     5A    -11.214794     6A     -1.117782
       7A     -0.957866     8A     -0.956985     9A     -0.777339
      10A     -0.767728    11A     -0.649233    12A     -0.644375
      13A     -0.569064    14A     -0.567273    15A     -0.474660
      16A     -0.473689    17A     -0.462843    18A     -0.459326
      19A     -0.458504    20A     -0.447705

  @DF-RHF Final Energy:  -195.18356933318307

   => Energetics <=

    Nuclear Repulsion Energy =            188.3786762468388361
    One-Electron Energy =                -635.4027814185094485
    Two-Electron Energy =                 251.8405358384875399
    Total Energy =                       -195.1835693331830726

  Dipole Moment: [D]
     X:    -0.0117      Y:     0.0100      Z:     0.0061     Total:     0.0165

    SAPT Results
  --------------------------------------------------------------------------------------------------------
    Electrostatics                  0.00524074 [mEh]       0.00328862 [kcal/mol]       0.01375957 [kJ/mol]
      Elst10,r                      0.00829423 [mEh]       0.00520471 [kcal/mol]       0.02177650 [kJ/mol]
      Elst12,r                     -0.00305349 [mEh]      -0.00191609 [kcal/mol]      -0.00801693 [kJ/mol]

    Exchange                        0.01748468 [mEh]       0.01097180 [kcal/mol]       0.04590603 [kJ/mol]
      Exch10                        0.01346008 [mEh]       0.00844633 [kcal/mol]       0.03533944 [kJ/mol]
      Exch10(S^2)                   0.01346005 [mEh]       0.00844631 [kcal/mol]       0.03533935 [kJ/mol]
      Exch11(S^2)                  -0.00024451 [mEh]      -0.00015343 [kcal/mol]      -0.00064196 [kJ/mol]
      Exch12(S^2)                   0.00426911 [mEh]       0.00267891 [kcal/mol]       0.01120855 [kJ/mol]

    Induction                      -0.00238018 [mEh]      -0.00149358 [kcal/mol]      -0.00624915 [kJ/mol]
      Ind20,r                      -0.00238617 [mEh]      -0.00149734 [kcal/mol]      -0.00626488 [kJ/mol]
      Ind22                        -0.00070590 [mEh]      -0.00044296 [kcal/mol]      -0.00185335 [kJ/mol]
      Exch-Ind20,r                  0.00116681 [mEh]       0.00073219 [kcal/mol]       0.00306346 [kJ/mol]
      Exch-Ind22                    0.00034518 [mEh]       0.00021660 [kcal/mol]       0.00090627 [kJ/mol]
      delta HF,r (2)               -0.00080010 [mEh]      -0.00050207 [kcal/mol]      -0.00210065 [kJ/mol]

    Dispersion                     -0.82177922 [mEh]      -0.51567425 [kcal/mol]      -2.15758105 [kJ/mol]
      Disp20                       -0.82943702 [mEh]      -0.52047959 [kcal/mol]      -2.17768660 [kJ/mol]
      Disp21                        0.13198876 [mEh]       0.08282420 [kcal/mol]       0.34653644 [kJ/mol]
      Disp22 (SDQ)                  0.00087853 [mEh]       0.00055129 [kcal/mol]       0.00230659 [kJ/mol]
      Disp22 (T)                   -0.12512979 [mEh]      -0.07852013 [kcal/mol]      -0.32852821 [kJ/mol]
      Est. Disp22 (T)              -0.12802351 [mEh]      -0.08033597 [kcal/mol]      -0.33612568 [kJ/mol]
      Exch-Disp20                   0.00281402 [mEh]       0.00176582 [kcal/mol]       0.00738820 [kJ/mol]

  Total HF                          0.01973486 [mEh]       0.01238381 [kcal/mol]       0.05181387 [kJ/mol]
  Total SAPT0                      -0.80688814 [mEh]      -0.50632995 [kcal/mol]      -2.11848453 [kJ/mol]
  Total SAPT2                      -0.80627776 [mEh]      -0.50594693 [kcal/mol]      -2.11688196 [kJ/mol]
  Total SAPT2+                     -0.80143397 [mEh]      -0.50290741 [kcal/mol]      -2.10416461 [kJ/mol]

  Special recipe for scaled SAPT0 (see Manual):
    Electrostatics sSAPT0           0.00829423 [mEh]       0.00520471 [kcal/mol]       0.02177650 [kJ/mol]
    Exchange sSAPT0                 0.01346008 [mEh]       0.00844633 [kcal/mol]       0.03533944 [kJ/mol]
    Induction sSAPT0               -0.00201944 [mEh]      -0.00126722 [kcal/mol]      -0.00530205 [kJ/mol]
    Dispersion sSAPT0              -0.82662298 [mEh]      -0.51871375 [kcal/mol]      -2.17029834 [kJ/mol]
  Total sSAPT0                     -0.80688811 [mEh]      -0.50632993 [kcal/mol]      -2.11848444 [kJ/mol]
  --------------------------------------------------------------------------------------------------------

*** Psi4 exiting successfully. Buy a developer a beer!
