                               Psi4 1.4a2.dev224

  ==> Input File <==

--------------------------------------------------------------------------
#Generated by lconvert.py for sapt job

memory 20 GB

molecule  {
0 1
  C       0.956880   -0.891850    1.141950
  H       1.504570   -1.278360    0.283420
  H       1.421380   -1.314780    2.031030
  C       0.990950    0.658510    1.145500
  H       1.510590    1.023100    0.259950
  H       1.516260    1.059820    2.010540
  C      -0.479450    1.102320    1.103880
  H      -0.616270    2.064880    0.613570
  H      -0.874740    1.189070    2.118070
  C      -1.182110   -0.052800    0.393350
  H      -0.948880   -0.026830   -0.673800
  H      -2.265660   -0.033560    0.501270
  C      -0.530660   -1.274890    1.039310
  H      -0.690390   -2.197020    0.482990
  H      -0.950850   -1.415410    2.036750
--
0 1
  C      -1.070400   -0.260120    7.867910
  H      -1.403530   -0.023420    6.855330
  H      -1.875180   -0.803220    8.360900
  C       0.243210   -1.055660    7.820150
  H       0.293150   -1.713410    6.954020
  H       0.323500   -1.687020    8.704540
  C       1.372530    0.007040    7.820750
  H       1.993790   -0.053640    6.928870
  H       2.029940   -0.142840    8.676150
  C       0.662350    1.368710    7.928610
  H       0.482490    1.777200    6.932610
  H       1.242740    2.103110    8.484590
  C      -0.679700    1.034240    8.578420
  H      -1.419370    1.826750    8.473540
  H      -0.539660    0.842600    9.644970
units angstrom
no_reorient
symmetry c1
}

set {
scf_type DF
basis aug-cc-pvdz
freeze_core True
guess SAD
}
energy('sapt2+')
--------------------------------------------------------------------------

  //              Dimer HF             //
    Molecular point group: c1
  Charge       = 0
  Multiplicity = 1
  Basis Set: AUG-CC-PVDZ
    Blend: AUG-CC-PVDZ
  Basis Set: (AUG-CC-PVDZ AUX)
    Blend: AUG-CC-PVDZ-JKFIT
  @DF-RHF Final Energy:  -390.36701541123062
    Total Energy =                       -390.3670154112305681
  //            Monomer A HF           //
    Molecular point group: c1
  Multiplicity = 1
  Basis Set: AUG-CC-PVDZ
    Blend: AUG-CC-PVDZ
  Basis Set: (AUG-CC-PVDZ AUX)
    Blend: AUG-CC-PVDZ-JKFIT
  @DF-RHF Final Energy:  -195.18350870296325
    Total Energy =                       -195.1835087029632518
  //            Monomer B HF           //
    Molecular point group: c1

    Geometry (in Angstrom), charge = 0, multiplicity = 1:

       Center              X                  Y                   Z               Mass
    ------------   -----------------  -----------------  -----------------  -----------------
      Gh(C)           0.927321452122    -0.954868031126    -3.342030483251    12.000000000000
      Gh(H)           1.475011452122    -1.341378031126    -4.200560483251     1.007825032230
      Gh(H)           1.391821452122    -1.377798031126    -2.452950483251     1.007825032230
      Gh(C)           0.961391452122     0.595491968874    -3.338480483251    12.000000000000
      Gh(H)           1.481031452122     0.960081968874    -4.224030483251     1.007825032230
      Gh(H)           1.486701452122     0.996801968874    -2.473440483251     1.007825032230
      Gh(C)          -0.509008547878     1.039301968874    -3.380100483251    12.000000000000
      Gh(H)          -0.645828547878     2.001861968874    -3.870410483251     1.007825032230
      Gh(H)          -0.904298547878     1.126051968874    -2.365910483251     1.007825032230
      Gh(C)          -1.211668547878    -0.115818031126    -4.090630483251    12.000000000000
      Gh(H)          -0.978438547878    -0.089848031126    -5.157780483251     1.007825032230
      Gh(H)          -2.295218547878    -0.096578031126    -3.982710483251     1.007825032230
      Gh(C)          -0.560218547878    -1.337908031126    -3.444670483251    12.000000000000
      Gh(H)          -0.719948547878    -2.260038031126    -4.000990483251     1.007825032230
      Gh(H)          -0.980408547878    -1.478428031126    -2.447230483251     1.007825032230
         C           -1.099958547878    -0.323138031126     3.383929516749    12.000000000000
         H           -1.433088547878    -0.086438031126     2.371349516749     1.007825032230
         H           -1.904738547878    -0.866238031126     3.876919516749     1.007825032230
         C            0.213651452122    -1.118678031126     3.336169516749    12.000000000000
         H            0.263591452122    -1.776428031126     2.470039516749     1.007825032230
         H            0.293941452122    -1.750038031126     4.220559516749     1.007825032230
         C            1.342971452122    -0.055978031126     3.336769516749    12.000000000000
         H            1.964231452122    -0.116658031126     2.444889516749     1.007825032230
         H            2.000381452122    -0.205858031126     4.192169516749     1.007825032230
         C            0.632791452122     1.305691968874     3.444629516749    12.000000000000
         H            0.452931452122     1.714181968874     2.448629516749     1.007825032230
         H            1.213181452122     2.040091968874     4.000609516749     1.007825032230
         C           -0.709258547878     0.971221968874     4.094439516749    12.000000000000
         H           -1.448928547878     1.763731968874     3.989559516749     1.007825032230
         H           -0.569218547878     0.779581968874     5.160989516749     1.007825032230

  Charge       = 0
  Multiplicity = 1
  Basis Set: AUG-CC-PVDZ
    Blend: AUG-CC-PVDZ
  Basis Set: (AUG-CC-PVDZ AUX)
    Blend: AUG-CC-PVDZ-JKFIT

    Orbital Energies [Eh]
    ---------------------

    Doubly Occupied:

       1A    -11.215886     2A    -11.215533     3A    -11.215476
       4A    -11.214850     5A    -11.214808     6A     -1.117784
       7A     -0.957866     8A     -0.956987     9A     -0.777339
      10A     -0.767728    11A     -0.649229    12A     -0.644376
      13A     -0.569060    14A     -0.567275    15A     -0.474657
      16A     -0.473693    17A     -0.462839    18A     -0.459326
      19A     -0.458504    20A     -0.447706

  @DF-RHF Final Energy:  -195.18351473319771

   => Energetics <=

    Nuclear Repulsion Energy =            188.3786276958155952
    One-Electron Energy =                -635.4024396336164955
    Two-Electron Energy =                 251.8402972046032176
    Total Energy =                       -195.1835147331977112

  Dipole Moment: [D]
     X:    -0.0118      Y:     0.0102      Z:     0.0053     Total:     0.0165

    SAPT Results
  --------------------------------------------------------------------------------------------------------
    Electrostatics                  0.00656763 [mEh]       0.00412125 [kcal/mol]       0.01724332 [kJ/mol]
      Elst10,r                      0.00729019 [mEh]       0.00457467 [kcal/mol]       0.01914040 [kJ/mol]
      Elst12,r                     -0.00072256 [mEh]      -0.00045341 [kcal/mol]      -0.00189708 [kJ/mol]

    Exchange                        0.00062779 [mEh]       0.00039395 [kcal/mol]       0.00164827 [kJ/mol]
      Exch10                        0.00050494 [mEh]       0.00031685 [kcal/mol]       0.00132571 [kJ/mol]
      Exch10(S^2)                   0.00050494 [mEh]       0.00031685 [kcal/mol]       0.00132571 [kJ/mol]
      Exch11(S^2)                  -0.00002528 [mEh]      -0.00001586 [kcal/mol]      -0.00006636 [kJ/mol]
      Exch12(S^2)                   0.00014813 [mEh]       0.00009296 [kcal/mol]       0.00038892 [kJ/mol]

    Induction                       0.00008144 [mEh]       0.00005110 [kcal/mol]       0.00021381 [kJ/mol]
      Ind20,r                      -0.00047976 [mEh]      -0.00030105 [kcal/mol]      -0.00125960 [kJ/mol]
      Ind22                        -0.00018369 [mEh]      -0.00011526 [kcal/mol]      -0.00048227 [kJ/mol]
      Exch-Ind20,r                  0.00009226 [mEh]       0.00005789 [kcal/mol]       0.00024222 [kJ/mol]
      Exch-Ind22                    0.00003532 [mEh]       0.00002216 [kcal/mol]       0.00009274 [kJ/mol]
      delta HF,r (2)                0.00061730 [mEh]       0.00038736 [kcal/mol]       0.00162073 [kJ/mol]

    Dispersion                     -0.32363049 [mEh]      -0.20308120 [kcal/mol]      -0.84969172 [kJ/mol]
      Disp20                       -0.33371659 [mEh]      -0.20941032 [kcal/mol]      -0.87617280 [kJ/mol]
      Disp21                        0.06123119 [mEh]       0.03842315 [kcal/mol]       0.16076246 [kJ/mol]
      Disp22 (SDQ)                  0.00070051 [mEh]       0.00043958 [kcal/mol]       0.00183918 [kJ/mol]
      Disp22 (T)                   -0.05145325 [mEh]      -0.03228740 [kcal/mol]      -0.13509049 [kJ/mol]
      Est. Disp22 (T)              -0.05198844 [mEh]      -0.03262324 [kcal/mol]      -0.13649564 [kJ/mol]
      Exch-Disp20                   0.00014285 [mEh]       0.00008964 [kcal/mol]       0.00037506 [kJ/mol]

  Total HF                          0.00802493 [mEh]       0.00503572 [kcal/mol]       0.02106945 [kJ/mol]
  Total SAPT0                      -0.32554881 [mEh]      -0.20428496 [kcal/mol]      -0.85472828 [kJ/mol]
  Total SAPT2                      -0.32629687 [mEh]      -0.20475438 [kcal/mol]      -0.85669233 [kJ/mol]
  Total SAPT2+                     -0.31635362 [mEh]      -0.19851489 [kcal/mol]      -0.83058632 [kJ/mol]

  Special recipe for scaled SAPT0 (see Manual):
    Electrostatics sSAPT0           0.00729019 [mEh]       0.00457467 [kcal/mol]       0.01914040 [kJ/mol]
    Exchange sSAPT0                 0.00050494 [mEh]       0.00031685 [kcal/mol]       0.00132571 [kJ/mol]
    Induction sSAPT0                0.00022980 [mEh]       0.00014420 [kcal/mol]       0.00060334 [kJ/mol]
    Dispersion sSAPT0              -0.33357374 [mEh]      -0.20932068 [kcal/mol]      -0.87579773 [kJ/mol]
  Total sSAPT0                     -0.32554881 [mEh]      -0.20428496 [kcal/mol]      -0.85472828 [kJ/mol]
  --------------------------------------------------------------------------------------------------------

*** Psi4 exiting successfully. Buy a developer a beer!
