                               Psi4 1.4a2.dev224

  ==> Input File <==

--------------------------------------------------------------------------
#Generated by lconvert.py for sapt job

memory 20 GB

molecule  {
0 1
  C       0.956880   -0.891850    1.141950
  H       1.504570   -1.278360    0.283420
  H       1.421380   -1.314780    2.031030
  C       0.990950    0.658510    1.145500
  H       1.510590    1.023100    0.259950
  H       1.516260    1.059820    2.010540
  C      -0.479450    1.102320    1.103880
  H      -0.616270    2.064880    0.613570
  H      -0.874740    1.189070    2.118070
  C      -1.182110   -0.052800    0.393350
  H      -0.948880   -0.026830   -0.673800
  H      -2.265660   -0.033560    0.501270
  C      -0.530660   -1.274890    1.039310
  H      -0.690390   -2.197020    0.482990
  H      -0.950850   -1.415410    2.036750
--
0 1
  C      -1.111410   -0.342550    5.995550
  H      -1.444540   -0.105850    4.982960
  H      -1.916190   -0.885650    6.488530
  C       0.202200   -1.138100    5.947780
  H       0.252150   -1.795840    5.081650
  H       0.282490   -1.769460    6.832170
  C       1.331520   -0.075390    5.948380
  H       1.952780   -0.136070    5.056510
  H       1.988930   -0.225270    6.803790
  C       0.621340    1.286280    6.056250
  H       0.441480    1.694770    5.060250
  H       1.201730    2.020680    6.612220
  C      -0.720710    0.951810    6.706060
  H      -1.460380    1.744320    6.601180
  H      -0.580670    0.760160    7.772610
units angstrom
no_reorient
symmetry c1
}

set {
scf_type DF
basis aug-cc-pvdz
freeze_core True
guess SAD
}
energy('sapt2+')
--------------------------------------------------------------------------

  //              Dimer HF             //
    Molecular point group: c1
  Charge       = 0
  Multiplicity = 1
  Basis Set: AUG-CC-PVDZ
    Blend: AUG-CC-PVDZ
  Basis Set: (AUG-CC-PVDZ AUX)
    Blend: AUG-CC-PVDZ-JKFIT
  @DF-RHF Final Energy:  -390.36718101732083
    Total Energy =                       -390.3671810173208314
  //            Monomer A HF           //
    Molecular point group: c1
  Multiplicity = 1
  Basis Set: AUG-CC-PVDZ
    Blend: AUG-CC-PVDZ
  Basis Set: (AUG-CC-PVDZ AUX)
    Blend: AUG-CC-PVDZ-JKFIT
  @DF-RHF Final Energy:  -195.18369224437953
    Total Energy =                       -195.1836922443795288
  //            Monomer B HF           //
    Molecular point group: c1

    Geometry (in Angstrom), charge = 0, multiplicity = 1:

       Center              X                  Y                   Z               Mass
    ------------   -----------------  -----------------  -----------------  -----------------
      Gh(C)           0.947826380215    -0.913652031126    -2.405848411344    12.000000000000
      Gh(H)           1.495516380215    -1.300162031126    -3.264378411344     1.007825032230
      Gh(H)           1.412326380215    -1.336582031126    -1.516768411344     1.007825032230
      Gh(C)           0.981896380215     0.636707968874    -2.402298411344    12.000000000000
      Gh(H)           1.501536380215     1.001297968874    -3.287848411344     1.007825032230
      Gh(H)           1.507206380215     1.038017968874    -1.537258411344     1.007825032230
      Gh(C)          -0.488503619785     1.080517968874    -2.443918411344    12.000000000000
      Gh(H)          -0.625323619785     2.043077968874    -2.934228411344     1.007825032230
      Gh(H)          -0.883793619785     1.167267968874    -1.429728411344     1.007825032230
      Gh(C)          -1.191163619785    -0.074602031126    -3.154448411344    12.000000000000
      Gh(H)          -0.957933619785    -0.048632031126    -4.221598411344     1.007825032230
      Gh(H)          -2.274713619785    -0.055362031126    -3.046528411344     1.007825032230
      Gh(C)          -0.539713619785    -1.296692031126    -2.508488411344    12.000000000000
      Gh(H)          -0.699443619785    -2.218822031126    -3.064808411344     1.007825032230
      Gh(H)          -0.959903619785    -1.437212031126    -1.511048411344     1.007825032230
         C           -1.120463619785    -0.364352031126     2.447751588656    12.000000000000
         H           -1.453593619785    -0.127652031126     1.435161588656     1.007825032230
         H           -1.925243619785    -0.907452031126     2.940731588656     1.007825032230
         C            0.193146380215    -1.159902031126     2.399981588656    12.000000000000
         H            0.243096380215    -1.817642031126     1.533851588656     1.007825032230
         H            0.273436380215    -1.791262031126     3.284371588656     1.007825032230
         C            1.322466380215    -0.097192031126     2.400581588656    12.000000000000
         H            1.943726380215    -0.157872031126     1.508711588656     1.007825032230
         H            1.979876380215    -0.247072031126     3.255991588656     1.007825032230
         C            0.612286380215     1.264477968874     2.508451588656    12.000000000000
         H            0.432426380215     1.672967968874     1.512451588656     1.007825032230
         H            1.192676380215     1.998877968874     3.064421588656     1.007825032230
         C           -0.729763619785     0.930007968874     3.158261588656    12.000000000000
         H           -1.469433619785     1.722517968874     3.053381588656     1.007825032230
         H           -0.589723619785     0.738357968874     4.224811588656     1.007825032230

  Charge       = 0
  Multiplicity = 1
  Basis Set: AUG-CC-PVDZ
    Blend: AUG-CC-PVDZ
  Basis Set: (AUG-CC-PVDZ AUX)
    Blend: AUG-CC-PVDZ-JKFIT

    Orbital Energies [Eh]
    ---------------------

    Doubly Occupied:

       1A    -11.215841     2A    -11.215489     3A    -11.215427
       4A    -11.214799     5A    -11.214766     6A     -1.117770
       7A     -0.957852     8A     -0.956978     9A     -0.777334
      10A     -0.767723    11A     -0.649240    12A     -0.644367
      13A     -0.569076    14A     -0.567263    15A     -0.474647
      16A     -0.473683    17A     -0.462839    18A     -0.459322
      19A     -0.458502    20A     -0.447701

  @DF-RHF Final Energy:  -195.18369827908981

   => Energetics <=

    Nuclear Repulsion Energy =            188.3784059783559428
    One-Electron Energy =                -635.4029673932302558
    Two-Electron Energy =                 251.8408631357845024
    Total Energy =                       -195.1836982790898105

  Dipole Moment: [D]
     X:    -0.0114      Y:     0.0098      Z:     0.0064     Total:     0.0163

    SAPT Results
  --------------------------------------------------------------------------------------------------------
    Electrostatics                 -0.11836009 [mEh]      -0.07427208 [kcal/mol]      -0.31075438 [kJ/mol]
      Elst10,r                     -0.08118272 [mEh]      -0.05094292 [kcal/mol]      -0.21314519 [kJ/mol]
      Elst12,r                     -0.03717738 [mEh]      -0.02332916 [kcal/mol]      -0.09760919 [kJ/mol]

    Exchange                        0.39705689 [mEh]       0.24915696 [kcal/mol]       1.04247273 [kJ/mol]
      Exch10                        0.32304290 [mEh]       0.20271248 [kcal/mol]       0.84814902 [kJ/mol]
      Exch10(S^2)                   0.32302056 [mEh]       0.20269846 [kcal/mol]       0.84809036 [kJ/mol]
      Exch11(S^2)                   0.00094156 [mEh]       0.00059084 [kcal/mol]       0.00247207 [kJ/mol]
      Exch12(S^2)                   0.07307243 [mEh]       0.04585364 [kcal/mol]       0.19185165 [kJ/mol]

    Induction                      -0.03529173 [mEh]      -0.02214589 [kcal/mol]      -0.09265842 [kJ/mol]
      Ind20,r                      -0.03429805 [mEh]      -0.02152235 [kcal/mol]      -0.09004951 [kJ/mol]
      Ind22                        -0.01056014 [mEh]      -0.00662659 [kcal/mol]      -0.02772563 [kJ/mol]
      Exch-Ind20,r                  0.02475677 [mEh]       0.01553511 [kcal/mol]       0.06499890 [kJ/mol]
      Exch-Ind22                    0.00762244 [mEh]       0.00478315 [kcal/mol]       0.02001272 [kJ/mol]
      delta HF,r (2)               -0.02281276 [mEh]      -0.01431522 [kcal/mol]      -0.05989489 [kJ/mol]

    Dispersion                     -2.51320651 [mEh]      -1.57706089 [kcal/mol]      -6.59842277 [kJ/mol]
      Disp20                       -2.49100337 [mEh]      -1.56312821 [kcal/mol]      -6.54012845 [kJ/mol]
      Disp21                        0.30549326 [mEh]       0.19169992 [kcal/mol]       0.80207245 [kJ/mol]
      Disp22 (SDQ)                  0.00081519 [mEh]       0.00051154 [kcal/mol]       0.00214029 [kJ/mol]
      Disp22 (T)                   -0.36311167 [mEh]      -0.22785602 [kcal/mol]      -0.95334957 [kJ/mol]
      Est. Disp22 (T)              -0.37838648 [mEh]      -0.23744110 [kcal/mol]      -0.99345357 [kJ/mol]
      Exch-Disp20                   0.04987489 [mEh]       0.03129696 [kcal/mol]       0.13094650 [kJ/mol]

  Total HF                          0.20950615 [mEh]       0.13146709 [kcal/mol]       0.55005832 [kJ/mol]
  Total SAPT0                      -2.23162233 [mEh]      -1.40036416 [kcal/mol]      -5.85912363 [kJ/mol]
  Total SAPT2                      -2.19772341 [mEh]      -1.37909226 [kcal/mol]      -5.77012202 [kJ/mol]
  Total SAPT2+                     -2.26980143 [mEh]      -1.42432190 [kcal/mol]      -5.95936284 [kJ/mol]

  Special recipe for scaled SAPT0 (see Manual):
    Electrostatics sSAPT0          -0.08118272 [mEh]      -0.05094292 [kcal/mol]      -0.21314519 [kJ/mol]
    Exchange sSAPT0                 0.32304290 [mEh]       0.20271248 [kcal/mol]       0.84814902 [kJ/mol]
    Induction sSAPT0               -0.03234890 [mEh]      -0.02029924 [kcal/mol]      -0.08493202 [kJ/mol]
    Dispersion sSAPT0              -2.44111813 [mEh]      -1.53182476 [kcal/mol]      -6.40915478 [kJ/mol]
  Total sSAPT0                     -2.23160685 [mEh]      -1.40035444 [kcal/mol]      -5.85908297 [kJ/mol]
  --------------------------------------------------------------------------------------------------------

*** Psi4 exiting successfully. Buy a developer a beer!
