                               Psi4 1.4a2.dev224

  ==> Input File <==

--------------------------------------------------------------------------
#Generated by lconvert.py for sapt job

memory 20 GB

molecule  {
0 1
  C       0.765550    0.868240    0.820990
  H       1.437480    1.680010    1.065100
  C       1.237650   -0.442840    0.793890
  H       2.275760   -0.648540    1.017710
  C       0.372240   -1.488540    0.477270
  H       0.738190   -2.506080    0.457060
  C      -0.964930   -1.222970    0.186880
  H      -1.636460   -2.034560   -0.057770
  C      -1.437070    0.088410    0.213280
  H      -2.474680    0.294300   -0.011470
  C      -0.571910    1.134020    0.530810
  H      -0.937700    2.151710    0.551080
--
0 1
  C      -0.685050   -0.588100    5.792510
  H      -0.791300   -0.413150    4.720200
  H      -1.336680   -1.417370    6.065660
  C       0.784490   -0.845170    6.136640
  H       1.279730   -1.482750    5.406060
  H       0.847770   -1.345380    7.104110
  C       1.424630    0.560230    6.227590
  H       2.074900    0.752900    5.375740
  H       2.037500    0.649400    7.123320
  C       0.245580    1.559410    6.254470
  H       0.128430    2.018380    5.272180
  H       0.391180    2.360910    6.976870
  C      -0.988190    0.702310    6.550120
  H      -1.919180    1.178050    6.244200
  H      -1.053610    0.492990    7.620650
units angstrom
no_reorient
symmetry c1
}

set {
scf_type DF
basis aug-cc-pvdz
freeze_core True
guess SAD
}
energy('sapt2+')
--------------------------------------------------------------------------

  //              Dimer HF             //
    Molecular point group: c1
  Charge       = 0
  Multiplicity = 1
  Basis Set: AUG-CC-PVDZ
    Blend: AUG-CC-PVDZ
  Basis Set: (AUG-CC-PVDZ AUX)
    Blend: AUG-CC-PVDZ-JKFIT
  @DF-RHF Final Energy:  -425.91187838078235
    Total Energy =                       -425.9118783807823547
  //            Monomer A HF           //
    Molecular point group: c1
  Multiplicity = 1
  Basis Set: AUG-CC-PVDZ
    Blend: AUG-CC-PVDZ
  Basis Set: (AUG-CC-PVDZ AUX)
    Blend: AUG-CC-PVDZ-JKFIT
  @DF-RHF Final Energy:  -230.72822878337058
    Total Energy =                       -230.7282287833705823
  //            Monomer B HF           //
    Molecular point group: c1

    Geometry (in Angstrom), charge = 0, multiplicity = 1:

       Center              X                  Y                   Z               Mass
    ------------   -----------------  -----------------  -----------------  -----------------
      Gh(C)           0.743504359352     0.830134642487    -2.373957133726    12.000000000000
      Gh(H)           1.415434359352     1.641904642487    -2.129847133726     1.007825032230
      Gh(C)           1.215604359352    -0.480945357513    -2.401057133726    12.000000000000
      Gh(H)           2.253714359352    -0.686645357513    -2.177237133726     1.007825032230
      Gh(C)           0.350194359352    -1.526645357513    -2.717677133726    12.000000000000
      Gh(H)           0.716144359352    -2.544185357513    -2.737887133726     1.007825032230
      Gh(C)          -0.986975640648    -1.261075357513    -3.008067133726    12.000000000000
      Gh(H)          -1.658505640648    -2.072665357513    -3.252717133726     1.007825032230
      Gh(C)          -1.459115640648     0.050304642487    -2.981667133726    12.000000000000
      Gh(H)          -2.496725640648     0.256194642487    -3.206417133726     1.007825032230
      Gh(C)          -0.593955640648     1.095914642487    -2.664137133726    12.000000000000
      Gh(H)          -0.959745640648     2.113604642487    -2.643867133726     1.007825032230
         C           -0.707095640648    -0.626205357513     2.597562866274    12.000000000000
         H           -0.813345640648    -0.451255357513     1.525252866274     1.007825032230
         H           -1.358725640648    -1.455475357513     2.870712866274     1.007825032230
         C            0.762444359352    -0.883275357513     2.941692866274    12.000000000000
         H            1.257684359352    -1.520855357513     2.211112866274     1.007825032230
         H            0.825724359352    -1.383485357513     3.909162866274     1.007825032230
         C            1.402584359352     0.522124642487     3.032642866274    12.000000000000
         H            2.052854359352     0.714794642487     2.180792866274     1.007825032230
         H            2.015454359352     0.611294642487     3.928372866274     1.007825032230
         C            0.223534359352     1.521304642487     3.059522866274    12.000000000000
         H            0.106384359352     1.980274642487     2.077232866274     1.007825032230
         H            0.369134359352     2.322804642487     3.781922866274     1.007825032230
         C           -1.010235640648     0.664204642487     3.355172866274    12.000000000000
         H           -1.941225640648     1.139944642487     3.049252866274     1.007825032230
         H           -1.075655640648     0.454884642487     4.425702866274     1.007825032230

  Charge       = 0
  Multiplicity = 1
  Basis Set: AUG-CC-PVDZ
    Blend: AUG-CC-PVDZ
  Basis Set: (AUG-CC-PVDZ AUX)
    Blend: AUG-CC-PVDZ-JKFIT

    Orbital Energies [Eh]
    ---------------------

    Doubly Occupied:

       1A    -11.215826     2A    -11.215452     3A    -11.215421
       4A    -11.214776     5A    -11.214757     6A     -1.117915
       7A     -0.957751     8A     -0.957044     9A     -0.777253
      10A     -0.767287    11A     -0.649568    12A     -0.644025
      13A     -0.569318    14A     -0.567900    15A     -0.474233
      16A     -0.473217    17A     -0.462708    18A     -0.459911
      19A     -0.458184    20A     -0.447828

  @DF-RHF Final Energy:  -195.18353475970162

   => Energetics <=

    Nuclear Repulsion Energy =            188.4043834212452566
    One-Electron Energy =                -635.4550913955264377
    Two-Electron Energy =                 251.8671732145795659
    Total Energy =                       -195.1835347597016153

  Dipole Moment: [D]
     X:    -0.0168      Y:    -0.0034      Z:    -0.0023     Total:     0.0173

    SAPT Results
  --------------------------------------------------------------------------------------------------------
    Electrostatics                 -0.11275166 [mEh]      -0.07075273 [kcal/mol]      -0.29602944 [kJ/mol]
      Elst10,r                     -0.12024041 [mEh]      -0.07545200 [kcal/mol]      -0.31569115 [kJ/mol]
      Elst12,r                      0.00748875 [mEh]       0.00469926 [kcal/mol]       0.01966172 [kJ/mol]

    Exchange                        0.05319845 [mEh]       0.03338253 [kcal/mol]       0.13967251 [kJ/mol]
      Exch10                        0.04444140 [mEh]       0.02788740 [kcal/mol]       0.11668087 [kJ/mol]
      Exch10(S^2)                   0.04444053 [mEh]       0.02788685 [kcal/mol]       0.11667859 [kJ/mol]
      Exch11(S^2)                   0.00020248 [mEh]       0.00012706 [kcal/mol]       0.00053162 [kJ/mol]
      Exch12(S^2)                   0.00855457 [mEh]       0.00536807 [kcal/mol]       0.02246002 [kJ/mol]

    Induction                      -0.03714179 [mEh]      -0.02330682 [kcal/mol]      -0.09751575 [kJ/mol]
      Ind20,r                      -0.04311333 [mEh]      -0.02705403 [kcal/mol]      -0.11319405 [kJ/mol]
      Ind22                         0.00240429 [mEh]       0.00150871 [kcal/mol]       0.00631245 [kJ/mol]
      Exch-Ind20,r                  0.00909826 [mEh]       0.00570924 [kcal/mol]       0.02388747 [kJ/mol]
      Exch-Ind22                   -0.00050738 [mEh]      -0.00031839 [kcal/mol]      -0.00133212 [kJ/mol]
      delta HF,r (2)               -0.00502362 [mEh]      -0.00315237 [kcal/mol]      -0.01318951 [kJ/mol]

    Dispersion                     -1.15944643 [mEh]      -0.72756362 [kcal/mol]      -3.04412617 [kJ/mol]
      Disp20                       -1.28128132 [mEh]      -0.80401617 [kcal/mol]      -3.36400365 [kJ/mol]
      Disp21                        0.33057351 [mEh]       0.20743801 [kcal/mol]       0.86792064 [kJ/mol]
      Disp22 (SDQ)                  0.01666861 [mEh]       0.01045971 [kcal/mol]       0.04376343 [kJ/mol]
      Disp22 (T)                   -0.23059610 [mEh]      -0.14470124 [kcal/mol]      -0.60542999 [kJ/mol]
      Est. Disp22 (T)              -0.23789742 [mEh]      -0.14928288 [kcal/mol]      -0.62459959 [kJ/mol]
      Exch-Disp20                   0.01249019 [mEh]       0.00783771 [kcal/mol]       0.03279299 [kJ/mol]

  Total HF                         -0.11483771 [mEh]      -0.07206175 [kcal/mol]      -0.30150637 [kJ/mol]
  Total SAPT0                      -1.38362884 [mEh]      -0.86824021 [kcal/mol]      -3.63271703 [kJ/mol]
  Total SAPT2                      -1.36548613 [mEh]      -0.85685548 [kcal/mol]      -3.58508334 [kJ/mol]
  Total SAPT2+                     -1.25614142 [mEh]      -0.78824064 [kcal/mol]      -3.29799886 [kJ/mol]

  Special recipe for scaled SAPT0 (see Manual):
    Electrostatics sSAPT0          -0.12024041 [mEh]      -0.07545200 [kcal/mol]      -0.31569115 [kJ/mol]
    Exchange sSAPT0                 0.04444140 [mEh]       0.02788740 [kcal/mol]       0.11668087 [kJ/mol]
    Induction sSAPT0               -0.03903816 [mEh]      -0.02449682 [kcal/mol]      -0.10249468 [kJ/mol]
    Dispersion sSAPT0              -1.26879040 [mEh]      -0.79617800 [kcal/mol]      -3.33120874 [kJ/mol]
  Total sSAPT0                     -1.38362758 [mEh]      -0.86823941 [kcal/mol]      -3.63271371 [kJ/mol]
  --------------------------------------------------------------------------------------------------------

*** Psi4 exiting successfully. Buy a developer a beer!
