                               Psi4 1.4a2.dev224

  ==> Input File <==

--------------------------------------------------------------------------
#Generated by lconvert.py for sapt job

memory 20 GB

molecule  {
0 1
  C       0.765550    0.868240    0.820990
  H       1.437480    1.680010    1.065100
  C       1.237650   -0.442840    0.793890
  H       2.275760   -0.648540    1.017710
  C       0.372240   -1.488540    0.477270
  H       0.738190   -2.506080    0.457060
  C      -0.964930   -1.222970    0.186880
  H      -1.636460   -2.034560   -0.057770
  C      -1.437070    0.088410    0.213280
  H      -2.474680    0.294300   -0.011470
  C      -0.571910    1.134020    0.530810
  H      -0.937700    2.151710    0.551080
--
0 1
  C      -0.724040   -0.657060    4.930860
  H      -0.830290   -0.482110    3.858550
  H      -1.375670   -1.486330    5.204010
  C       0.745500   -0.914130    5.274990
  H       1.240730   -1.551710    4.544400
  H       0.808780   -1.414340    6.242450
  C       1.385640    0.491270    5.365940
  H       2.035910    0.683940    4.514080
  H       1.998510    0.580440    6.261660
  C       0.206590    1.490450    5.392810
  H       0.089440    1.949420    4.410520
  H       0.352190    2.291950    6.115210
  C      -1.027180    0.633350    5.688460
  H      -1.958170    1.109090    5.382550
  H      -1.092600    0.424030    6.758990
units angstrom
no_reorient
symmetry c1
}

set {
scf_type DF
basis aug-cc-pvdz
freeze_core True
guess SAD
}
energy('sapt2+')
--------------------------------------------------------------------------

  //              Dimer HF             //
    Molecular point group: c1
  Charge       = 0
  Multiplicity = 1
  Basis Set: AUG-CC-PVDZ
    Blend: AUG-CC-PVDZ
  Basis Set: (AUG-CC-PVDZ AUX)
    Blend: AUG-CC-PVDZ-JKFIT
  @DF-RHF Final Energy:  -425.91207976038885
    Total Energy =                       -425.9120797603889059
  //            Monomer A HF           //
    Molecular point group: c1
  Multiplicity = 1
  Basis Set: AUG-CC-PVDZ
    Blend: AUG-CC-PVDZ
  Basis Set: (AUG-CC-PVDZ AUX)
    Blend: AUG-CC-PVDZ-JKFIT
  @DF-RHF Final Energy:  -230.72854841279965
    Total Energy =                       -230.7285484127996256
  //            Monomer B HF           //
    Molecular point group: c1

    Geometry (in Angstrom), charge = 0, multiplicity = 1:

       Center              X                  Y                   Z               Mass
    ------------   -----------------  -----------------  -----------------  -----------------
      Gh(C)           0.761950653763     0.862759719958    -1.966307154332    12.000000000000
      Gh(H)           1.433880653763     1.674529719958    -1.722197154332     1.007825032230
      Gh(C)           1.234050653763    -0.448320280042    -1.993407154332    12.000000000000
      Gh(H)           2.272160653763    -0.654020280042    -1.769587154332     1.007825032230
      Gh(C)           0.368640653763    -1.494020280042    -2.310027154332    12.000000000000
      Gh(H)           0.734590653763    -2.511560280042    -2.330237154332     1.007825032230
      Gh(C)          -0.968529346237    -1.228450280042    -2.600417154332    12.000000000000
      Gh(H)          -1.640059346237    -2.040040280042    -2.845067154332     1.007825032230
      Gh(C)          -1.440669346237     0.082929719958    -2.574017154332    12.000000000000
      Gh(H)          -2.478279346237     0.288819719958    -2.798767154332     1.007825032230
      Gh(C)          -0.575509346237     1.128539719958    -2.256487154332    12.000000000000
      Gh(H)          -0.941299346237     2.146229719958    -2.236217154332     1.007825032230
         C           -0.727639346237    -0.662540280042     2.143562845668    12.000000000000
         H           -0.833889346237    -0.487590280042     1.071252845668     1.007825032230
         H           -1.379269346237    -1.491810280042     2.416712845668     1.007825032230
         C            0.741900653763    -0.919610280042     2.487692845668    12.000000000000
         H            1.237130653763    -1.557190280042     1.757102845668     1.007825032230
         H            0.805180653763    -1.419820280042     3.455152845668     1.007825032230
         C            1.382040653763     0.485789719958     2.578642845668    12.000000000000
         H            2.032310653763     0.678459719958     1.726782845668     1.007825032230
         H            1.994910653763     0.574959719958     3.474362845668     1.007825032230
         C            0.202990653763     1.484969719958     2.605512845668    12.000000000000
         H            0.085840653763     1.943939719958     1.623222845668     1.007825032230
         H            0.348590653763     2.286469719958     3.327912845668     1.007825032230
         C           -1.030779346237     0.627869719958     2.901162845668    12.000000000000
         H           -1.961769346237     1.103609719958     2.595252845668     1.007825032230
         H           -1.096199346237     0.418549719958     3.971692845668     1.007825032230

  Charge       = 0
  Multiplicity = 1
  Basis Set: AUG-CC-PVDZ
    Blend: AUG-CC-PVDZ
  Basis Set: (AUG-CC-PVDZ AUX)
    Blend: AUG-CC-PVDZ-JKFIT

    Orbital Energies [Eh]
    ---------------------

    Doubly Occupied:

       1A    -11.215812     2A    -11.215438     3A    -11.215408
       4A    -11.214762     5A    -11.214743     6A     -1.117909
       7A     -0.957746     8A     -0.957039     9A     -0.777250
      10A     -0.767285    11A     -0.649568    12A     -0.644026
      13A     -0.569318    14A     -0.567899    15A     -0.474228
      16A     -0.473213    17A     -0.462705    18A     -0.459907
      19A     -0.458182    20A     -0.447826

  @DF-RHF Final Energy:  -195.18361385022567

   => Energetics <=

    Nuclear Repulsion Energy =            188.4045079995886169
    One-Electron Energy =                -635.4557184748299505
    Two-Electron Energy =                 251.8675966250156364
    Total Energy =                       -195.1836138502256688

  Dipole Moment: [D]
     X:    -0.0168      Y:    -0.0037      Z:    -0.0021     Total:     0.0174

    SAPT Results
  --------------------------------------------------------------------------------------------------------
    Electrostatics                 -0.44910410 [mEh]      -0.28181708 [kcal/mol]      -1.17912265 [kJ/mol]
      Elst10,r                     -0.42524300 [mEh]      -0.26684401 [kcal/mol]      -1.11647534 [kJ/mol]
      Elst12,r                     -0.02386110 [mEh]      -0.01497307 [kcal/mol]      -0.06264731 [kJ/mol]

    Exchange                        0.75449857 [mEh]       0.47345500 [kcal/mol]       1.98093571 [kJ/mol]
      Exch10                        0.65682035 [mEh]       0.41216100 [kcal/mol]       1.72448160 [kJ/mol]
      Exch10(S^2)                   0.65669202 [mEh]       0.41208046 [kcal/mol]       1.72414466 [kJ/mol]
      Exch11(S^2)                   0.01225267 [mEh]       0.00768867 [kcal/mol]       0.03216938 [kJ/mol]
      Exch12(S^2)                   0.08542554 [mEh]       0.05360534 [kcal/mol]       0.22428473 [kJ/mol]

    Induction                      -0.15327753 [mEh]      -0.09618310 [kcal/mol]      -0.40243011 [kJ/mol]
      Ind20,r                      -0.21478957 [mEh]      -0.13478249 [kcal/mol]      -0.56392993 [kJ/mol]
      Ind22                        -0.00948878 [mEh]      -0.00595430 [kcal/mol]      -0.02491279 [kJ/mol]
      Exch-Ind20,r                  0.11965404 [mEh]       0.07508404 [kcal/mol]       0.31415164 [kJ/mol]
      Exch-Ind22                    0.00528597 [mEh]       0.00331700 [kcal/mol]       0.01387831 [kJ/mol]
      delta HF,r (2)               -0.05393919 [mEh]      -0.03384735 [kcal/mol]      -0.14161733 [kJ/mol]

    Dispersion                     -3.31298790 [mEh]      -2.07893129 [kcal/mol]      -8.69824853 [kJ/mol]
      Disp20                       -3.68415466 [mEh]      -2.31184195 [kcal/mol]      -9.67274672 [kJ/mol]
      Disp21                        0.84210976 [mEh]       0.52843185 [kcal/mol]       2.21095887 [kJ/mol]
      Disp22 (SDQ)                  0.06223129 [mEh]       0.03905073 [kcal/mol]       0.16338823 [kJ/mol]
      Disp22 (T)                   -0.63901069 [mEh]      -0.40098526 [kcal/mol]      -1.67772233 [kJ/mol]
      Est. Disp22 (T)              -0.67199996 [mEh]      -0.42168634 [kcal/mol]      -1.76433565 [kJ/mol]
      Exch-Disp20                   0.13882567 [mEh]       0.08711442 [kcal/mol]       0.36448674 [kJ/mol]

  Total HF                          0.08250264 [mEh]       0.05177119 [kcal/mol]       0.21661064 [kJ/mol]
  Total SAPT0                      -3.46282635 [mEh]      -2.17295634 [kcal/mol]      -9.09164933 [kJ/mol]
  Total SAPT2                      -3.39321205 [mEh]      -2.12927271 [kcal/mol]      -8.90887702 [kJ/mol]
  Total SAPT2+                     -3.16087096 [mEh]      -1.98347648 [kcal/mol]      -8.29886557 [kJ/mol]

  Special recipe for scaled SAPT0 (see Manual):
    Electrostatics sSAPT0          -0.42524300 [mEh]      -0.26684401 [kcal/mol]      -1.11647534 [kJ/mol]
    Exchange sSAPT0                 0.65682035 [mEh]       0.41216100 [kcal/mol]       1.72448160 [kJ/mol]
    Induction sSAPT0               -0.14900456 [mEh]      -0.09350177 [kcal/mol]      -0.39121141 [kJ/mol]
    Dispersion sSAPT0              -3.54524758 [mEh]      -2.22467644 [kcal/mol]      -9.30804624 [kJ/mol]
  Total sSAPT0                     -3.46267478 [mEh]      -2.17286123 [kcal/mol]      -9.09125138 [kJ/mol]
  --------------------------------------------------------------------------------------------------------

*** Psi4 exiting successfully. Buy a developer a beer!
