                               Psi4 1.4a2.dev224

  ==> Input File <==

--------------------------------------------------------------------------
#Generated by lconvert.py for sapt job

memory 20 GB

molecule  {
0 1
  C       0.765550    0.868240    0.820990
  H       1.437480    1.680010    1.065100
  C       1.237650   -0.442840    0.793890
  H       2.275760   -0.648540    1.017710
  C       0.372240   -1.488540    0.477270
  H       0.738190   -2.506080    0.457060
  C      -0.964930   -1.222970    0.186880
  H      -1.636460   -2.034560   -0.057770
  C      -1.437070    0.088410    0.213280
  H      -2.474680    0.294300   -0.011470
  C      -0.571910    1.134020    0.530810
  H      -0.937700    2.151710    0.551080
--
0 1
  C      -0.646060   -0.519140    6.654170
  H      -0.752310   -0.344190    5.581860
  H      -1.297690   -1.348410    6.927320
  C       0.823490   -0.776200    6.998300
  H       1.318720   -1.413790    6.267710
  H       0.886760   -1.276420    7.965770
  C       1.463620    0.629190    7.089250
  H       2.113890    0.821860    6.237400
  H       2.076490    0.718360    7.984980
  C       0.284580    1.628370    7.116120
  H       0.167420    2.087340    6.133840
  H       0.430170    2.429880    7.838520
  C      -0.949200    0.771280    7.411770
  H      -1.880180    1.247010    7.105860
  H      -1.014620    0.561950    8.482310
units angstrom
no_reorient
symmetry c1
}

set {
scf_type DF
basis aug-cc-pvdz
freeze_core True
guess SAD
}
energy('sapt2+')
--------------------------------------------------------------------------

  //              Dimer HF             //
    Molecular point group: c1
  Charge       = 0
  Multiplicity = 1
  Basis Set: AUG-CC-PVDZ
    Blend: AUG-CC-PVDZ
  Basis Set: (AUG-CC-PVDZ AUX)
    Blend: AUG-CC-PVDZ-JKFIT
  @DF-RHF Final Energy:  -425.91161570217685
    Total Energy =                       -425.9116157021768458
  //            Monomer A HF           //
    Molecular point group: c1
  Multiplicity = 1
  Basis Set: AUG-CC-PVDZ
    Blend: AUG-CC-PVDZ
  Basis Set: (AUG-CC-PVDZ AUX)
    Blend: AUG-CC-PVDZ-JKFIT
  @DF-RHF Final Energy:  -230.72805819631733
    Total Energy =                       -230.7280581963173631
  //            Monomer B HF           //
    Molecular point group: c1

    Geometry (in Angstrom), charge = 0, multiplicity = 1:

       Center              X                  Y                   Z               Mass
    ------------   -----------------  -----------------  -----------------  -----------------
      Gh(C)           0.725056444691     0.797507876727    -2.781607991285    12.000000000000
      Gh(H)           1.396986444691     1.609277876727    -2.537497991285     1.007825032230
      Gh(C)           1.197156444691    -0.513572123273    -2.808707991285    12.000000000000
      Gh(H)           2.235266444691    -0.719272123273    -2.584887991285     1.007825032230
      Gh(C)           0.331746444691    -1.559272123273    -3.125327991285    12.000000000000
      Gh(H)           0.697696444691    -2.576812123273    -3.145537991285     1.007825032230
      Gh(C)          -1.005423555309    -1.293702123273    -3.415717991285    12.000000000000
      Gh(H)          -1.676953555309    -2.105292123273    -3.660367991285     1.007825032230
      Gh(C)          -1.477563555309     0.017677876727    -3.389317991285    12.000000000000
      Gh(H)          -2.515173555309     0.223567876727    -3.614067991285     1.007825032230
      Gh(C)          -0.612403555309     1.063287876727    -3.071787991285    12.000000000000
      Gh(H)          -0.978193555309     2.080977876727    -3.051517991285     1.007825032230
         C           -0.686553555309    -0.589872123273     3.051572008715    12.000000000000
         H           -0.792803555309    -0.414922123273     1.979262008715     1.007825032230
         H           -1.338183555309    -1.419142123273     3.324722008715     1.007825032230
         C            0.782996444691    -0.846932123273     3.395702008715    12.000000000000
         H            1.278226444691    -1.484522123273     2.665112008715     1.007825032230
         H            0.846266444691    -1.347152123273     4.363172008715     1.007825032230
         C            1.423126444691     0.558457876727     3.486652008715    12.000000000000
         H            2.073396444691     0.751127876727     2.634802008715     1.007825032230
         H            2.035996444691     0.647627876727     4.382382008715     1.007825032230
         C            0.244086444691     1.557637876727     3.513522008715    12.000000000000
         H            0.126926444691     2.016607876727     2.531242008715     1.007825032230
         H            0.389676444691     2.359147876727     4.235922008715     1.007825032230
         C           -0.989693555309     0.700547876727     3.809172008715    12.000000000000
         H           -1.920673555309     1.176277876727     3.503262008715     1.007825032230
         H           -1.055113555309     0.491217876727     4.879712008715     1.007825032230

  Charge       = 0
  Multiplicity = 1
  Basis Set: AUG-CC-PVDZ
    Blend: AUG-CC-PVDZ
  Basis Set: (AUG-CC-PVDZ AUX)
    Blend: AUG-CC-PVDZ-JKFIT

    Orbital Energies [Eh]
    ---------------------

    Doubly Occupied:

       1A    -11.215837     2A    -11.215461     3A    -11.215433
       4A    -11.214785     5A    -11.214769     6A     -1.117917
       7A     -0.957753     8A     -0.957048     9A     -0.777254
      10A     -0.767288    11A     -0.649565    12A     -0.644027
      13A     -0.569315    14A     -0.567897    15A     -0.474234
      16A     -0.473223    17A     -0.462712    18A     -0.459907
      19A     -0.458183    20A     -0.447827

  @DF-RHF Final Energy:  -195.18348767738624

   => Energetics <=

    Nuclear Repulsion Energy =            188.4044418620520389
    One-Electron Energy =                -635.4549860096176417
    Two-Electron Energy =                 251.8670564701793353
    Total Energy =                       -195.1834876773862391

  Dipole Moment: [D]
     X:    -0.0169      Y:    -0.0031      Z:    -0.0030     Total:     0.0175

    SAPT Results
  --------------------------------------------------------------------------------------------------------
    Electrostatics                 -0.05422999 [mEh]      -0.03402983 [kcal/mol]      -0.14238081 [kJ/mol]
      Elst10,r                     -0.06038412 [mEh]      -0.03789161 [kcal/mol]      -0.15853848 [kJ/mol]
      Elst12,r                      0.00615413 [mEh]       0.00386178 [kcal/mol]       0.01615767 [kJ/mol]

    Exchange                        0.00365839 [mEh]       0.00229567 [kcal/mol]       0.00960510 [kJ/mol]
      Exch10                        0.00305907 [mEh]       0.00191959 [kcal/mol]       0.00803158 [kJ/mol]
      Exch10(S^2)                   0.00305906 [mEh]       0.00191959 [kcal/mol]       0.00803157 [kJ/mol]
      Exch11(S^2)                  -0.00005178 [mEh]      -0.00003249 [kcal/mol]      -0.00013595 [kJ/mol]
      Exch12(S^2)                   0.00065110 [mEh]       0.00040857 [kcal/mol]       0.00170947 [kJ/mol]

    Induction                      -0.01135679 [mEh]      -0.00712650 [kcal/mol]      -0.02981726 [kJ/mol]
      Ind20,r                      -0.01342574 [mEh]      -0.00842478 [kcal/mol]      -0.03524926 [kJ/mol]
      Ind22                         0.00122575 [mEh]       0.00076917 [kcal/mol]       0.00321822 [kJ/mol]
      Exch-Ind20,r                  0.00086668 [mEh]       0.00054385 [kcal/mol]       0.00227546 [kJ/mol]
      Exch-Ind22                   -0.00007913 [mEh]      -0.00004965 [kcal/mol]      -0.00020775 [kJ/mol]
      delta HF,r (2)                0.00005564 [mEh]       0.00003491 [kcal/mol]       0.00014608 [kJ/mol]

    Dispersion                     -0.47066077 [mEh]      -0.29534409 [kcal/mol]      -1.23571969 [kJ/mol]
      Disp20                       -0.52538232 [mEh]      -0.32968238 [kcal/mol]      -1.37939108 [kJ/mol]
      Disp21                        0.14681976 [mEh]       0.09213079 [kcal/mol]       0.38547524 [kJ/mol]
      Disp22 (SDQ)                  0.00512964 [mEh]       0.00321890 [kcal/mol]       0.01346786 [kJ/mol]
      Disp22 (T)                   -0.09667452 [mEh]      -0.06066418 [kcal/mol]      -0.25381891 [kJ/mol]
      Est. Disp22 (T)              -0.09830435 [mEh]      -0.06168691 [kcal/mol]      -0.25809803 [kJ/mol]
      Exch-Disp20                   0.00107649 [mEh]       0.00067551 [kcal/mol]       0.00282633 [kJ/mol]

  Total HF                         -0.06982847 [mEh]      -0.04381803 [kcal/mol]      -0.18333463 [kJ/mol]
  Total SAPT0                      -0.59413430 [mEh]      -0.37282490 [kcal/mol]      -1.55989938 [kJ/mol]
  Total SAPT2                      -0.58623421 [mEh]      -0.36786752 [kcal/mol]      -1.53915771 [kJ/mol]
  Total SAPT2+                     -0.53258916 [mEh]      -0.33420474 [kcal/mol]      -1.39831265 [kJ/mol]

  Special recipe for scaled SAPT0 (see Manual):
    Electrostatics sSAPT0          -0.06038412 [mEh]      -0.03789161 [kcal/mol]      -0.15853848 [kJ/mol]
    Exchange sSAPT0                 0.00305907 [mEh]       0.00191959 [kcal/mol]       0.00803158 [kJ/mol]
    Induction sSAPT0               -0.01250342 [mEh]      -0.00784602 [kcal/mol]      -0.03282773 [kJ/mol]
    Dispersion sSAPT0              -0.52430582 [mEh]      -0.32900687 [kcal/mol]      -1.37656475 [kJ/mol]
  Total sSAPT0                     -0.59413430 [mEh]      -0.37282490 [kcal/mol]      -1.55989938 [kJ/mol]
  --------------------------------------------------------------------------------------------------------

*** Psi4 exiting successfully. Buy a developer a beer!
