                               Psi4 1.4a2.dev224

  ==> Input File <==

--------------------------------------------------------------------------
#Generated by lconvert.py for sapt job

memory 20 GB

molecule  {
0 1
  C       0.311950    0.561020    0.496700
  H       0.742140    1.553370    0.481570
  C       1.142180   -0.558070    0.536060
  H       2.216510   -0.434250    0.552350
  C       0.587800   -1.836690    0.554140
  H       1.231910   -2.704840    0.585220
  C      -0.796660   -1.996380    0.532960
  H      -1.226770   -2.988440    0.548640
  C      -1.626890   -0.877470    0.494170
  H      -2.701120   -1.001350    0.479810
  C      -1.072660    0.401210    0.475970
  H      -1.716970    1.269400    0.445920
--
0 1
  C       0.035510    0.398310    8.177710
  C       1.481760    0.577100    7.722750
  H       1.897610    1.510370    8.106170
  H       2.105160   -0.243520    8.081600
  H       1.542370    0.596490    6.633810
  C      -0.018880    0.366940    9.702570
  H      -1.044670    0.239520   10.051660
  H       0.576520   -0.458750   10.095130
  H       0.369410    1.294820   10.125480
  C      -0.513870   -0.911180    7.617410
  H      -1.548750   -1.061460    7.930080
  H       0.072580   -1.760160    7.973220
  H      -0.485090   -0.911640    6.527100
  C      -0.805860    1.562880    7.661500
  H      -0.784320    1.598910    6.571500
  H      -1.845650    1.459110    7.975980
  H      -0.430210    2.513570    8.043610
units angstrom
no_reorient
symmetry c1
}

set {
scf_type DF
basis aug-cc-pvdz
freeze_core True
guess SAD
}
energy('sapt2+')
--------------------------------------------------------------------------

  //              Dimer HF             //
    Molecular point group: c1
  Charge       = 0
  Multiplicity = 1
  Basis Set: AUG-CC-PVDZ
    Blend: AUG-CC-PVDZ
  Basis Set: (AUG-CC-PVDZ AUX)
    Blend: AUG-CC-PVDZ-JKFIT
  @DF-RHF Final Energy:  -427.08267561996547
    Total Energy =                       -427.0826756199654710
  //            Monomer A HF           //
    Molecular point group: c1
  Multiplicity = 1
  Basis Set: AUG-CC-PVDZ
    Blend: AUG-CC-PVDZ
  Basis Set: (AUG-CC-PVDZ AUX)
    Blend: AUG-CC-PVDZ-JKFIT
  @DF-RHF Final Energy:  -230.72797128339778
    Total Energy =                       -230.7279712833977783
  //            Monomer B HF           //
    Molecular point group: c1

    Geometry (in Angstrom), charge = 0, multiplicity = 1:

       Center              X                  Y                   Z               Mass
    ------------   -----------------  -----------------  -----------------  -----------------
      Gh(C)           0.420813341026     0.742670251285    -3.697122601112    12.000000000000
      Gh(H)           0.851003341026     1.735020251285    -3.712252601112     1.007825032230
      Gh(C)           1.251043341026    -0.376419748715    -3.657762601112    12.000000000000
      Gh(H)           2.325373341026    -0.252599748715    -3.641472601112     1.007825032230
      Gh(C)           0.696663341026    -1.655039748715    -3.639682601112    12.000000000000
      Gh(H)           1.340773341026    -2.523189748715    -3.608602601112     1.007825032230
      Gh(C)          -0.687796658974    -1.814729748715    -3.660862601112    12.000000000000
      Gh(H)          -1.117906658974    -2.806789748715    -3.645182601112     1.007825032230
      Gh(C)          -1.518026658974    -0.695819748715    -3.699652601112    12.000000000000
      Gh(H)          -2.592256658974    -0.819699748715    -3.714012601112     1.007825032230
      Gh(C)          -0.963796658974     0.582860251285    -3.717852601112    12.000000000000
      Gh(H)          -1.608106658974     1.451050251285    -3.747902601112     1.007825032230
         C            0.144373341026     0.579960251285     3.983887398888    12.000000000000
         C            1.590623341026     0.758750251285     3.528927398888    12.000000000000
         H            2.006473341026     1.692020251285     3.912347398888     1.007825032230
         H            2.214023341026    -0.061869748715     3.887777398888     1.007825032230
         H            1.651233341026     0.778140251285     2.439987398888     1.007825032230
         C            0.089983341026     0.548590251285     5.508747398888    12.000000000000
         H           -0.935806658974     0.421170251285     5.857837398888     1.007825032230
         H            0.685383341026    -0.277099748715     5.901307398888     1.007825032230
         H            0.478273341026     1.476470251285     5.931657398888     1.007825032230
         C           -0.405006658974    -0.729529748715     3.423587398888    12.000000000000
         H           -1.439886658974    -0.879809748715     3.736257398888     1.007825032230
         H            0.181443341026    -1.578509748715     3.779397398888     1.007825032230
         H           -0.376226658974    -0.729989748715     2.333277398888     1.007825032230
         C           -0.696996658974     1.744530251285     3.467677398888    12.000000000000
         H           -0.675456658974     1.780560251285     2.377677398888     1.007825032230
         H           -1.736786658974     1.640760251285     3.782157398888     1.007825032230
         H           -0.321346658974     2.695220251285     3.849787398888     1.007825032230

  Charge       = 0
  Multiplicity = 1
  Basis Set: AUG-CC-PVDZ
    Blend: AUG-CC-PVDZ
  Basis Set: (AUG-CC-PVDZ AUX)
    Blend: AUG-CC-PVDZ-JKFIT

    Orbital Energies [Eh]
    ---------------------

    Doubly Occupied:

       1A    -11.231100     2A    -11.212196     3A    -11.212115
       4A    -11.212054     5A    -11.212027     6A     -1.107880
       7A     -0.929926     8A     -0.929595     9A     -0.929559
      10A     -0.729913    11A     -0.611900    12A     -0.611396
      13A     -0.611138    14A     -0.552701    15A     -0.552358
      16A     -0.508689    17A     -0.508535    18A     -0.508067
      19A     -0.452202    20A     -0.451272    21A     -0.451209

  @DF-RHF Final Energy:  -196.35464580579333

   => Energetics <=

    Nuclear Repulsion Energy =            199.3734015947065643
    One-Electron Energy =                -658.4044320183653554
    Two-Electron Energy =                 262.6763846178654376
    Total Energy =                       -196.3546458057933251

  Dipole Moment: [D]
     X:    -0.0011      Y:    -0.0024      Z:     0.0017     Total:     0.0031

    SAPT Results
  --------------------------------------------------------------------------------------------------------
    Electrostatics                 -0.04535606 [mEh]      -0.02846136 [kcal/mol]      -0.11908233 [kJ/mol]
      Elst10,r                     -0.05370133 [mEh]      -0.03369809 [kcal/mol]      -0.14099283 [kJ/mol]
      Elst12,r                      0.00834527 [mEh]       0.00523673 [kcal/mol]       0.02191050 [kJ/mol]

    Exchange                        0.00022943 [mEh]       0.00014397 [kcal/mol]       0.00060236 [kJ/mol]
      Exch10                        0.00020848 [mEh]       0.00013082 [kcal/mol]       0.00054737 [kJ/mol]
      Exch10(S^2)                   0.00020848 [mEh]       0.00013082 [kcal/mol]       0.00054737 [kJ/mol]
      Exch11(S^2)                  -0.00000770 [mEh]      -0.00000483 [kcal/mol]      -0.00002021 [kJ/mol]
      Exch12(S^2)                   0.00002864 [mEh]       0.00001797 [kcal/mol]       0.00007520 [kJ/mol]

    Induction                      -0.00445478 [mEh]      -0.00279541 [kcal/mol]      -0.01169601 [kJ/mol]
      Ind20,r                      -0.00572389 [mEh]      -0.00359180 [kcal/mol]      -0.01502808 [kJ/mol]
      Ind22                         0.00059099 [mEh]       0.00037085 [kcal/mol]       0.00155165 [kJ/mol]
      Exch-Ind20,r                  0.00007598 [mEh]       0.00004768 [kcal/mol]       0.00019948 [kJ/mol]
      Exch-Ind22                   -0.00000784 [mEh]      -0.00000492 [kcal/mol]      -0.00002060 [kJ/mol]
      delta HF,r (2)                0.00060999 [mEh]       0.00038278 [kcal/mol]       0.00160153 [kJ/mol]

    Dispersion                     -0.21063023 [mEh]      -0.13217247 [kcal/mol]      -0.55300960 [kJ/mol]
      Disp20                       -0.23484705 [mEh]      -0.14736875 [kcal/mol]      -0.61659083 [kJ/mol]
      Disp21                        0.06286344 [mEh]       0.03944740 [kcal/mol]       0.16504793 [kJ/mol]
      Disp22 (SDQ)                  0.00505960 [mEh]       0.00317495 [kcal/mol]       0.01328398 [kJ/mol]
      Disp22 (T)                   -0.04340297 [mEh]      -0.02723577 [kcal/mol]      -0.11395448 [kJ/mol]
      Est. Disp22 (T)              -0.04379007 [mEh]      -0.02747868 [kcal/mol]      -0.11497080 [kJ/mol]
      Exch-Disp20                   0.00008384 [mEh]       0.00005261 [kcal/mol]       0.00022012 [kJ/mol]

  Total HF                         -0.05853077 [mEh]      -0.03672862 [kcal/mol]      -0.15367253 [kJ/mol]
  Total SAPT0                      -0.29329398 [mEh]      -0.18404475 [kcal/mol]      -0.77004324 [kJ/mol]
  Total SAPT2                      -0.28434462 [mEh]      -0.17842894 [kcal/mol]      -0.74654669 [kJ/mol]
  Total SAPT2+                     -0.26021164 [mEh]      -0.16328527 [kcal/mol]      -0.68318558 [kJ/mol]

  Special recipe for scaled SAPT0 (see Manual):
    Electrostatics sSAPT0          -0.05370133 [mEh]      -0.03369809 [kcal/mol]      -0.14099283 [kJ/mol]
    Exchange sSAPT0                 0.00020848 [mEh]       0.00013082 [kcal/mol]       0.00054737 [kJ/mol]
    Induction sSAPT0               -0.00503793 [mEh]      -0.00316135 [kcal/mol]      -0.01322707 [kJ/mol]
    Dispersion sSAPT0              -0.23476321 [mEh]      -0.14731614 [kcal/mol]      -0.61637071 [kJ/mol]
  Total sSAPT0                     -0.29329398 [mEh]      -0.18404475 [kcal/mol]      -0.77004324 [kJ/mol]
  --------------------------------------------------------------------------------------------------------

*** Psi4 exiting successfully. Buy a developer a beer!
