                               Psi4 1.4a2.dev224

  ==> Input File <==

--------------------------------------------------------------------------
#Generated by lconvert.py for sapt job

memory 20 GB

molecule  {
0 1
  C       0.311950    0.561020    0.496700
  H       0.742140    1.553370    0.481570
  C       1.142180   -0.558070    0.536060
  H       2.216510   -0.434250    0.552350
  C       0.587800   -1.836690    0.554140
  H       1.231910   -2.704840    0.585220
  C      -0.796660   -1.996380    0.532960
  H      -1.226770   -2.988440    0.548640
  C      -1.626890   -0.877470    0.494170
  H      -2.701120   -1.001350    0.479810
  C      -1.072660    0.401210    0.475970
  H      -1.716970    1.269400    0.445920
--
0 1
  C       0.127270    0.471620    5.904660
  C       1.573520    0.650410    5.449700
  H       1.989380    1.583690    5.833120
  H       2.196920   -0.170210    5.808550
  H       1.634130    0.669800    4.360770
  C       0.072880    0.440250    7.429530
  H      -0.952910    0.312830    7.778620
  H       0.668290   -0.385440    7.822080
  H       0.461180    1.368140    7.852430
  C      -0.422110   -0.837870    5.344370
  H      -1.456980   -0.988150    5.657040
  H       0.164350   -1.686840    5.700180
  H      -0.393330   -0.838320    4.254050
  C      -0.714100    1.636190    5.388460
  H      -0.692560    1.672220    4.298460
  H      -1.753890    1.532420    5.702940
  H      -0.338450    2.586890    5.770560
units angstrom
no_reorient
symmetry c1
}

set {
scf_type DF
basis aug-cc-pvdz
freeze_core True
guess SAD
}
energy('sapt2+')
--------------------------------------------------------------------------

  //              Dimer HF             //
    Molecular point group: c1
  Charge       = 0
  Multiplicity = 1
  Basis Set: AUG-CC-PVDZ
    Blend: AUG-CC-PVDZ
  Basis Set: (AUG-CC-PVDZ AUX)
    Blend: AUG-CC-PVDZ-JKFIT
  @DF-RHF Final Energy:  -427.08326696637153
    Total Energy =                       -427.0832669663715251
  //            Monomer A HF           //
    Molecular point group: c1
  Multiplicity = 1
  Basis Set: AUG-CC-PVDZ
    Blend: AUG-CC-PVDZ
  Basis Set: (AUG-CC-PVDZ AUX)
    Blend: AUG-CC-PVDZ-JKFIT
  @DF-RHF Final Energy:  -230.72837405011953
    Total Energy =                       -230.7283740501195552
  //            Monomer B HF           //
    Molecular point group: c1

    Geometry (in Angstrom), charge = 0, multiplicity = 1:

       Center              X                  Y                   Z               Mass
    ------------   -----------------  -----------------  -----------------  -----------------
      Gh(C)           0.376752136729     0.707468277884    -2.605663353536    12.000000000000
      Gh(H)           0.806942136729     1.699818277884    -2.620793353536     1.007825032230
      Gh(C)           1.206982136729    -0.411621722116    -2.566303353536    12.000000000000
      Gh(H)           2.281312136729    -0.287801722116    -2.550013353536     1.007825032230
      Gh(C)           0.652602136729    -1.690241722116    -2.548223353536    12.000000000000
      Gh(H)           1.296712136729    -2.558391722116    -2.517143353536     1.007825032230
      Gh(C)          -0.731857863271    -1.849931722116    -2.569403353536    12.000000000000
      Gh(H)          -1.161967863271    -2.841991722116    -2.553723353536     1.007825032230
      Gh(C)          -1.562087863271    -0.731021722116    -2.608193353536    12.000000000000
      Gh(H)          -2.636317863271    -0.854901722116    -2.622553353536     1.007825032230
      Gh(C)          -1.007857863271     0.547658277884    -2.626393353536    12.000000000000
      Gh(H)          -1.652167863271     1.415848277884    -2.656443353536     1.007825032230
         C            0.192072136729     0.618068277884     2.802296646464    12.000000000000
         C            1.638322136729     0.796858277884     2.347336646464    12.000000000000
         H            2.054182136729     1.730138277884     2.730756646464     1.007825032230
         H            2.261722136729    -0.023761722116     2.706186646464     1.007825032230
         H            1.698932136729     0.816248277884     1.258406646464     1.007825032230
         C            0.137682136729     0.586698277884     4.327166646464    12.000000000000
         H           -0.888107863271     0.459278277884     4.676256646464     1.007825032230
         H            0.733092136729    -0.238991722116     4.719716646464     1.007825032230
         H            0.525982136729     1.514588277884     4.750066646464     1.007825032230
         C           -0.357307863271    -0.691421722116     2.242006646464    12.000000000000
         H           -1.392177863271    -0.841701722116     2.554676646464     1.007825032230
         H            0.229152136729    -1.540391722116     2.597816646464     1.007825032230
         H           -0.328527863271    -0.691871722116     1.151686646464     1.007825032230
         C           -0.649297863271     1.782638277884     2.286096646464    12.000000000000
         H           -0.627757863271     1.818668277884     1.196096646464     1.007825032230
         H           -1.689087863271     1.678868277884     2.600576646464     1.007825032230
         H           -0.273647863271     2.733338277884     2.668196646464     1.007825032230

  Charge       = 0
  Multiplicity = 1
  Basis Set: AUG-CC-PVDZ
    Blend: AUG-CC-PVDZ
  Basis Set: (AUG-CC-PVDZ AUX)
    Blend: AUG-CC-PVDZ-JKFIT

    Orbital Energies [Eh]
    ---------------------

    Doubly Occupied:

       1A    -11.231099     2A    -11.212151     3A    -11.212113
       4A    -11.212022     5A    -11.211996     6A     -1.107882
       7A     -0.929925     8A     -0.929589     9A     -0.929553
      10A     -0.729917    11A     -0.611899    12A     -0.611396
      13A     -0.611139    14A     -0.552699    15A     -0.552355
      16A     -0.508683    17A     -0.508533    18A     -0.508065
      19A     -0.452197    20A     -0.451278    21A     -0.451213

  @DF-RHF Final Energy:  -196.35475147701726

   => Energetics <=

    Nuclear Repulsion Energy =            199.3733083875947329
    One-Electron Energy =                -658.4047196156296877
    Two-Electron Energy =                 262.6766597510176666
    Total Energy =                       -196.3547514770172597

  Dipole Moment: [D]
     X:    -0.0012      Y:    -0.0028      Z:     0.0019     Total:     0.0036

    SAPT Results
  --------------------------------------------------------------------------------------------------------
    Electrostatics                 -0.31884853 [mEh]      -0.20008047 [kcal/mol]      -0.83713671 [kJ/mol]
      Elst10,r                     -0.33181464 [mEh]      -0.20821683 [kcal/mol]      -0.87117922 [kJ/mol]
      Elst12,r                      0.01296611 [mEh]       0.00813636 [kcal/mol]       0.03404252 [kJ/mol]

    Exchange                        0.33287316 [mEh]       0.20888106 [kcal/mol]       0.87395835 [kJ/mol]
      Exch10                        0.28525150 [mEh]       0.17899802 [kcal/mol]       0.74892771 [kJ/mol]
      Exch10(S^2)                   0.28523068 [mEh]       0.17898495 [kcal/mol]       0.74887304 [kJ/mol]
      Exch11(S^2)                   0.00576563 [mEh]       0.00361799 [kcal/mol]       0.01513767 [kJ/mol]
      Exch12(S^2)                   0.04185602 [mEh]       0.02626505 [kcal/mol]       0.10989297 [kJ/mol]

    Induction                      -0.09571521 [mEh]      -0.06006220 [kcal/mol]      -0.25130024 [kJ/mol]
      Ind20,r                      -0.10865623 [mEh]      -0.06818281 [kcal/mol]      -0.28527689 [kJ/mol]
      Ind22                        -0.00127027 [mEh]      -0.00079711 [kcal/mol]      -0.00333510 [kJ/mol]
      Exch-Ind20,r                  0.03688035 [mEh]       0.02314277 [kcal/mol]       0.09682935 [kJ/mol]
      Exch-Ind22                    0.00043116 [mEh]       0.00027056 [kcal/mol]       0.00113201 [kJ/mol]
      delta HF,r (2)               -0.02310022 [mEh]      -0.01449561 [kcal/mol]      -0.06064961 [kJ/mol]

    Dispersion                     -2.11110132 [mEh]      -1.32473608 [kcal/mol]      -5.54269574 [kJ/mol]
      Disp20                       -2.30393154 [mEh]      -1.44573887 [kcal/mol]      -6.04897143 [kJ/mol]
      Disp21                        0.49107072 [mEh]       0.30815153 [kcal/mol]       1.28930600 [kJ/mol]
      Disp22 (SDQ)                  0.06433049 [mEh]       0.04036799 [kcal/mol]       0.16889967 [kJ/mol]
      Disp22 (T)                   -0.40573439 [mEh]      -0.25460218 [kcal/mol]      -1.06525551 [kJ/mol]
      Est. Disp22 (T)              -0.42320952 [mEh]      -0.26556798 [kcal/mol]      -1.11113644 [kJ/mol]
      Exch-Disp20                   0.06063854 [mEh]       0.03805126 [kcal/mol]       0.15920646 [kJ/mol]

  Total HF                         -0.14143923 [mEh]      -0.08875446 [kcal/mol]      -0.37134866 [kJ/mol]
  Total SAPT0                      -2.38473224 [mEh]      -1.49644207 [kcal/mol]      -6.26111363 [kJ/mol]
  Total SAPT2                      -2.32498359 [mEh]      -1.45894923 [kcal/mol]      -6.10424357 [kJ/mol]
  Total SAPT2+                     -2.19279190 [mEh]      -1.37599769 [kcal/mol]      -5.75717434 [kJ/mol]

  Special recipe for scaled SAPT0 (see Manual):
    Electrostatics sSAPT0          -0.33181464 [mEh]      -0.20821683 [kcal/mol]      -0.87117922 [kJ/mol]
    Exchange sSAPT0                 0.28525150 [mEh]       0.17899802 [kcal/mol]       0.74892771 [kJ/mol]
    Induction sSAPT0               -0.09486801 [mEh]      -0.05953058 [kcal/mol]      -0.24907594 [kJ/mol]
    Dispersion sSAPT0              -2.24327972 [mEh]      -1.40767928 [kcal/mol]      -5.88973010 [kJ/mol]
  Total sSAPT0                     -2.38471088 [mEh]      -1.49642867 [kcal/mol]      -6.26105755 [kJ/mol]
  --------------------------------------------------------------------------------------------------------

*** Psi4 exiting successfully. Buy a developer a beer!
