                               Psi4 1.4a2.dev224

  ==> Input File <==

--------------------------------------------------------------------------
#Generated by lconvert.py for sapt job

memory 20 GB

molecule  {
0 1
  C       0.311950    0.561020    0.496700
  H       0.742140    1.553370    0.481570
  C       1.142180   -0.558070    0.536060
  H       2.216510   -0.434250    0.552350
  C       0.587800   -1.836690    0.554140
  H       1.231910   -2.704840    0.585220
  C      -0.796660   -1.996380    0.532960
  H      -1.226770   -2.988440    0.548640
  C      -1.626890   -0.877470    0.494170
  H      -2.701120   -1.001350    0.479810
  C      -1.072660    0.401210    0.475970
  H      -1.716970    1.269400    0.445920
--
0 1
  C       0.081390    0.434960    7.041180
  C       1.527640    0.613750    6.586220
  H       1.943500    1.547030    6.969650
  H       2.151040   -0.206860    6.945080
  H       1.588250    0.633140    5.497290
  C       0.027000    0.403590    8.566050
  H      -0.998790    0.276170    8.915140
  H       0.622400   -0.422090    8.958600
  H       0.415290    1.331480    8.988960
  C      -0.467990   -0.874530    6.480890
  H      -1.502860   -1.024800    6.793560
  H       0.118470   -1.723500    6.836700
  H      -0.439210   -0.874980    5.390580
  C      -0.759980    1.599540    6.524980
  H      -0.738440    1.635570    5.434980
  H      -1.799770    1.495770    6.839460
  H      -0.384330    2.550230    6.907090
units angstrom
no_reorient
symmetry c1
}

set {
scf_type DF
basis aug-cc-pvdz
freeze_core True
guess SAD
}
energy('sapt2+')
--------------------------------------------------------------------------

  //              Dimer HF             //
    Molecular point group: c1
  Charge       = 0
  Multiplicity = 1
  Basis Set: AUG-CC-PVDZ
    Blend: AUG-CC-PVDZ
  Basis Set: (AUG-CC-PVDZ AUX)
    Blend: AUG-CC-PVDZ-JKFIT
  @DF-RHF Final Energy:  -427.08287633463237
    Total Energy =                       -427.0828763346323740
  //            Monomer A HF           //
    Molecular point group: c1
  Multiplicity = 1
  Basis Set: AUG-CC-PVDZ
    Blend: AUG-CC-PVDZ
  Basis Set: (AUG-CC-PVDZ AUX)
    Blend: AUG-CC-PVDZ-JKFIT
  @DF-RHF Final Energy:  -230.72808024326417
    Total Energy =                       -230.7280802432641735
  //            Monomer B HF           //
    Molecular point group: c1

    Geometry (in Angstrom), charge = 0, multiplicity = 1:

       Center              X                  Y                   Z               Mass
    ------------   -----------------  -----------------  -----------------  -----------------
      Gh(C)           0.398782705315     0.725070362771    -3.151392312325    12.000000000000
      Gh(H)           0.828972705315     1.717420362771    -3.166522312325     1.007825032230
      Gh(C)           1.229012705315    -0.394019637229    -3.112032312325    12.000000000000
      Gh(H)           2.303342705315    -0.270199637229    -3.095742312325     1.007825032230
      Gh(C)           0.674632705315    -1.672639637229    -3.093952312325    12.000000000000
      Gh(H)           1.318742705315    -2.540789637229    -3.062872312325     1.007825032230
      Gh(C)          -0.709827294685    -1.832329637229    -3.115132312325    12.000000000000
      Gh(H)          -1.139937294685    -2.824389637229    -3.099452312325     1.007825032230
      Gh(C)          -1.540057294685    -0.713419637229    -3.153922312325    12.000000000000
      Gh(H)          -2.614287294685    -0.837299637229    -3.168282312325     1.007825032230
      Gh(C)          -0.985827294685     0.565260362771    -3.172122312325    12.000000000000
      Gh(H)          -1.630137294685     1.433450362771    -3.202172312325     1.007825032230
         C            0.168222705315     0.599010362771     3.393087687675    12.000000000000
         C            1.614472705315     0.777800362771     2.938127687675    12.000000000000
         H            2.030332705315     1.711080362771     3.321557687675     1.007825032230
         H            2.237872705315    -0.042809637229     3.296987687675     1.007825032230
         H            1.675082705315     0.797190362771     1.849197687675     1.007825032230
         C            0.113832705315     0.567640362771     4.917957687675    12.000000000000
         H           -0.911957294685     0.440220362771     5.267047687675     1.007825032230
         H            0.709232705315    -0.258039637229     5.310507687675     1.007825032230
         H            0.502122705315     1.495530362771     5.340867687675     1.007825032230
         C           -0.381157294685    -0.710479637229     2.832797687675    12.000000000000
         H           -1.416027294685    -0.860749637229     3.145467687675     1.007825032230
         H            0.205302705315    -1.559449637229     3.188607687675     1.007825032230
         H           -0.352377294685    -0.710929637229     1.742487687675     1.007825032230
         C           -0.673147294685     1.763590362771     2.876887687675    12.000000000000
         H           -0.651607294685     1.799620362771     1.786887687675     1.007825032230
         H           -1.712937294685     1.659820362771     3.191367687675     1.007825032230
         H           -0.297497294685     2.714280362771     3.258997687675     1.007825032230

  Charge       = 0
  Multiplicity = 1
  Basis Set: AUG-CC-PVDZ
    Blend: AUG-CC-PVDZ
  Basis Set: (AUG-CC-PVDZ AUX)
    Blend: AUG-CC-PVDZ-JKFIT

    Orbital Energies [Eh]
    ---------------------

    Doubly Occupied:

       1A    -11.231097     2A    -11.212175     3A    -11.212115
       4A    -11.212040     5A    -11.212013     6A     -1.107879
       7A     -0.929926     8A     -0.929593     9A     -0.929558
      10A     -0.729913    11A     -0.611901    12A     -0.611396
      13A     -0.611139    14A     -0.552702    15A     -0.552357
      16A     -0.508687    17A     -0.508536    18A     -0.508067
      19A     -0.452200    20A     -0.451274    21A     -0.451210

  @DF-RHF Final Energy:  -196.35467161744654

   => Energetics <=

    Nuclear Repulsion Energy =            199.3732656583692631
    One-Electron Energy =                -658.4043252216704332
    Two-Electron Energy =                 262.6763879458546285
    Total Energy =                       -196.3546716174465132

  Dipole Moment: [D]
     X:    -0.0011      Y:    -0.0025      Z:     0.0020     Total:     0.0034

    SAPT Results
  --------------------------------------------------------------------------------------------------------
    Electrostatics                 -0.09791803 [mEh]      -0.06144449 [kcal/mol]      -0.25708374 [kJ/mol]
      Elst10,r                     -0.11417219 [mEh]      -0.07164413 [kcal/mol]      -0.29975903 [kJ/mol]
      Elst12,r                      0.01625416 [mEh]       0.01019964 [kcal/mol]       0.04267529 [kJ/mol]

    Exchange                        0.00971415 [mEh]       0.00609572 [kcal/mol]       0.02550449 [kJ/mol]
      Exch10                        0.00798616 [mEh]       0.00501139 [kcal/mol]       0.02096767 [kJ/mol]
      Exch10(S^2)                   0.00798618 [mEh]       0.00501140 [kcal/mol]       0.02096770 [kJ/mol]
      Exch11(S^2)                  -0.00005333 [mEh]      -0.00003346 [kcal/mol]      -0.00014001 [kJ/mol]
      Exch12(S^2)                   0.00178131 [mEh]       0.00111779 [kcal/mol]       0.00467683 [kJ/mol]

    Induction                      -0.01668482 [mEh]      -0.01046988 [kcal/mol]      -0.04380599 [kJ/mol]
      Ind20,r                      -0.02030693 [mEh]      -0.01274279 [kcal/mol]      -0.05331584 [kJ/mol]
      Ind22                         0.00174419 [mEh]       0.00109450 [kcal/mol]       0.00457937 [kJ/mol]
      Exch-Ind20,r                  0.00164290 [mEh]       0.00103093 [kcal/mol]       0.00431342 [kJ/mol]
      Exch-Ind22                   -0.00014111 [mEh]      -0.00008855 [kcal/mol]      -0.00037049 [kJ/mol]
      delta HF,r (2)                0.00037613 [mEh]       0.00023603 [kcal/mol]       0.00098754 [kJ/mol]

    Dispersion                     -0.59270117 [mEh]      -0.37192560 [kcal/mol]      -1.55613672 [kJ/mol]
      Disp20                       -0.65116963 [mEh]      -0.40861511 [kcal/mol]      -1.70964563 [kJ/mol]
      Disp21                        0.16161488 [mEh]       0.10141487 [kcal/mol]       0.42431982 [kJ/mol]
      Disp22 (SDQ)                  0.01552436 [mEh]       0.00974168 [kcal/mol]       0.04075921 [kJ/mol]
      Disp22 (T)                   -0.11847830 [mEh]      -0.07434625 [kcal/mol]      -0.31106473 [kJ/mol]
      Est. Disp22 (T)              -0.12099794 [mEh]      -0.07592736 [kcal/mol]      -0.31768006 [kJ/mol]
      Exch-Disp20                   0.00232715 [mEh]       0.00146031 [kcal/mol]       0.00610994 [kJ/mol]

  Total HF                         -0.12447392 [mEh]      -0.07810857 [kcal/mol]      -0.32680624 [kJ/mol]
  Total SAPT0                      -0.77331640 [mEh]      -0.48526337 [kcal/mol]      -2.03034192 [kJ/mol]
  Total SAPT2                      -0.75373118 [mEh]      -0.47297345 [kcal/mol]      -1.97892093 [kJ/mol]
  Total SAPT2+                     -0.69758987 [mEh]      -0.43774425 [kcal/mol]      -1.83152196 [kJ/mol]

  Special recipe for scaled SAPT0 (see Manual):
    Electrostatics sSAPT0          -0.11417219 [mEh]      -0.07164413 [kcal/mol]      -0.29975903 [kJ/mol]
    Exchange sSAPT0                 0.00798616 [mEh]       0.00501139 [kcal/mol]       0.02096767 [kJ/mol]
    Induction sSAPT0               -0.01828790 [mEh]      -0.01147583 [kcal/mol]      -0.04801487 [kJ/mol]
    Dispersion sSAPT0              -0.64884248 [mEh]      -0.40715480 [kcal/mol]      -1.70353569 [kJ/mol]
  Total sSAPT0                     -0.77331640 [mEh]      -0.48526337 [kcal/mol]      -2.03034192 [kJ/mol]
  --------------------------------------------------------------------------------------------------------

*** Psi4 exiting successfully. Buy a developer a beer!
