                               Psi4 1.4a2.dev224

  ==> Input File <==

--------------------------------------------------------------------------
#Generated by lconvert.py for sapt job

memory 20 GB

molecule  {
0 1
  N      -0.208910   -0.964580    0.534760
  H      -0.224150   -1.973110    0.605080
  C      -1.446340   -0.344580    0.306660
  O      -2.461240   -1.010790    0.197890
  C      -1.357780    1.103190    0.228140
  H      -2.256570    1.667730    0.049850
  C      -0.163000    1.709890    0.381130
  H      -0.046290    2.782450    0.333350
  N       0.985450    1.000820    0.611210
  H       1.867560    1.466930    0.744780
  C       1.027020   -0.379170    0.712650
  O       2.049200   -0.997400    0.937260
--
0 1
  C       1.371090    2.386840    6.789530
  H       0.940240    2.697890    5.836750
  H       0.736860    2.792270    7.577780
  H       2.353970    2.847290    6.882650
  C       1.444110    0.867970    6.879050
  H       1.874490    0.578400    7.840340
  H       2.118700    0.476810    6.113930
  C       0.079320    0.209800    6.724230
  H      -0.591920    0.578680    7.505850
  H      -0.368150    0.520070    5.774330
  C       0.135610   -1.310890    6.783870
  H       0.559220   -1.613320    7.744510
  H       0.827130   -1.672770    6.019370
  C      -1.233670   -1.952760    6.600100
  H      -1.672050   -1.679300    5.639910
  H      -1.176730   -3.039530    6.644150
  H      -1.921630   -1.624410    7.379330
units angstrom
no_reorient
symmetry c1
}

set {
scf_type DF
basis aug-cc-pvdz
freeze_core True
guess SAD
}
energy('sapt2+')
--------------------------------------------------------------------------

  //              Dimer HF             //
    Molecular point group: c1
  Charge       = 0
  Multiplicity = 1
  Basis Set: AUG-CC-PVDZ
    Blend: AUG-CC-PVDZ
  Basis Set: (AUG-CC-PVDZ AUX)
    Blend: AUG-CC-PVDZ-JKFIT
  @DF-RHF Final Energy:  -608.88353547348675
    Total Energy =                       -608.8835354734867451
  //            Monomer A HF           //
    Molecular point group: c1
  Multiplicity = 1
  Basis Set: AUG-CC-PVDZ
    Blend: AUG-CC-PVDZ
  Basis Set: (AUG-CC-PVDZ AUX)
    Blend: AUG-CC-PVDZ-JKFIT
  @DF-RHF Final Energy:  -412.52974729609366
    Total Energy =                       -412.5297472960936602
  //            Monomer B HF           //
    Molecular point group: c1

    Geometry (in Angstrom), charge = 0, multiplicity = 1:

       Center              X                  Y                   Z               Mass
    ------------   -----------------  -----------------  -----------------  -----------------
      Gh(N)          -0.239346690955    -0.968456857359    -2.411164438934    14.003074004430
      Gh(H)          -0.254586690955    -1.976986857359    -2.340844438934     1.007825032230
      Gh(C)          -1.476776690955    -0.348456857359    -2.639264438934    12.000000000000
      Gh(O)          -2.491676690955    -1.014666857359    -2.748034438934    15.994914619570
      Gh(C)          -1.388216690955     1.099313142641    -2.717784438934    12.000000000000
      Gh(H)          -2.287006690955     1.663853142641    -2.896074438934     1.007825032230
      Gh(C)          -0.193436690955     1.706013142641    -2.564794438934    12.000000000000
      Gh(H)          -0.076726690955     2.778573142641    -2.612574438934     1.007825032230
      Gh(N)           0.955013309045     0.996943142641    -2.334714438934    14.003074004430
      Gh(H)           1.837123309045     1.463053142641    -2.201144438934     1.007825032230
      Gh(C)           0.996583309045    -0.383046857359    -2.233274438934    12.000000000000
      Gh(O)           2.018763309045    -1.001276857359    -2.008664438934    15.994914619570
         C            1.340653309045     2.382963142641     3.843605561066    12.000000000000
         H            0.909803309045     2.694013142641     2.890825561066     1.007825032230
         H            0.706423309045     2.788393142641     4.631855561066     1.007825032230
         H            2.323533309045     2.843413142641     3.936725561066     1.007825032230
         C            1.413673309045     0.864093142641     3.933125561066    12.000000000000
         H            1.844053309045     0.574523142641     4.894415561066     1.007825032230
         H            2.088263309045     0.472933142641     3.168005561066     1.007825032230
         C            0.048883309045     0.205923142641     3.778305561066    12.000000000000
         H           -0.622356690955     0.574803142641     4.559925561066     1.007825032230
         H           -0.398586690955     0.516193142641     2.828405561066     1.007825032230
         C            0.105173309045    -1.314766857359     3.837945561066    12.000000000000
         H            0.528783309045    -1.617196857359     4.798585561066     1.007825032230
         H            0.796693309045    -1.676646857359     3.073445561066     1.007825032230
         C           -1.264106690955    -1.956636857359     3.654175561066    12.000000000000
         H           -1.702486690955    -1.683176857359     2.693985561066     1.007825032230
         H           -1.207166690955    -3.043406857359     3.698225561066     1.007825032230
         H           -1.952066690955    -1.628286857359     4.433405561066     1.007825032230

  Charge       = 0
  Multiplicity = 1
  Basis Set: AUG-CC-PVDZ
    Blend: AUG-CC-PVDZ
  Basis Set: (AUG-CC-PVDZ AUX)
    Blend: AUG-CC-PVDZ-JKFIT

    Orbital Energies [Eh]
    ---------------------

    Doubly Occupied:

       1A    -11.218416     2A    -11.218328     3A    -11.215747
       4A    -11.214182     5A    -11.214167     6A     -1.082428
       7A     -1.016373     8A     -0.919807     9A     -0.820760
      10A     -0.785806    11A     -0.646189    12A     -0.598022
      13A     -0.591659    14A     -0.553897    15A     -0.546791
      16A     -0.524080    17A     -0.494518    18A     -0.474512
      19A     -0.461842    20A     -0.457653    21A     -0.445838

  @DF-RHF Final Energy:  -196.35375641599381

   => Energetics <=

    Nuclear Repulsion Energy =            185.6166156986717510
    One-Electron Energy =                -630.9387152563965628
    Two-Electron Energy =                 248.9683431417309976
    Total Energy =                       -196.3537564159938142

  Dipole Moment: [D]
     X:     0.0684      Y:    -0.0450      Z:     0.0215     Total:     0.0847

    SAPT Results
  --------------------------------------------------------------------------------------------------------
    Electrostatics                 -0.00783570 [mEh]      -0.00491698 [kcal/mol]      -0.02057263 [kJ/mol]
      Elst10,r                     -0.00522654 [mEh]      -0.00327970 [kcal/mol]      -0.01372228 [kJ/mol]
      Elst12,r                     -0.00260916 [mEh]      -0.00163727 [kcal/mol]      -0.00685035 [kJ/mol]

    Exchange                        0.00141797 [mEh]       0.00088979 [kcal/mol]       0.00372287 [kJ/mol]
      Exch10                        0.00110526 [mEh]       0.00069356 [kcal/mol]       0.00290186 [kJ/mol]
      Exch10(S^2)                   0.00110526 [mEh]       0.00069356 [kcal/mol]       0.00290186 [kJ/mol]
      Exch11(S^2)                  -0.00006140 [mEh]      -0.00003853 [kcal/mol]      -0.00016122 [kJ/mol]
      Exch12(S^2)                   0.00037411 [mEh]       0.00023476 [kcal/mol]       0.00098223 [kJ/mol]

    Induction                      -0.02059167 [mEh]      -0.01292147 [kcal/mol]      -0.05406343 [kJ/mol]
      Ind20,r                      -0.02804897 [mEh]      -0.01760099 [kcal/mol]      -0.07364256 [kJ/mol]
      Ind22                         0.00714811 [mEh]       0.00448550 [kcal/mol]       0.01876735 [kJ/mol]
      Exch-Ind20,r                  0.00039106 [mEh]       0.00024539 [kcal/mol]       0.00102672 [kJ/mol]
      Exch-Ind22                   -0.00009966 [mEh]      -0.00006254 [kcal/mol]      -0.00026165 [kJ/mol]
      delta HF,r (2)                0.00001779 [mEh]       0.00001117 [kcal/mol]       0.00004672 [kJ/mol]

    Dispersion                     -0.52031631 [mEh]      -0.32650341 [kcal/mol]      -1.36609028 [kJ/mol]
      Disp20                       -0.54052019 [mEh]      -0.33918154 [kcal/mol]      -1.41913558 [kJ/mol]
      Disp21                        0.13572731 [mEh]       0.08517017 [kcal/mol]       0.35635201 [kJ/mol]
      Disp22 (SDQ)                 -0.01506565 [mEh]      -0.00945384 [kcal/mol]      -0.03955485 [kJ/mol]
      Disp22 (T)                   -0.09966578 [mEh]      -0.06254122 [kcal/mol]      -0.26167247 [kJ/mol]
      Est. Disp22 (T)              -0.10076383 [mEh]      -0.06323026 [kcal/mol]      -0.26455540 [kJ/mol]
      Exch-Disp20                   0.00030605 [mEh]       0.00019205 [kcal/mol]       0.00080354 [kJ/mol]

  Total HF                         -0.03176140 [mEh]      -0.01993058 [kcal/mol]      -0.08338954 [kJ/mol]
  Total SAPT0                      -0.57197554 [mEh]      -0.35892007 [kcal/mol]      -1.50172158 [kJ/mol]
  Total SAPT2                      -0.56722355 [mEh]      -0.35593815 [kcal/mol]      -1.48924523 [kJ/mol]
  Total SAPT2+                     -0.54732572 [mEh]      -0.34345207 [kcal/mol]      -1.43700347 [kJ/mol]

  Special recipe for scaled SAPT0 (see Manual):
    Electrostatics sSAPT0          -0.00522654 [mEh]      -0.00327970 [kcal/mol]      -0.01372228 [kJ/mol]
    Exchange sSAPT0                 0.00110526 [mEh]       0.00069356 [kcal/mol]       0.00290186 [kJ/mol]
    Induction sSAPT0               -0.02764012 [mEh]      -0.01734444 [kcal/mol]      -0.07256912 [kJ/mol]
    Dispersion sSAPT0              -0.54021414 [mEh]      -0.33898949 [kcal/mol]      -1.41833204 [kJ/mol]
  Total sSAPT0                     -0.57197554 [mEh]      -0.35892007 [kcal/mol]      -1.50172158 [kJ/mol]
  --------------------------------------------------------------------------------------------------------

*** Psi4 exiting successfully. Buy a developer a beer!
