                               Psi4 1.4a2.dev224

  ==> Input File <==

--------------------------------------------------------------------------
#Generated by lconvert.py for sapt job

memory 20 GB

molecule  {
0 1
  N      -0.208910   -0.964580    0.534760
  H      -0.224150   -1.973110    0.605080
  C      -1.446340   -0.344580    0.306660
  O      -2.461240   -1.010790    0.197890
  C      -1.357780    1.103190    0.228140
  H      -2.256570    1.667730    0.049850
  C      -0.163000    1.709890    0.381130
  H      -0.046290    2.782450    0.333350
  N       0.985450    1.000820    0.611210
  H       1.867560    1.466930    0.744780
  C       1.027020   -0.379170    0.712650
  O       2.049200   -0.997400    0.937260
--
0 1
  C       1.221020    2.367360    5.004140
  H       0.790170    2.678410    4.051360
  H       0.586790    2.772800    5.792390
  H       2.203900    2.827810    5.097260
  C       1.294040    0.848490    5.093660
  H       1.724420    0.558930    6.054950
  H       1.968630    0.457330    4.328540
  C      -0.070750    0.190320    4.938840
  H      -0.741990    0.559200    5.720460
  H      -0.518220    0.500590    3.988940
  C      -0.014460   -1.330360    4.998480
  H       0.409140   -1.632790    5.959120
  H       0.677060   -1.692240    4.233980
  C      -1.383740   -1.972230    4.814710
  H      -1.822120   -1.698780    3.854520
  H      -1.326810   -3.059000    4.858760
  H      -2.071710   -1.643890    5.593940
units angstrom
no_reorient
symmetry c1
}

set {
scf_type DF
basis aug-cc-pvdz
freeze_core True
guess SAD
}
energy('sapt2+')
--------------------------------------------------------------------------

  //              Dimer HF             //
    Molecular point group: c1
  Charge       = 0
  Multiplicity = 1
  Basis Set: AUG-CC-PVDZ
    Blend: AUG-CC-PVDZ
  Basis Set: (AUG-CC-PVDZ AUX)
    Blend: AUG-CC-PVDZ-JKFIT
  @DF-RHF Final Energy:  -608.88410731784631
    Total Energy =                       -608.8841073178463148
  //            Monomer A HF           //
    Molecular point group: c1
  Multiplicity = 1
  Basis Set: AUG-CC-PVDZ
    Blend: AUG-CC-PVDZ
  Basis Set: (AUG-CC-PVDZ AUX)
    Blend: AUG-CC-PVDZ-JKFIT
  @DF-RHF Final Energy:  -412.53018566841831
    Total Energy =                       -412.5301856684183122
  //            Monomer B HF           //
    Molecular point group: c1

    Geometry (in Angstrom), charge = 0, multiplicity = 1:

       Center              X                  Y                   Z               Mass
    ------------   -----------------  -----------------  -----------------  -----------------
      Gh(N)          -0.180585596782    -0.960830907942    -1.712082832055    14.003074004430
      Gh(H)          -0.195825596782    -1.969360907942    -1.641762832055     1.007825032230
      Gh(C)          -1.418015596782    -0.340830907942    -1.940182832055    12.000000000000
      Gh(O)          -2.432915596782    -1.007040907942    -2.048952832055    15.994914619570
      Gh(C)          -1.329455596782     1.106939092058    -2.018702832055    12.000000000000
      Gh(H)          -2.228245596782     1.671479092058    -2.196992832055     1.007825032230
      Gh(C)          -0.134675596782     1.713639092058    -1.865712832055    12.000000000000
      Gh(H)          -0.017965596782     2.786199092058    -1.913492832055     1.007825032230
      Gh(N)           1.013774403218     1.004569092058    -1.635632832055    14.003074004430
      Gh(H)           1.895884403218     1.470679092058    -1.502062832055     1.007825032230
      Gh(C)           1.055344403218    -0.375420907942    -1.534192832055    12.000000000000
      Gh(O)           2.077524403218    -0.993650907942    -1.309582832055    15.994914619570
         C            1.249344403218     2.371109092058     2.757297167945    12.000000000000
         H            0.818494403218     2.682159092058     1.804517167945     1.007825032230
         H            0.615114403218     2.776549092058     3.545547167945     1.007825032230
         H            2.232224403218     2.831559092058     2.850417167945     1.007825032230
         C            1.322364403218     0.852239092058     2.846817167945    12.000000000000
         H            1.752744403218     0.562679092058     3.808107167945     1.007825032230
         H            1.996954403218     0.461079092058     2.081697167945     1.007825032230
         C           -0.042425596782     0.194069092058     2.691997167945    12.000000000000
         H           -0.713665596782     0.562949092058     3.473617167945     1.007825032230
         H           -0.489895596782     0.504339092058     1.742097167945     1.007825032230
         C            0.013864403218    -1.326610907942     2.751637167945    12.000000000000
         H            0.437464403218    -1.629040907942     3.712277167945     1.007825032230
         H            0.705384403218    -1.688490907942     1.987137167945     1.007825032230
         C           -1.355415596782    -1.968480907942     2.567867167945    12.000000000000
         H           -1.793795596782    -1.695030907942     1.607677167945     1.007825032230
         H           -1.298485596782    -3.055250907942     2.611917167945     1.007825032230
         H           -2.043385596782    -1.640140907942     3.347097167945     1.007825032230

  Charge       = 0
  Multiplicity = 1
  Basis Set: AUG-CC-PVDZ
    Blend: AUG-CC-PVDZ
  Basis Set: (AUG-CC-PVDZ AUX)
    Blend: AUG-CC-PVDZ-JKFIT

    Orbital Energies [Eh]
    ---------------------

    Doubly Occupied:

       1A    -11.218380     2A    -11.218292     3A    -11.215716
       4A    -11.214130     5A    -11.214121     6A     -1.082424
       7A     -1.016369     8A     -0.919802     9A     -0.820754
      10A     -0.785801    11A     -0.646208    12A     -0.598018
      13A     -0.591657    14A     -0.553898    15A     -0.546788
      16A     -0.524074    17A     -0.494516    18A     -0.474509
      19A     -0.461853    20A     -0.457649    21A     -0.445832

  @DF-RHF Final Energy:  -196.35395700412371

   => Energetics <=

    Nuclear Repulsion Energy =            185.6168223407991036
    One-Electron Energy =                -630.9399773879431450
    Two-Electron Energy =                 248.9691980430203273
    Total Energy =                       -196.3539570041237141

  Dipole Moment: [D]
     X:     0.0686      Y:    -0.0451      Z:     0.0224     Total:     0.0851

    SAPT Results
  --------------------------------------------------------------------------------------------------------
    Electrostatics                 -0.30920636 [mEh]      -0.19402992 [kcal/mol]      -0.81182118 [kJ/mol]
      Elst10,r                     -0.25116572 [mEh]      -0.15760887 [kcal/mol]      -0.65943550 [kJ/mol]
      Elst12,r                     -0.05804064 [mEh]      -0.03642105 [kcal/mol]      -0.15238568 [kJ/mol]

    Exchange                        0.59352205 [mEh]       0.37244071 [kcal/mol]       1.55829193 [kJ/mol]
      Exch10                        0.48264887 [mEh]       0.30286674 [kcal/mol]       1.26719443 [kJ/mol]
      Exch10(S^2)                   0.48262657 [mEh]       0.30285274 [kcal/mol]       1.26713588 [kJ/mol]
      Exch11(S^2)                  -0.00323499 [mEh]      -0.00202998 [kcal/mol]      -0.00849345 [kJ/mol]
      Exch12(S^2)                   0.11410817 [mEh]       0.07160396 [kcal/mol]       0.29959095 [kJ/mol]

    Induction                      -0.18253652 [mEh]      -0.11454339 [kcal/mol]      -0.47924956 [kJ/mol]
      Ind20,r                      -0.26557903 [mEh]      -0.16665336 [kcal/mol]      -0.69727765 [kJ/mol]
      Ind22                         0.02092965 [mEh]       0.01313355 [kcal/mol]       0.05495078 [kJ/mol]
      Exch-Ind20,r                  0.09310910 [mEh]       0.05842684 [kcal/mol]       0.24445792 [kJ/mol]
      Exch-Ind22                   -0.00733771 [mEh]      -0.00460448 [kcal/mol]      -0.01926514 [kJ/mol]
      delta HF,r (2)               -0.02365853 [mEh]      -0.01484595 [kcal/mol]      -0.06211547 [kJ/mol]

    Dispersion                     -3.77022215 [mEh]      -2.36585012 [kcal/mol]      -9.89871690 [kJ/mol]
      Disp20                       -3.83734593 [mEh]      -2.40797093 [kcal/mol]     -10.07495036 [kJ/mol]
      Disp21                        0.80090781 [mEh]       0.50257724 [kcal/mol]       2.10278315 [kJ/mol]
      Disp22 (SDQ)                 -0.11470301 [mEh]      -0.07197722 [kcal/mol]      -0.30115270 [kJ/mol]
      Disp22 (T)                   -0.67567206 [mEh]      -0.42399062 [kcal/mol]      -1.77397676 [kJ/mol]
      Est. Disp22 (T)              -0.70322405 [mEh]      -0.44127975 [kcal/mol]      -1.84631448 [kJ/mol]
      Exch-Disp20                   0.08414303 [mEh]       0.05280055 [kcal/mol]       0.22091749 [kJ/mol]

  Total HF                          0.03535470 [mEh]       0.02218541 [kcal/mol]       0.09282374 [kJ/mol]
  Total SAPT0                      -3.71784821 [mEh]      -2.33298497 [kcal/mol]      -9.76120913 [kJ/mol]
  Total SAPT2                      -3.65142373 [mEh]      -2.29130298 [kcal/mol]      -9.58681167 [kJ/mol]
  Total SAPT2+                     -3.66844297 [mEh]      -2.30198272 [kcal/mol]      -9.63149570 [kJ/mol]

  Special recipe for scaled SAPT0 (see Manual):
    Electrostatics sSAPT0          -0.25116572 [mEh]      -0.15760887 [kcal/mol]      -0.65943550 [kJ/mol]
    Exchange sSAPT0                 0.48264887 [mEh]       0.30286674 [kcal/mol]       1.26719443 [kJ/mol]
    Induction sSAPT0               -0.19611555 [mEh]      -0.12306437 [kcal/mol]      -0.51490130 [kJ/mol]
    Dispersion sSAPT0              -3.75319124 [mEh]      -2.35516306 [kcal/mol]      -9.85400224 [kJ/mol]
  Total sSAPT0                     -3.71782364 [mEh]      -2.33296955 [kcal/mol]      -9.76114461 [kJ/mol]
  --------------------------------------------------------------------------------------------------------

*** Psi4 exiting successfully. Buy a developer a beer!
