                               Psi4 1.4a2.dev224

  ==> Input File <==

--------------------------------------------------------------------------
#Generated by lconvert.py for sapt job

memory 20 GB

molecule  {
0 1
  N      -0.208910   -0.964580    0.534760
  H      -0.224150   -1.973110    0.605080
  C      -1.446340   -0.344580    0.306660
  O      -2.461240   -1.010790    0.197890
  C      -1.357780    1.103190    0.228140
  H      -2.256570    1.667730    0.049850
  C      -0.163000    1.709890    0.381130
  H      -0.046290    2.782450    0.333350
  N       0.985450    1.000820    0.611210
  H       1.867560    1.466930    0.744780
  C       1.027020   -0.379170    0.712650
  O       2.049200   -0.997400    0.937260
--
0 1
  C       1.296050    2.377100    5.896840
  H       0.865210    2.688150    4.944050
  H       0.661820    2.782530    6.685080
  H       2.278940    2.837550    5.989960
  C       1.369070    0.858230    5.986360
  H       1.799460    0.568670    6.947650
  H       2.043660    0.467070    5.221240
  C       0.004290    0.200060    5.831540
  H      -0.666960    0.568940    6.613160
  H      -0.443180    0.510330    4.881640
  C       0.060570   -1.320620    5.891170
  H       0.484180   -1.623050    6.851810
  H       0.752100   -1.682500    5.126670
  C      -1.308710   -1.962500    5.707400
  H      -1.747090   -1.689040    4.747210
  H      -1.251770   -3.049270    5.751460
  H      -1.996670   -1.634150    6.486630
units angstrom
no_reorient
symmetry c1
}

set {
scf_type DF
basis aug-cc-pvdz
freeze_core True
guess SAD
}
energy('sapt2+')
--------------------------------------------------------------------------

  //              Dimer HF             //
    Molecular point group: c1
  Charge       = 0
  Multiplicity = 1
  Basis Set: AUG-CC-PVDZ
    Blend: AUG-CC-PVDZ
  Basis Set: (AUG-CC-PVDZ AUX)
    Blend: AUG-CC-PVDZ-JKFIT
  @DF-RHF Final Energy:  -608.88374511482914
    Total Energy =                       -608.8837451148291393
  //            Monomer A HF           //
    Molecular point group: c1
  Multiplicity = 1
  Basis Set: AUG-CC-PVDZ
    Blend: AUG-CC-PVDZ
  Basis Set: (AUG-CC-PVDZ AUX)
    Blend: AUG-CC-PVDZ-JKFIT
  @DF-RHF Final Energy:  -412.52985586313554
    Total Energy =                       -412.5298558631355377
  //            Monomer B HF           //
    Molecular point group: c1

    Geometry (in Angstrom), charge = 0, multiplicity = 1:

       Center              X                  Y                   Z               Mass
    ------------   -----------------  -----------------  -----------------  -----------------
      Gh(N)          -0.209965193620    -0.964643910019    -2.061623961367    14.003074004430
      Gh(H)          -0.225205193620    -1.973173910019    -1.991303961367     1.007825032230
      Gh(C)          -1.447395193620    -0.344643910019    -2.289723961367    12.000000000000
      Gh(O)          -2.462295193620    -1.010853910019    -2.398493961367    15.994914619570
      Gh(C)          -1.358835193620     1.103126089981    -2.368243961367    12.000000000000
      Gh(H)          -2.257625193620     1.667666089981    -2.546533961367     1.007825032230
      Gh(C)          -0.164055193620     1.709826089981    -2.215253961367    12.000000000000
      Gh(H)          -0.047345193620     2.782386089981    -2.263033961367     1.007825032230
      Gh(N)           0.984394806380     1.000756089981    -1.985173961367    14.003074004430
      Gh(H)           1.866504806380     1.466866089981    -1.851603961367     1.007825032230
      Gh(C)           1.025964806380    -0.379233910019    -1.883733961367    12.000000000000
      Gh(O)           2.048144806380    -0.997463910019    -1.659123961367    15.994914619570
         C            1.294994806380     2.377036089981     3.300456038633    12.000000000000
         H            0.864154806380     2.688086089981     2.347666038633     1.007825032230
         H            0.660764806380     2.782466089981     4.088696038633     1.007825032230
         H            2.277884806380     2.837486089981     3.393576038633     1.007825032230
         C            1.368014806380     0.858166089981     3.389976038633    12.000000000000
         H            1.798404806380     0.568606089981     4.351266038633     1.007825032230
         H            2.042604806380     0.467006089981     2.624856038633     1.007825032230
         C            0.003234806380     0.199996089981     3.235156038633    12.000000000000
         H           -0.668015193620     0.568876089981     4.016776038633     1.007825032230
         H           -0.444235193620     0.510266089981     2.285256038633     1.007825032230
         C            0.059514806380    -1.320683910019     3.294786038633    12.000000000000
         H            0.483124806380    -1.623113910019     4.255426038633     1.007825032230
         H            0.751044806380    -1.682563910019     2.530286038633     1.007825032230
         C           -1.309765193620    -1.962563910019     3.111016038633    12.000000000000
         H           -1.748145193620    -1.689103910019     2.150826038633     1.007825032230
         H           -1.252825193620    -3.049333910019     3.155076038633     1.007825032230
         H           -1.997725193620    -1.634213910019     3.890246038633     1.007825032230

  Charge       = 0
  Multiplicity = 1
  Basis Set: AUG-CC-PVDZ
    Blend: AUG-CC-PVDZ
  Basis Set: (AUG-CC-PVDZ AUX)
    Blend: AUG-CC-PVDZ-JKFIT

    Orbital Energies [Eh]
    ---------------------

    Doubly Occupied:

       1A    -11.218407     2A    -11.218319     3A    -11.215729
       4A    -11.214168     5A    -11.214154     6A     -1.082427
       7A     -1.016371     8A     -0.919805     9A     -0.820757
      10A     -0.785801    11A     -0.646197    12A     -0.598020
      13A     -0.591657    14A     -0.553898    15A     -0.546788
      16A     -0.524077    17A     -0.494516    18A     -0.474509
      19A     -0.461843    20A     -0.457647    21A     -0.445838

  @DF-RHF Final Energy:  -196.35381611494418

   => Energetics <=

    Nuclear Repulsion Energy =            185.6167518104705323
    One-Electron Energy =                -630.9392819258220015
    Two-Electron Energy =                 248.9687140004072887
    Total Energy =                       -196.3538161149441805

  Dipole Moment: [D]
     X:     0.0685      Y:    -0.0450      Z:     0.0219     Total:     0.0848

    SAPT Results
  --------------------------------------------------------------------------------------------------------
    Electrostatics                 -0.03686130 [mEh]      -0.02313082 [kcal/mol]      -0.09677933 [kJ/mol]
      Elst10,r                     -0.03127019 [mEh]      -0.01962234 [kcal/mol]      -0.08209988 [kJ/mol]
      Elst12,r                     -0.00559111 [mEh]      -0.00350847 [kcal/mol]      -0.01467945 [kJ/mol]

    Exchange                        0.02948105 [mEh]       0.01849964 [kcal/mol]       0.07740250 [kJ/mol]
      Exch10                        0.02279765 [mEh]       0.01430574 [kcal/mol]       0.05985522 [kJ/mol]
      Exch10(S^2)                   0.02279766 [mEh]       0.01430575 [kcal/mol]       0.05985524 [kJ/mol]
      Exch11(S^2)                  -0.00065695 [mEh]      -0.00041224 [kcal/mol]      -0.00172483 [kJ/mol]
      Exch12(S^2)                   0.00734036 [mEh]       0.00460614 [kcal/mol]       0.01927211 [kJ/mol]

    Induction                      -0.04970217 [mEh]      -0.03118858 [kcal/mol]      -0.13049303 [kJ/mol]
      Ind20,r                      -0.06713358 [mEh]      -0.04212696 [kcal/mol]      -0.17625919 [kJ/mol]
      Ind22                         0.01597299 [mEh]       0.01002320 [kcal/mol]       0.04193709 [kJ/mol]
      Exch-Ind20,r                  0.00424900 [mEh]       0.00266629 [kcal/mol]       0.01115575 [kJ/mol]
      Exch-Ind22                   -0.00101096 [mEh]      -0.00063439 [kcal/mol]      -0.00265427 [kJ/mol]
      delta HF,r (2)               -0.00177962 [mEh]      -0.00111673 [kcal/mol]      -0.00467240 [kJ/mol]

    Dispersion                     -1.28686359 [mEh]      -0.80751910 [kcal/mol]      -3.37865989 [kJ/mol]
      Disp20                       -1.31909331 [mEh]      -0.82774355 [kcal/mol]      -3.46327901 [kJ/mol]
      Disp21                        0.31022262 [mEh]       0.19466763 [kcal/mol]       0.81448938 [kJ/mol]
      Disp22 (SDQ)                 -0.03863005 [mEh]      -0.02424072 [kcal/mol]      -0.10142317 [kJ/mol]
      Disp22 (T)                   -0.23904854 [mEh]      -0.15000522 [kcal/mol]      -0.62762185 [kJ/mol]
      Est. Disp22 (T)              -0.24455034 [mEh]      -0.15345766 [kcal/mol]      -0.64206683 [kJ/mol]
      Exch-Disp20                   0.00518748 [mEh]       0.00325520 [kcal/mol]       0.01361974 [kJ/mol]

  Total HF                         -0.07313675 [mEh]      -0.04589400 [kcal/mol]      -0.19202051 [kJ/mol]
  Total SAPT0                      -1.38704258 [mEh]      -0.87038236 [kcal/mol]      -3.64167978 [kJ/mol]
  Total SAPT2                      -1.37098825 [mEh]      -0.86030811 [kcal/mol]      -3.59952914 [kJ/mol]
  Total SAPT2+                     -1.34394601 [mEh]      -0.84333885 [kcal/mol]      -3.52852976 [kJ/mol]

  Special recipe for scaled SAPT0 (see Manual):
    Electrostatics sSAPT0          -0.03127019 [mEh]      -0.01962234 [kcal/mol]      -0.08209988 [kJ/mol]
    Exchange sSAPT0                 0.02279765 [mEh]       0.01430574 [kcal/mol]       0.05985522 [kJ/mol]
    Induction sSAPT0               -0.06466421 [mEh]      -0.04057740 [kcal/mol]      -0.16977586 [kJ/mol]
    Dispersion sSAPT0              -1.31390583 [mEh]      -0.82448836 [kcal/mol]      -3.44965929 [kJ/mol]
  Total sSAPT0                     -1.38704259 [mEh]      -0.87038236 [kcal/mol]      -3.64167981 [kJ/mol]
  --------------------------------------------------------------------------------------------------------

*** Psi4 exiting successfully. Buy a developer a beer!
