                               Psi4 1.4a2.dev224

  ==> Input File <==

--------------------------------------------------------------------------
#Generated by lconvert.py for sapt job

memory 20 GB

molecule  {
0 1
  N       0.195730   -0.844690    0.823850
  H       0.450400   -1.796750    1.049770
  C      -1.179050   -0.573680    0.759480
  O      -1.993650   -1.456260    0.966900
  C      -1.476710    0.811160    0.437560
  H      -2.506360    1.115650    0.363900
  C      -0.468110    1.682960    0.234890
  H      -0.638430    2.721640   -0.006160
  N       0.845630    1.305990    0.326830
  H       1.589690    1.968880    0.185960
  C       1.254260    0.019460    0.636240
  O       2.422300   -0.301720    0.731880
--
0 1
  C       1.084790   -0.878800    5.309420
  H       1.538640   -0.970860    4.321440
  H       1.629290   -1.542780    5.978620
  C       1.139100    0.587150    5.742360
  H       2.097390    1.060050    5.531630
  H       0.950980    0.668790    6.815580
  C      -0.028250    1.199960    4.971590
  H       0.246050    1.288750    3.918110
  H      -0.312670    2.191110    5.323220
  C      -1.145190    0.162390    5.142610
  H      -1.870740    0.186010    4.331240
  H      -1.689280    0.367090    6.064860
  C      -0.422160   -1.204160    5.246270
  H      -0.664820   -1.848310    4.402910
  H      -0.737260   -1.731560    6.145360
units angstrom
no_reorient
symmetry c1
}

set {
scf_type DF
basis aug-cc-pvdz
freeze_core True
guess SAD
}
energy('sapt2+')
--------------------------------------------------------------------------

  //              Dimer HF             //
    Molecular point group: c1
  Charge       = 0
  Multiplicity = 1
  Basis Set: AUG-CC-PVDZ
    Blend: AUG-CC-PVDZ
  Basis Set: (AUG-CC-PVDZ AUX)
    Blend: AUG-CC-PVDZ-JKFIT
  @DF-RHF Final Energy:  -607.71370593600284
    Total Energy =                       -607.7137059360028388
  //            Monomer A HF           //
    Molecular point group: c1
  Multiplicity = 1
  Basis Set: AUG-CC-PVDZ
    Blend: AUG-CC-PVDZ
  Basis Set: (AUG-CC-PVDZ AUX)
    Blend: AUG-CC-PVDZ-JKFIT
  @DF-RHF Final Energy:  -412.53013944800398
    Total Energy =                       -412.5301394480039789
  //            Monomer B HF           //
    Molecular point group: c1

    Geometry (in Angstrom), charge = 0, multiplicity = 1:

       Center              X                  Y                   Z               Mass
    ------------   -----------------  -----------------  -----------------  -----------------
      Gh(N)           0.159343680928    -0.865143229958    -1.591794777278    14.003074004430
      Gh(H)           0.414013680928    -1.817203229958    -1.365874777278     1.007825032230
      Gh(C)          -1.215436319072    -0.594133229958    -1.656164777278    12.000000000000
      Gh(O)          -2.030036319072    -1.476713229958    -1.448744777278    15.994914619570
      Gh(C)          -1.513096319072     0.790706770042    -1.978084777278    12.000000000000
      Gh(H)          -2.542746319072     1.095196770042    -2.051744777278     1.007825032230
      Gh(C)          -0.504496319072     1.662506770042    -2.180754777278    12.000000000000
      Gh(H)          -0.674816319072     2.701186770042    -2.421804777278     1.007825032230
      Gh(N)           0.809243680928     1.285536770042    -2.088814777278    14.003074004430
      Gh(H)           1.553303680928     1.948426770042    -2.229684777278     1.007825032230
      Gh(C)           1.217873680928    -0.000993229958    -1.779404777278    12.000000000000
      Gh(O)           2.385913680928    -0.322173229958    -1.683764777278    15.994914619570
         C            1.048403680928    -0.899253229958     2.893775222722    12.000000000000
         H            1.502253680928    -0.991313229958     1.905795222722     1.007825032230
         H            1.592903680928    -1.563233229958     3.562975222722     1.007825032230
         C            1.102713680928     0.566696770042     3.326715222722    12.000000000000
         H            2.061003680928     1.039596770042     3.115985222722     1.007825032230
         H            0.914593680928     0.648336770042     4.399935222722     1.007825032230
         C           -0.064636319072     1.179506770042     2.555945222722    12.000000000000
         H            0.209663680928     1.268296770042     1.502465222722     1.007825032230
         H           -0.349056319072     2.170656770042     2.907575222722     1.007825032230
         C           -1.181576319072     0.141936770042     2.726965222722    12.000000000000
         H           -1.907126319072     0.165556770042     1.915595222722     1.007825032230
         H           -1.725666319072     0.346636770042     3.649215222722     1.007825032230
         C           -0.458546319072    -1.224613229958     2.830625222722    12.000000000000
         H           -0.701206319072    -1.868763229958     1.987265222722     1.007825032230
         H           -0.773646319072    -1.752013229958     3.729715222722     1.007825032230

  Charge       = 0
  Multiplicity = 1
  Basis Set: AUG-CC-PVDZ
    Blend: AUG-CC-PVDZ
  Basis Set: (AUG-CC-PVDZ AUX)
    Blend: AUG-CC-PVDZ-JKFIT

    Orbital Energies [Eh]
    ---------------------

    Doubly Occupied:

       1A    -11.215930     2A    -11.215547     3A    -11.215516
       4A    -11.214911     5A    -11.214810     6A     -1.117556
       7A     -0.957710     8A     -0.957100     9A     -0.777130
      10A     -0.767867    11A     -0.649401    12A     -0.644318
      13A     -0.568833    14A     -0.566932    15A     -0.474637
      16A     -0.473799    17A     -0.462942    18A     -0.459062
      19A     -0.458772    20A     -0.447543

  @DF-RHF Final Energy:  -195.18369114454671

   => Energetics <=

    Nuclear Repulsion Energy =            188.3373013098952526
    One-Electron Energy =                -635.3213539756117143
    Two-Electron Energy =                 251.8003615211697763
    Total Energy =                       -195.1836911445467138

  Dipole Moment: [D]
     X:     0.0105      Y:     0.0108      Z:     0.0053     Total:     0.0159

    SAPT Results
  --------------------------------------------------------------------------------------------------------
    Electrostatics                 -0.25809334 [mEh]      -0.16195602 [kcal/mol]      -0.67762398 [kJ/mol]
      Elst10,r                     -0.18750080 [mEh]      -0.11765853 [kcal/mol]      -0.49228328 [kJ/mol]
      Elst12,r                     -0.07059255 [mEh]      -0.04429749 [kcal/mol]      -0.18534070 [kJ/mol]

    Exchange                        0.54097084 [mEh]       0.33946433 [kcal/mol]       1.42031875 [kJ/mol]
      Exch10                        0.44039909 [mEh]       0.27635460 [kcal/mol]       1.15626764 [kJ/mol]
      Exch10(S^2)                   0.44036448 [mEh]       0.27633288 [kcal/mol]       1.15617678 [kJ/mol]
      Exch11(S^2)                  -0.00262903 [mEh]      -0.00164974 [kcal/mol]      -0.00690252 [kJ/mol]
      Exch12(S^2)                   0.10320079 [mEh]       0.06475947 [kcal/mol]       0.27095363 [kJ/mol]

    Induction                      -0.12414856 [mEh]      -0.07790440 [kcal/mol]      -0.32595201 [kJ/mol]
      Ind20,r                      -0.19675607 [mEh]      -0.12346630 [kcal/mol]      -0.51658298 [kJ/mol]
      Ind22                         0.00755985 [mEh]       0.00474388 [kcal/mol]       0.01984839 [kJ/mol]
      Exch-Ind20,r                  0.09022519 [mEh]       0.05661716 [kcal/mol]       0.23688621 [kJ/mol]
      Exch-Ind22                   -0.00346667 [mEh]      -0.00217537 [kcal/mol]      -0.00910175 [kJ/mol]
      delta HF,r (2)               -0.02171087 [mEh]      -0.01362378 [kcal/mol]      -0.05700188 [kJ/mol]

    Dispersion                     -3.43456058 [mEh]      -2.15521930 [kcal/mol]      -9.01743757 [kJ/mol]
      Disp20                       -3.49825371 [mEh]      -2.19518734 [kcal/mol]      -9.18466384 [kJ/mol]
      Disp21                        0.75330757 [mEh]       0.47270764 [kcal/mol]       1.97780875 [kJ/mol]
      Disp22 (SDQ)                 -0.11515904 [mEh]      -0.07226339 [kcal/mol]      -0.30235001 [kJ/mol]
      Disp22 (T)                   -0.62686012 [mEh]      -0.39336067 [kcal/mol]      -1.64582102 [kJ/mol]
      Est. Disp22 (T)              -0.65306911 [mEh]      -0.40980706 [kcal/mol]      -1.71463272 [kJ/mol]
      Exch-Disp20                   0.07861371 [mEh]       0.04933085 [kcal/mol]       0.20640026 [kJ/mol]

  Total HF                          0.12465655 [mEh]       0.07822316 [kcal/mol]       0.32728572 [kJ/mol]
  Total SAPT0                      -3.29498345 [mEh]      -2.06763333 [kcal/mol]      -8.65097786 [kJ/mol]
  Total SAPT2                      -3.26091106 [mEh]      -2.04625259 [kcal/mol]      -8.56152082 [kJ/mol]
  Total SAPT2+                     -3.27583165 [mEh]      -2.05561539 [kcal/mol]      -8.60069480 [kJ/mol]

  Special recipe for scaled SAPT0 (see Manual):
    Electrostatics sSAPT0          -0.18750080 [mEh]      -0.11765853 [kcal/mol]      -0.49228328 [kJ/mol]
    Exchange sSAPT0                 0.44039909 [mEh]       0.27635460 [kcal/mol]       1.15626764 [kJ/mol]
    Induction sSAPT0               -0.12822047 [mEh]      -0.08045956 [kcal/mol]      -0.33664279 [kJ/mol]
    Dispersion sSAPT0              -3.41962146 [mEh]      -2.14584486 [kcal/mol]      -8.97821491 [kJ/mol]
  Total sSAPT0                     -3.29494364 [mEh]      -2.06760835 [kcal/mol]      -8.65087334 [kJ/mol]
  --------------------------------------------------------------------------------------------------------

*** Psi4 exiting successfully. Buy a developer a beer!
