                               Psi4 1.4a2.dev224

  ==> Input File <==

--------------------------------------------------------------------------
#Generated by lconvert.py for sapt job

memory 20 GB

molecule  {
0 1
  N       0.195730   -0.844690    0.823850
  H       0.450400   -1.796750    1.049770
  C      -1.179050   -0.573680    0.759480
  O      -1.993650   -1.456260    0.966900
  C      -1.476710    0.811160    0.437560
  H      -2.506360    1.115650    0.363900
  C      -0.468110    1.682960    0.234890
  H      -0.638430    2.721640   -0.006160
  N       0.845630    1.305990    0.326830
  H       1.589690    1.968880    0.185960
  C       1.254260    0.019460    0.636240
  O       2.422300   -0.301720    0.731880
--
0 1
  C       1.138520   -0.908080    7.053170
  H       1.592380   -1.000140    6.065190
  H       1.683030   -1.572060    7.722370
  C       1.192840    0.557870    7.486110
  H       2.151130    1.030770    7.275380
  H       1.004720    0.639510    8.559330
  C       0.025490    1.170680    6.715330
  H       0.299790    1.259470    5.661860
  H      -0.258930    2.161830    7.066970
  C      -1.091460    0.133110    6.886360
  H      -1.817000    0.156730    6.074990
  H      -1.635550    0.337810    7.808610
  C      -0.368420   -1.233440    6.990020
  H      -0.611090   -1.877590    6.146660
  H      -0.683530   -1.760840    7.889110
units angstrom
no_reorient
symmetry c1
}

set {
scf_type DF
basis aug-cc-pvdz
freeze_core True
guess SAD
}
energy('sapt2+')
--------------------------------------------------------------------------

  //              Dimer HF             //
    Molecular point group: c1
  Charge       = 0
  Multiplicity = 1
  Basis Set: AUG-CC-PVDZ
    Blend: AUG-CC-PVDZ
  Basis Set: (AUG-CC-PVDZ AUX)
    Blend: AUG-CC-PVDZ-JKFIT
  @DF-RHF Final Energy:  -607.71331234284480
    Total Energy =                       -607.7133123428448016
  //            Monomer A HF           //
    Molecular point group: c1
  Multiplicity = 1
  Basis Set: AUG-CC-PVDZ
    Blend: AUG-CC-PVDZ
  Basis Set: (AUG-CC-PVDZ AUX)
    Blend: AUG-CC-PVDZ-JKFIT
  @DF-RHF Final Energy:  -412.52974894394026
    Total Energy =                       -412.5297489439402625
  //            Monomer B HF           //
    Molecular point group: c1

    Geometry (in Angstrom), charge = 0, multiplicity = 1:

       Center              X                  Y                   Z               Mass
    ------------   -----------------  -----------------  -----------------  -----------------
      Gh(N)           0.138664819692    -0.853875635858    -2.262827834557    14.003074004430
      Gh(H)           0.393334819692    -1.805935635858    -2.036907834557     1.007825032230
      Gh(C)          -1.236115180308    -0.582865635858    -2.327197834557    12.000000000000
      Gh(O)          -2.050715180308    -1.465445635858    -2.119777834557    15.994914619570
      Gh(C)          -1.533775180308     0.801974364142    -2.649117834557    12.000000000000
      Gh(H)          -2.563425180308     1.106464364142    -2.722777834557     1.007825032230
      Gh(C)          -0.525175180308     1.673774364142    -2.851787834557    12.000000000000
      Gh(H)          -0.695495180308     2.712454364142    -3.092837834557     1.007825032230
      Gh(N)           0.788564819692     1.296804364142    -2.759847834557    14.003074004430
      Gh(H)           1.532624819692     1.959694364142    -2.900717834557     1.007825032230
      Gh(C)           1.197194819692     0.010274364142    -2.450437834557    12.000000000000
      Gh(O)           2.365234819692    -0.310905635858    -2.354797834557    15.994914619570
         C            1.081454819692    -0.917265635858     3.966492165443    12.000000000000
         H            1.535314819692    -1.009325635858     2.978512165443     1.007825032230
         H            1.625964819692    -1.581245635858     4.635692165443     1.007825032230
         C            1.135774819692     0.548684364142     4.399432165443    12.000000000000
         H            2.094064819692     1.021584364142     4.188702165443     1.007825032230
         H            0.947654819692     0.630324364142     5.472652165443     1.007825032230
         C           -0.031575180308     1.161494364142     3.628652165443    12.000000000000
         H            0.242724819692     1.250284364142     2.575182165443     1.007825032230
         H           -0.315995180308     2.152644364142     3.980292165443     1.007825032230
         C           -1.148525180308     0.123924364142     3.799682165443    12.000000000000
         H           -1.874065180308     0.147544364142     2.988312165443     1.007825032230
         H           -1.692615180308     0.328624364142     4.721932165443     1.007825032230
         C           -0.425485180308    -1.242625635858     3.903342165443    12.000000000000
         H           -0.668155180308    -1.886775635858     3.059982165443     1.007825032230
         H           -0.740595180308    -1.770025635858     4.802432165443     1.007825032230

  Charge       = 0
  Multiplicity = 1
  Basis Set: AUG-CC-PVDZ
    Blend: AUG-CC-PVDZ
  Basis Set: (AUG-CC-PVDZ AUX)
    Blend: AUG-CC-PVDZ-JKFIT

    Orbital Energies [Eh]
    ---------------------

    Doubly Occupied:

       1A    -11.215966     2A    -11.215584     3A    -11.215554
       4A    -11.214947     5A    -11.214850     6A     -1.117566
       7A     -0.957719     8A     -0.957109     9A     -0.777133
      10A     -0.767872    11A     -0.649393    12A     -0.644320
      13A     -0.568825    14A     -0.566937    15A     -0.474643
      16A     -0.473810    17A     -0.462943    18A     -0.459064
      19A     -0.458776    20A     -0.447546

  @DF-RHF Final Energy:  -195.18352481264148

   => Energetics <=

    Nuclear Repulsion Energy =            188.3371542134710808
    One-Electron Energy =                -635.3202468399920235
    Two-Electron Energy =                 251.7995678138794631
    Total Energy =                       -195.1835248126414797

  Dipole Moment: [D]
     X:     0.0110      Y:     0.0108      Z:     0.0044     Total:     0.0160

    SAPT Results
  --------------------------------------------------------------------------------------------------------
    Electrostatics                 -0.02325865 [mEh]      -0.01459502 [kcal/mol]      -0.06106558 [kJ/mol]
      Elst10,r                     -0.02340909 [mEh]      -0.01468943 [kcal/mol]      -0.06146057 [kJ/mol]
      Elst12,r                      0.00015044 [mEh]       0.00009441 [kcal/mol]       0.00039499 [kJ/mol]

    Exchange                        0.00137642 [mEh]       0.00086372 [kcal/mol]       0.00361380 [kJ/mol]
      Exch10                        0.00108098 [mEh]       0.00067833 [kcal/mol]       0.00283812 [kJ/mol]
      Exch10(S^2)                   0.00108098 [mEh]       0.00067833 [kcal/mol]       0.00283812 [kJ/mol]
      Exch11(S^2)                  -0.00005855 [mEh]      -0.00003674 [kcal/mol]      -0.00015371 [kJ/mol]
      Exch12(S^2)                   0.00035399 [mEh]       0.00022213 [kcal/mol]       0.00092939 [kJ/mol]

    Induction                      -0.01172374 [mEh]      -0.00735676 [kcal/mol]      -0.03078066 [kJ/mol]
      Ind20,r                      -0.01674543 [mEh]      -0.01050791 [kcal/mol]      -0.04396511 [kJ/mol]
      Ind22                         0.00463568 [mEh]       0.00290894 [kcal/mol]       0.01217099 [kJ/mol]
      Exch-Ind20,r                  0.00036582 [mEh]       0.00022955 [kcal/mol]       0.00096045 [kJ/mol]
      Exch-Ind22                   -0.00010127 [mEh]      -0.00006355 [kcal/mol]      -0.00026588 [kJ/mol]
      delta HF,r (2)                0.00012146 [mEh]       0.00007622 [kcal/mol]       0.00031889 [kJ/mol]

    Dispersion                     -0.48390605 [mEh]      -0.30365563 [kcal/mol]      -1.27049517 [kJ/mol]
      Disp20                       -0.50254683 [mEh]      -0.31535290 [kcal/mol]      -1.31943651 [kJ/mol]
      Disp21                        0.12940451 [mEh]       0.08120256 [kcal/mol]       0.33975150 [kJ/mol]
      Disp22 (SDQ)                 -0.01537562 [mEh]      -0.00964835 [kcal/mol]      -0.04036869 [kJ/mol]
      Disp22 (T)                   -0.09462667 [mEh]      -0.05937913 [kcal/mol]      -0.24844230 [kJ/mol]
      Est. Disp22 (T)              -0.09571742 [mEh]      -0.06006359 [kcal/mol]      -0.25130604 [kJ/mol]
      Exch-Disp20                   0.00032930 [mEh]       0.00020664 [kcal/mol]       0.00086458 [kJ/mol]

  Total HF                         -0.03858626 [mEh]      -0.02421325 [kcal/mol]      -0.10130822 [kJ/mol]
  Total SAPT0                      -0.54080379 [mEh]      -0.33935950 [kcal/mol]      -1.41988015 [kJ/mol]
  Total SAPT2                      -0.53582349 [mEh]      -0.33623432 [kcal/mol]      -1.40680438 [kJ/mol]
  Total SAPT2+                     -0.51751202 [mEh]      -0.32474369 [kcal/mol]      -1.35872762 [kJ/mol]

  Special recipe for scaled SAPT0 (see Manual):
    Electrostatics sSAPT0          -0.02340909 [mEh]      -0.01468943 [kcal/mol]      -0.06146057 [kJ/mol]
    Exchange sSAPT0                 0.00108098 [mEh]       0.00067833 [kcal/mol]       0.00283812 [kJ/mol]
    Induction sSAPT0               -0.01625815 [mEh]      -0.01020214 [kcal/mol]      -0.04268577 [kJ/mol]
    Dispersion sSAPT0              -0.50221753 [mEh]      -0.31514626 [kcal/mol]      -1.31857194 [kJ/mol]
  Total sSAPT0                     -0.54080379 [mEh]      -0.33935950 [kcal/mol]      -1.41988015 [kJ/mol]
  --------------------------------------------------------------------------------------------------------

*** Psi4 exiting successfully. Buy a developer a beer!
