                               Psi4 1.4a2.dev224

  ==> Input File <==

--------------------------------------------------------------------------
#Generated by lconvert.py for sapt job

memory 20 GB

molecule  {
0 1
  N       0.195730   -0.844690    0.823850
  H       0.450400   -1.796750    1.049770
  C      -1.179050   -0.573680    0.759480
  O      -1.993650   -1.456260    0.966900
  C      -1.476710    0.811160    0.437560
  H      -2.506360    1.115650    0.363900
  C      -0.468110    1.682960    0.234890
  H      -0.638430    2.721640   -0.006160
  N       0.845630    1.305990    0.326830
  H       1.589690    1.968880    0.185960
  C       1.254260    0.019460    0.636240
  O       2.422300   -0.301720    0.731880
--
0 1
  C       1.111660   -0.893440    6.181300
  H       1.565510   -0.985500    5.193310
  H       1.656160   -1.557420    6.850490
  C       1.165970    0.572510    6.614230
  H       2.124260    1.045410    6.403510
  H       0.977850    0.654150    7.687450
  C      -0.001380    1.185320    5.843460
  H       0.272920    1.274110    4.789990
  H      -0.285800    2.176470    6.195090
  C      -1.118330    0.147750    6.014490
  H      -1.843870    0.171370    5.203120
  H      -1.662410    0.352450    6.936740
  C      -0.395290   -1.218800    6.118150
  H      -0.637960   -1.862950    5.274780
  H      -0.710400   -1.746200    7.017230
units angstrom
no_reorient
symmetry c1
}

set {
scf_type DF
basis aug-cc-pvdz
freeze_core True
guess SAD
}
energy('sapt2+')
--------------------------------------------------------------------------

  //              Dimer HF             //
    Molecular point group: c1
  Charge       = 0
  Multiplicity = 1
  Basis Set: AUG-CC-PVDZ
    Blend: AUG-CC-PVDZ
  Basis Set: (AUG-CC-PVDZ AUX)
    Blend: AUG-CC-PVDZ-JKFIT
  @DF-RHF Final Energy:  -607.71349312507959
    Total Energy =                       -607.7134931250795944
  //            Monomer A HF           //
    Molecular point group: c1
  Multiplicity = 1
  Basis Set: AUG-CC-PVDZ
    Blend: AUG-CC-PVDZ
  Basis Set: (AUG-CC-PVDZ AUX)
    Blend: AUG-CC-PVDZ-JKFIT
  @DF-RHF Final Energy:  -412.52985426739338
    Total Energy =                       -412.5298542673933753
  //            Monomer B HF           //
    Molecular point group: c1

    Geometry (in Angstrom), charge = 0, multiplicity = 1:

       Center              X                  Y                   Z               Mass
    ------------   -----------------  -----------------  -----------------  -----------------
      Gh(N)           0.149004277982    -0.859509432908    -1.927311909533    14.003074004430
      Gh(H)           0.403674277982    -1.811569432908    -1.701391909533     1.007825032230
      Gh(C)          -1.225775722018    -0.588499432908    -1.991681909533    12.000000000000
      Gh(O)          -2.040375722018    -1.471079432908    -1.784261909533    15.994914619570
      Gh(C)          -1.523435722018     0.796340567092    -2.313601909533    12.000000000000
      Gh(H)          -2.553085722018     1.100830567092    -2.387261909533     1.007825032230
      Gh(C)          -0.514835722018     1.668140567092    -2.516271909533    12.000000000000
      Gh(H)          -0.685155722018     2.706820567092    -2.757321909533     1.007825032230
      Gh(N)           0.798904277982     1.291170567092    -2.424331909533    14.003074004430
      Gh(H)           1.542964277982     1.954060567092    -2.565201909533     1.007825032230
      Gh(C)           1.207534277982     0.004640567092    -2.114921909533    12.000000000000
      Gh(O)           2.375574277982    -0.316539432908    -2.019281909533    15.994914619570
         C            1.064934277982    -0.908259432908     3.430138090467    12.000000000000
         H            1.518784277982    -1.000319432908     2.442148090467     1.007825032230
         H            1.609434277982    -1.572239432908     4.099328090467     1.007825032230
         C            1.119244277982     0.557690567092     3.863068090467    12.000000000000
         H            2.077534277982     1.030590567092     3.652348090467     1.007825032230
         H            0.931124277982     0.639330567092     4.936288090467     1.007825032230
         C           -0.048105722018     1.170500567092     3.092298090467    12.000000000000
         H            0.226194277982     1.259290567092     2.038828090467     1.007825032230
         H           -0.332525722018     2.161650567092     3.443928090467     1.007825032230
         C           -1.165055722018     0.132930567092     3.263328090467    12.000000000000
         H           -1.890595722018     0.156550567092     2.451958090467     1.007825032230
         H           -1.709135722018     0.337630567092     4.185578090467     1.007825032230
         C           -0.442015722018    -1.233619432908     3.366988090467    12.000000000000
         H           -0.684685722018    -1.877769432908     2.523618090467     1.007825032230
         H           -0.757125722018    -1.761019432908     4.266068090467     1.007825032230

  Charge       = 0
  Multiplicity = 1
  Basis Set: AUG-CC-PVDZ
    Blend: AUG-CC-PVDZ
  Basis Set: (AUG-CC-PVDZ AUX)
    Blend: AUG-CC-PVDZ-JKFIT

    Orbital Energies [Eh]
    ---------------------

    Doubly Occupied:

       1A    -11.215952     2A    -11.215569     3A    -11.215539
       4A    -11.214933     5A    -11.214834     6A     -1.117561
       7A     -0.957717     8A     -0.957105     9A     -0.777132
      10A     -0.767871    11A     -0.649397    12A     -0.644320
      13A     -0.568829    14A     -0.566934    15A     -0.474641
      16A     -0.473805    17A     -0.462942    18A     -0.459062
      19A     -0.458775    20A     -0.447546

  @DF-RHF Final Energy:  -195.18358481279506

   => Energetics <=

    Nuclear Repulsion Energy =            188.3371886468695493
    One-Electron Energy =                -635.3206198465529724
    Two-Electron Energy =                 251.7998463868883618
    Total Energy =                       -195.1835848127950612

  Dipole Moment: [D]
     X:     0.0107      Y:     0.0107      Z:     0.0049     Total:     0.0159

    SAPT Results
  --------------------------------------------------------------------------------------------------------
    Electrostatics                 -0.04340061 [mEh]      -0.02723430 [kcal/mol]      -0.11394830 [kJ/mol]
      Elst10,r                     -0.03726671 [mEh]      -0.02338521 [kcal/mol]      -0.09784372 [kJ/mol]
      Elst12,r                     -0.00613391 [mEh]      -0.00384909 [kcal/mol]      -0.01610457 [kJ/mol]

    Exchange                        0.02810647 [mEh]       0.01763708 [kcal/mol]       0.07379354 [kJ/mol]
      Exch10                        0.02177124 [mEh]       0.01366166 [kcal/mol]       0.05716039 [kJ/mol]
      Exch10(S^2)                   0.02177116 [mEh]       0.01366161 [kcal/mol]       0.05716017 [kJ/mol]
      Exch11(S^2)                  -0.00058684 [mEh]      -0.00036824 [kcal/mol]      -0.00154074 [kJ/mol]
      Exch12(S^2)                   0.00692207 [mEh]       0.00434366 [kcal/mol]       0.01817388 [kJ/mol]

    Induction                      -0.02942920 [mEh]      -0.01846710 [kcal/mol]      -0.07726635 [kJ/mol]
      Ind20,r                      -0.04183672 [mEh]      -0.02625294 [kcal/mol]      -0.10984228 [kJ/mol]
      Ind22                         0.01028686 [mEh]       0.00645510 [kcal/mol]       0.02700814 [kJ/mol]
      Exch-Ind20,r                  0.00474468 [mEh]       0.00297733 [kcal/mol]       0.01245715 [kJ/mol]
      Exch-Ind22                   -0.00116663 [mEh]      -0.00073207 [kcal/mol]      -0.00306298 [kJ/mol]
      delta HF,r (2)               -0.00145739 [mEh]      -0.00091453 [kcal/mol]      -0.00382638 [kJ/mol]

    Dispersion                     -1.18618272 [mEh]      -0.74434090 [kcal/mol]      -3.11432231 [kJ/mol]
      Disp20                       -1.21566633 [mEh]      -0.76284214 [kcal/mol]      -3.19173150 [kJ/mol]
      Disp21                        0.29359715 [mEh]       0.18423500 [kcal/mol]       0.77083922 [kJ/mol]
      Disp22 (SDQ)                 -0.03916660 [mEh]      -0.02457741 [kcal/mol]      -0.10283190 [kJ/mol]
      Disp22 (T)                   -0.22491154 [mEh]      -0.14113412 [kcal/mol]      -0.59050515 [kJ/mol]
      Est. Disp22 (T)              -0.23006682 [mEh]      -0.14436911 [kcal/mol]      -0.60404034 [kJ/mol]
      Exch-Disp20                   0.00511987 [mEh]       0.00321277 [kcal/mol]       0.01344222 [kJ/mol]

  Total HF                         -0.05404489 [mEh]      -0.03391368 [kcal/mol]      -0.14189484 [kJ/mol]
  Total SAPT0                      -1.26459135 [mEh]      -0.79354305 [kcal/mol]      -3.32018412 [kJ/mol]
  Total SAPT2                      -1.25526979 [mEh]      -0.78769369 [kcal/mol]      -3.29571039 [kJ/mol]
  Total SAPT2+                     -1.23090606 [mEh]      -0.77240521 [kcal/mol]      -3.23174341 [kJ/mol]

  Special recipe for scaled SAPT0 (see Manual):
    Electrostatics sSAPT0          -0.03726671 [mEh]      -0.02338521 [kcal/mol]      -0.09784372 [kJ/mol]
    Exchange sSAPT0                 0.02177124 [mEh]       0.01366166 [kcal/mol]       0.05716039 [kJ/mol]
    Induction sSAPT0               -0.03854937 [mEh]      -0.02419010 [kcal/mol]      -0.10121137 [kJ/mol]
    Dispersion sSAPT0              -1.21054640 [mEh]      -0.75962933 [kcal/mol]      -3.17828912 [kJ/mol]
  Total sSAPT0                     -1.26459123 [mEh]      -0.79354298 [kcal/mol]      -3.32018382 [kJ/mol]
  --------------------------------------------------------------------------------------------------------

*** Psi4 exiting successfully. Buy a developer a beer!
