                               Psi4 1.4a2.dev224

  ==> Input File <==

--------------------------------------------------------------------------
#Generated by lconvert.py for sapt job

memory 20 GB

molecule  {
0 1
  N       0.626080   -0.850910    0.805920
  H       0.409190   -1.811500    1.034400
  C      -0.432460   -0.087340    0.294660
  O      -1.530770   -0.588400    0.123590
  C      -0.066880    1.291270    0.019640
  H      -0.809740    1.951810   -0.392840
  C       1.183540    1.717930    0.290530
  H       1.501850    2.733870    0.109830
  N       2.134130    0.886600    0.819080
  H       3.055340    1.223900    1.043430
  C       1.902780   -0.443180    1.128310
  O       2.743810   -1.163920    1.628590
--
0 1
  C      -1.224780   -0.065330    6.415120
  C      -2.541530    0.675960    6.629990
  H      -3.248600    0.057760    7.184850
  H      -2.382030    1.596150    7.194170
  H      -2.999240    0.937460    5.674830
  C      -0.609350   -0.418760    7.766390
  H       0.333820   -0.951140    7.635610
  H      -0.412320    0.480980    8.351200
  H      -1.280640   -1.056500    8.343130
  C      -0.259660    0.828150    5.639330
  H       0.688910    0.315560    5.468970
  H      -0.054370    1.746290    6.192750
  H      -0.682050    1.106640    4.671860
  C      -1.486100   -1.345360    5.624750
  H      -1.949840   -1.123530    4.662130
  H      -0.553520   -1.883760    5.445110
  H      -2.156610   -2.007180    6.174940
units angstrom
no_reorient
symmetry c1
}

set {
scf_type DF
basis aug-cc-pvdz
freeze_core True
guess SAD
}
energy('sapt2+')
--------------------------------------------------------------------------

  //              Dimer HF             //
    Molecular point group: c1
  Charge       = 0
  Multiplicity = 1
  Basis Set: AUG-CC-PVDZ
    Blend: AUG-CC-PVDZ
  Basis Set: (AUG-CC-PVDZ AUX)
    Blend: AUG-CC-PVDZ-JKFIT
  @DF-RHF Final Energy:  -608.88469006972059
    Total Energy =                       -608.8846900697205911
  //            Monomer A HF           //
    Molecular point group: c1
  Multiplicity = 1
  Basis Set: AUG-CC-PVDZ
    Blend: AUG-CC-PVDZ
  Basis Set: (AUG-CC-PVDZ AUX)
    Blend: AUG-CC-PVDZ-JKFIT
  @DF-RHF Final Energy:  -412.52977936071665
    Total Energy =                       -412.5297793607166454
  //            Monomer B HF           //
    Molecular point group: c1

    Geometry (in Angstrom), charge = 0, multiplicity = 1:

       Center              X                  Y                   Z               Mass
    ------------   -----------------  -----------------  -----------------  -----------------
      Gh(N)           0.598824626539    -0.859895414336    -2.104644388894    14.003074004430
      Gh(H)           0.381934626539    -1.820485414336    -1.876164388894     1.007825032230
      Gh(C)          -0.459715373461    -0.096325414336    -2.615904388894    12.000000000000
      Gh(O)          -1.558025373461    -0.597385414336    -2.786974388894    15.994914619570
      Gh(C)          -0.094135373461     1.282284585664    -2.890924388894    12.000000000000
      Gh(H)          -0.836995373461     1.942824585664    -3.303404388894     1.007825032230
      Gh(C)           1.156284626539     1.708944585664    -2.620034388894    12.000000000000
      Gh(H)           1.474594626539     2.724884585664    -2.800734388894     1.007825032230
      Gh(N)           2.106874626539     0.877614585664    -2.091484388894    14.003074004430
      Gh(H)           3.028084626539     1.214914585664    -1.867134388894     1.007825032230
      Gh(C)           1.875524626539    -0.452165414336    -1.782254388894    12.000000000000
      Gh(O)           2.716554626539    -1.172905414336    -1.281974388894    15.994914619570
         C           -1.252035373461    -0.074315414336     3.504555611106    12.000000000000
         C           -2.568785373461     0.666974585664     3.719425611106    12.000000000000
         H           -3.275855373461     0.048774585664     4.274285611106     1.007825032230
         H           -2.409285373461     1.587164585664     4.283605611106     1.007825032230
         H           -3.026495373461     0.928474585664     2.764265611106     1.007825032230
         C           -0.636605373461    -0.427745414336     4.855825611106    12.000000000000
         H            0.306564626539    -0.960125414336     4.725045611106     1.007825032230
         H           -0.439575373461     0.471994585664     5.440635611106     1.007825032230
         H           -1.307895373461    -1.065485414336     5.432565611106     1.007825032230
         C           -0.286915373461     0.819164585664     2.728765611106    12.000000000000
         H            0.661654626539     0.306574585664     2.558405611106     1.007825032230
         H           -0.081625373461     1.737304585664     3.282185611106     1.007825032230
         H           -0.709305373461     1.097654585664     1.761295611106     1.007825032230
         C           -1.513355373461    -1.354345414336     2.714185611106    12.000000000000
         H           -1.977095373461    -1.132515414336     1.751565611106     1.007825032230
         H           -0.580775373461    -1.892745414336     2.534545611106     1.007825032230
         H           -2.183865373461    -2.016165414336     3.264375611106     1.007825032230

  Charge       = 0
  Multiplicity = 1
  Basis Set: AUG-CC-PVDZ
    Blend: AUG-CC-PVDZ
  Basis Set: (AUG-CC-PVDZ AUX)
    Blend: AUG-CC-PVDZ-JKFIT

    Orbital Energies [Eh]
    ---------------------

    Doubly Occupied:

       1A    -11.231127     2A    -11.212204     3A    -11.212181
       4A    -11.212061     5A    -11.212025     6A     -1.107827
       7A     -0.929971     8A     -0.929737     9A     -0.929240
      10A     -0.729853    11A     -0.611915    12A     -0.611306
      13A     -0.611109    14A     -0.553107    15A     -0.551942
      16A     -0.508840    17A     -0.508569    18A     -0.507849
      19A     -0.452101    20A     -0.451464    21A     -0.451017

  @DF-RHF Final Energy:  -196.35469485133177

   => Energetics <=

    Nuclear Repulsion Energy =            199.3615740122747866
    One-Electron Energy =                -658.3816456419457381
    Two-Electron Energy =                 262.6653767783391800
    Total Energy =                       -196.3546948513317716

  Dipole Moment: [D]
     X:    -0.0039      Y:    -0.0005      Z:     0.0052     Total:     0.0065

    SAPT Results
  --------------------------------------------------------------------------------------------------------
    Electrostatics                 -0.18113476 [mEh]      -0.11366378 [kcal/mol]      -0.47556924 [kJ/mol]
      Elst10,r                     -0.20871851 [mEh]      -0.13097284 [kcal/mol]      -0.54799037 [kJ/mol]
      Elst12,r                      0.02758375 [mEh]       0.01730907 [kcal/mol]       0.07242113 [kJ/mol]

    Exchange                        0.02618932 [mEh]       0.01643405 [kcal/mol]       0.06876005 [kJ/mol]
      Exch10                        0.02017210 [mEh]       0.01265819 [kcal/mol]       0.05296185 [kJ/mol]
      Exch10(S^2)                   0.02017188 [mEh]       0.01265805 [kcal/mol]       0.05296127 [kJ/mol]
      Exch11(S^2)                  -0.00041496 [mEh]      -0.00026039 [kcal/mol]      -0.00108949 [kJ/mol]
      Exch12(S^2)                   0.00643218 [mEh]       0.00403625 [kcal/mol]       0.01688768 [kJ/mol]

    Induction                      -0.02151532 [mEh]      -0.01350107 [kcal/mol]      -0.05648846 [kJ/mol]
      Ind20,r                      -0.03037676 [mEh]      -0.01906171 [kcal/mol]      -0.07975418 [kJ/mol]
      Ind22                         0.00673466 [mEh]       0.00422606 [kcal/mol]       0.01768185 [kJ/mol]
      Exch-Ind20,r                  0.00423408 [mEh]       0.00265693 [kcal/mol]       0.01111659 [kJ/mol]
      Exch-Ind22                   -0.00093871 [mEh]      -0.00058905 [kcal/mol]      -0.00246460 [kJ/mol]
      delta HF,r (2)               -0.00116858 [mEh]      -0.00073330 [kcal/mol]      -0.00306812 [kJ/mol]

    Dispersion                     -0.98426809 [mEh]      -0.61763755 [kcal/mol]      -2.58419551 [kJ/mol]
      Disp20                       -0.99427584 [mEh]      -0.62391751 [kcal/mol]      -2.61047085 [kJ/mol]
      Disp21                        0.21251775 [mEh]       0.13335690 [kcal/mol]       0.55796527 [kJ/mol]
      Disp22 (SDQ)                 -0.01892168 [mEh]      -0.01187353 [kcal/mol]      -0.04967886 [kJ/mol]
      Disp22 (T)                   -0.18403097 [mEh]      -0.11548118 [kcal/mol]      -0.48317324 [kJ/mol]
      Est. Disp22 (T)              -0.18810303 [mEh]      -0.11803643 [kcal/mol]      -0.49386443 [kJ/mol]
      Exch-Disp20                   0.00451471 [mEh]       0.00283302 [kcal/mol]       0.01185337 [kJ/mol]

  Total HF                         -0.21585767 [mEh]      -0.13545273 [kcal/mol]      -0.56673424 [kJ/mol]
  Total SAPT0                      -1.20561880 [mEh]      -0.75653722 [kcal/mol]      -3.16535172 [kJ/mol]
  Total SAPT2                      -1.16622189 [mEh]      -0.73181528 [kcal/mol]      -3.06191514 [kJ/mol]
  Total SAPT2+                     -1.16072885 [mEh]      -0.72836835 [kcal/mol]      -3.04749317 [kJ/mol]

  Special recipe for scaled SAPT0 (see Manual):
    Electrostatics sSAPT0          -0.20871851 [mEh]      -0.13097284 [kcal/mol]      -0.54799037 [kJ/mol]
    Exchange sSAPT0                 0.02017210 [mEh]       0.01265819 [kcal/mol]       0.05296185 [kJ/mol]
    Induction sSAPT0               -0.02731113 [mEh]      -0.01713799 [kcal/mol]      -0.07170535 [kJ/mol]
    Dispersion sSAPT0              -0.98976098 [mEh]      -0.62108439 [kcal/mol]      -2.59861710 [kJ/mol]
  Total sSAPT0                     -1.20561852 [mEh]      -0.75653704 [kcal/mol]      -3.16535098 [kJ/mol]
  --------------------------------------------------------------------------------------------------------

*** Psi4 exiting successfully. Buy a developer a beer!
