                               Psi4 1.4a2.dev224

  ==> Input File <==

--------------------------------------------------------------------------
#Generated by lconvert.py for sapt job

memory 20 GB

molecule  {
0 1
  N       0.626080   -0.850910    0.805920
  H       0.409190   -1.811500    1.034400
  C      -0.432460   -0.087340    0.294660
  O      -1.530770   -0.588400    0.123590
  C      -0.066880    1.291270    0.019640
  H      -0.809740    1.951810   -0.392840
  C       1.183540    1.717930    0.290530
  H       1.501850    2.733870    0.109830
  N       2.134130    0.886600    0.819080
  H       3.055340    1.223900    1.043430
  C       1.902780   -0.443180    1.128310
  O       2.743810   -1.163920    1.628590
--
0 1
  C      -0.934970   -0.048160    5.603530
  C      -2.251710    0.693130    5.818410
  H      -2.958780    0.074930    6.373270
  H      -2.092210    1.613320    6.382590
  H      -2.709420    0.954630    4.863250
  C      -0.319530   -0.401600    6.954810
  H       0.623630   -0.933970    6.824030
  H      -0.122510    0.498150    7.539610
  H      -0.990820   -1.039330    7.531550
  C       0.030160    0.845320    4.827750
  H       0.978730    0.332720    4.657390
  H       0.235450    1.763460    5.381170
  H      -0.392240    1.123810    3.860280
  C      -1.196280   -1.328190    4.813170
  H      -1.660020   -1.106360    3.850540
  H      -0.263710   -1.866590    4.633530
  H      -1.866790   -1.990010    5.363360
units angstrom
no_reorient
symmetry c1
}

set {
scf_type DF
basis aug-cc-pvdz
freeze_core True
guess SAD
}
energy('sapt2+')
--------------------------------------------------------------------------

  //              Dimer HF             //
    Molecular point group: c1
  Charge       = 0
  Multiplicity = 1
  Basis Set: AUG-CC-PVDZ
    Blend: AUG-CC-PVDZ
  Basis Set: (AUG-CC-PVDZ AUX)
    Blend: AUG-CC-PVDZ-JKFIT
  @DF-RHF Final Energy:  -608.88509087737316
    Total Energy =                       -608.8850908773731589
  //            Monomer A HF           //
    Molecular point group: c1
  Multiplicity = 1
  Basis Set: AUG-CC-PVDZ
    Blend: AUG-CC-PVDZ
  Basis Set: (AUG-CC-PVDZ AUX)
    Blend: AUG-CC-PVDZ-JKFIT
  @DF-RHF Final Energy:  -412.53002140120418
    Total Energy =                       -412.5300214012041806
  //            Monomer B HF           //
    Molecular point group: c1

    Geometry (in Angstrom), charge = 0, multiplicity = 1:

       Center              X                  Y                   Z               Mass
    ------------   -----------------  -----------------  -----------------  -----------------
      Gh(N)           0.485344503553    -0.866617738223    -1.786863954600    14.003074004430
      Gh(H)           0.268454503553    -1.827207738223    -1.558383954600     1.007825032230
      Gh(C)          -0.573195496447    -0.103047738223    -2.298123954600    12.000000000000
      Gh(O)          -1.671505496447    -0.604107738223    -2.469193954600    15.994914619570
      Gh(C)          -0.207615496447     1.275562261777    -2.573143954600    12.000000000000
      Gh(H)          -0.950475496447     1.936102261777    -2.985623954600     1.007825032230
      Gh(C)           1.042804503553     1.702222261777    -2.302253954600    12.000000000000
      Gh(H)           1.361114503553     2.718162261777    -2.482953954600     1.007825032230
      Gh(N)           1.993394503553     0.870892261777    -1.773703954600    14.003074004430
      Gh(H)           2.914604503553     1.208192261777    -1.549353954600     1.007825032230
      Gh(C)           1.762044503553    -0.458887738223    -1.464473954600    12.000000000000
      Gh(O)           2.603074503553    -1.179627738223    -0.964193954600    15.994914619570
         C           -1.075705496447    -0.063867738223     3.010746045400    12.000000000000
         C           -2.392445496447     0.677422261777     3.225626045400    12.000000000000
         H           -3.099515496447     0.059222261777     3.780486045400     1.007825032230
         H           -2.232945496447     1.597612261777     3.789806045400     1.007825032230
         H           -2.850155496447     0.938922261777     2.270466045400     1.007825032230
         C           -0.460265496447    -0.417307738223     4.362026045400    12.000000000000
         H            0.482894503553    -0.949677738223     4.231246045400     1.007825032230
         H           -0.263245496447     0.482442261777     4.946826045400     1.007825032230
         H           -1.131555496447    -1.055037738223     4.938766045400     1.007825032230
         C           -0.110575496447     0.829612261777     2.234966045400    12.000000000000
         H            0.837994503553     0.317012261777     2.064606045400     1.007825032230
         H            0.094714503553     1.747752261777     2.788386045400     1.007825032230
         H           -0.532975496447     1.108102261777     1.267496045400     1.007825032230
         C           -1.337015496447    -1.343897738223     2.220386045400    12.000000000000
         H           -1.800755496447    -1.122067738223     1.257756045400     1.007825032230
         H           -0.404445496447    -1.882297738223     2.040746045400     1.007825032230
         H           -2.007525496447    -2.005717738223     2.770576045400     1.007825032230

  Charge       = 0
  Multiplicity = 1
  Basis Set: AUG-CC-PVDZ
    Blend: AUG-CC-PVDZ
  Basis Set: (AUG-CC-PVDZ AUX)
    Blend: AUG-CC-PVDZ-JKFIT

    Orbital Energies [Eh]
    ---------------------

    Doubly Occupied:

       1A    -11.231119     2A    -11.212152     3A    -11.212112
       4A    -11.212057     5A    -11.212018     6A     -1.107827
       7A     -0.929971     8A     -0.929732     9A     -0.929238
      10A     -0.729853    11A     -0.611916    12A     -0.611309
      13A     -0.611109    14A     -0.553105    15A     -0.551943
      16A     -0.508838    17A     -0.508571    18A     -0.507851
      19A     -0.452099    20A     -0.451468    21A     -0.451017

  @DF-RHF Final Energy:  -196.35478525865577

   => Energetics <=

    Nuclear Repulsion Energy =            199.3615979993233793
    One-Electron Energy =                -658.3821577609652422
    Two-Electron Energy =                 262.6657745029860962
    Total Energy =                       -196.3547852586557383

  Dipole Moment: [D]
     X:    -0.0038      Y:    -0.0004      Z:     0.0052     Total:     0.0065

    SAPT Results
  --------------------------------------------------------------------------------------------------------
    Electrostatics                 -0.54943737 [mEh]      -0.34477715 [kcal/mol]      -1.44254761 [kJ/mol]
      Elst10,r                     -0.56688902 [mEh]      -0.35572823 [kcal/mol]      -1.48836692 [kJ/mol]
      Elst12,r                      0.01745165 [mEh]       0.01095108 [kcal/mol]       0.04581931 [kJ/mol]

    Exchange                        0.46443610 [mEh]       0.29143805 [kcal/mol]       1.21937681 [kJ/mol]
      Exch10                        0.37850834 [mEh]       0.23751757 [kcal/mol]       0.99377350 [kJ/mol]
      Exch10(S^2)                   0.37845245 [mEh]       0.23748250 [kcal/mol]       0.99362677 [kJ/mol]
      Exch11(S^2)                  -0.00103856 [mEh]      -0.00065171 [kcal/mol]      -0.00272674 [kJ/mol]
      Exch12(S^2)                   0.08696632 [mEh]       0.05457219 [kcal/mol]       0.22833005 [kJ/mol]

    Induction                      -0.09679303 [mEh]      -0.06073854 [kcal/mol]      -0.25413005 [kJ/mol]
      Ind20,r                      -0.16129797 [mEh]      -0.10121600 [kcal/mol]      -0.42348776 [kJ/mol]
      Ind22                        -0.00198075 [mEh]      -0.00124294 [kcal/mol]      -0.00520045 [kJ/mol]
      Exch-Ind20,r                  0.08343217 [mEh]       0.05235448 [kcal/mol]       0.21905113 [kJ/mol]
      Exch-Ind22                    0.00102455 [mEh]       0.00064292 [kcal/mol]       0.00268996 [kJ/mol]
      delta HF,r (2)               -0.01797103 [mEh]      -0.01127699 [kcal/mol]      -0.04718292 [kJ/mol]

    Dispersion                     -2.77565320 [mEh]      -1.74174868 [kcal/mol]      -7.28747648 [kJ/mol]
      Disp20                       -2.79446804 [mEh]      -1.75355517 [kcal/mol]      -7.33687484 [kJ/mol]
      Disp21                        0.53651098 [mEh]       0.33666572 [kcal/mol]       1.40860939 [kJ/mol]
      Disp22 (SDQ)                 -0.06236947 [mEh]      -0.03913743 [kcal/mol]      -0.16375102 [kJ/mol]
      Disp22 (T)                   -0.49918567 [mEh]      -0.31324373 [kcal/mol]      -1.31061178 [kJ/mol]
      Est. Disp22 (T)              -0.52076850 [mEh]      -0.32678717 [kcal/mol]      -1.36727750 [kJ/mol]
      Exch-Disp20                   0.06544182 [mEh]       0.04106536 [kcal/mol]       0.17181749 [kJ/mol]

  Total HF                         -0.28421751 [mEh]      -0.17834918 [kcal/mol]      -0.74621298 [kJ/mol]
  Total SAPT0                      -3.01324373 [mEh]      -1.89083899 [kcal/mol]      -7.91127033 [kJ/mol]
  Total SAPT2                      -2.91082051 [mEh]      -1.82656745 [kcal/mol]      -7.64235821 [kJ/mol]
  Total SAPT2+                     -2.95744750 [mEh]      -1.85582632 [kcal/mol]      -7.76477733 [kJ/mol]

  Special recipe for scaled SAPT0 (see Manual):
    Electrostatics sSAPT0          -0.56688902 [mEh]      -0.35572823 [kcal/mol]      -1.48836692 [kJ/mol]
    Exchange sSAPT0                 0.37850834 [mEh]       0.23751757 [kcal/mol]       0.99377350 [kJ/mol]
    Induction sSAPT0               -0.09579986 [mEh]      -0.06011532 [kcal/mol]      -0.25152250 [kJ/mol]
    Dispersion sSAPT0              -2.72899722 [mEh]      -1.71247161 [kcal/mol]      -7.16498122 [kJ/mol]
  Total sSAPT0                     -3.01317777 [mEh]      -1.89079760 [kcal/mol]      -7.91109714 [kJ/mol]
  --------------------------------------------------------------------------------------------------------

*** Psi4 exiting successfully. Buy a developer a beer!
