                               Psi4 1.4a2.dev224

  ==> Input File <==

--------------------------------------------------------------------------
#Generated by lconvert.py for sapt job

memory 20 GB

molecule  {
0 1
  C       0.666400    0.183810    0.419740
  H       1.228880   -0.329880    1.186260
  H       1.228040    0.697210   -0.347610
  C      -0.665970    0.182970    0.419610
  H      -1.227920   -0.331500    1.186100
  H      -1.228180    0.695650   -0.347750
--
0 1
  C      -2.532840   -0.463760    5.223620
  H      -2.562330   -1.076780    4.322430
  H      -2.568980   -1.137980    6.079240
  H      -3.434010    0.147260    5.240870
  C      -1.271400    0.388920    5.259440
  H      -1.271810    1.009010    6.158830
  H      -1.263020    1.075830    4.410380
  C      -0.000130   -0.448640    5.232500
  H      -0.000280   -1.135310    6.084330
  H       0.000010   -1.076220    4.335850
  C       1.271090    0.388950    5.259900
  H       1.271360    1.008760    6.159390
  H       1.262900    1.076020    4.410990
  C       2.532540   -0.463780    5.224080
  H       2.562160   -1.076630    4.322770
  H       3.433720    0.147160    5.241650
  H       2.568460   -1.138230    6.079580
units angstrom
no_reorient
symmetry c1
}

set {
scf_type DF
basis aug-cc-pvdz
freeze_core True
guess SAD
}
energy('sapt2+')
--------------------------------------------------------------------------

  //              Dimer HF             //
    Molecular point group: c1
  Charge       = 0
  Multiplicity = 1
  Basis Set: AUG-CC-PVDZ
    Blend: AUG-CC-PVDZ
  Basis Set: (AUG-CC-PVDZ AUX)
    Blend: AUG-CC-PVDZ-JKFIT
  @DF-RHF Final Energy:  -274.39743974595831
    Total Energy =                       -274.3974397459583088
  //            Monomer A HF           //
    Molecular point group: c1
  Multiplicity = 1
  Basis Set: AUG-CC-PVDZ
    Blend: AUG-CC-PVDZ
  Basis Set: (AUG-CC-PVDZ AUX)
    Blend: AUG-CC-PVDZ-JKFIT
  @DF-RHF Final Energy:   -78.04366387135228
    Total Energy =                        -78.0436638713522797
  //            Monomer B HF           //
    Molecular point group: c1

    Geometry (in Angstrom), charge = 0, multiplicity = 1:

       Center              X                  Y                   Z               Mass
    ------------   -----------------  -----------------  -----------------  -----------------
      Gh(C)           0.666447219132     0.226110061119    -3.470338471497    12.000000000000
      Gh(H)           1.228927219132    -0.287579938881    -2.703818471497     1.007825032230
      Gh(H)           1.228087219132     0.739510061119    -4.237688471497     1.007825032230
      Gh(C)          -0.665922780868     0.225270061119    -3.470468471497    12.000000000000
      Gh(H)          -1.227872780868    -0.289199938881    -2.703978471497     1.007825032230
      Gh(H)          -1.228132780868     0.737950061119    -4.237828471497     1.007825032230
         C           -2.532792780868    -0.421459938881     1.333541528503    12.000000000000
         H           -2.562282780868    -1.034479938881     0.432351528503     1.007825032230
         H           -2.568932780868    -1.095679938881     2.189161528503     1.007825032230
         H           -3.433962780868     0.189560061119     1.350791528503     1.007825032230
         C           -1.271352780868     0.431220061119     1.369361528503    12.000000000000
         H           -1.271762780868     1.051310061119     2.268751528503     1.007825032230
         H           -1.262972780868     1.118130061119     0.520301528503     1.007825032230
         C           -0.000082780868    -0.406339938881     1.342421528503    12.000000000000
         H           -0.000232780868    -1.093009938881     2.194251528503     1.007825032230
         H            0.000057219132    -1.033919938881     0.445771528503     1.007825032230
         C            1.271137219132     0.431250061119     1.369821528503    12.000000000000
         H            1.271407219132     1.051060061119     2.269311528503     1.007825032230
         H            1.262947219132     1.118320061119     0.520911528503     1.007825032230
         C            2.532587219132    -0.421479938881     1.334001528503    12.000000000000
         H            2.562207219132    -1.034329938881     0.432691528503     1.007825032230
         H            3.433767219132     0.189460061119     1.351571528503     1.007825032230
         H            2.568507219132    -1.095929938881     2.189501528503     1.007825032230

  Charge       = 0
  Multiplicity = 1
  Basis Set: AUG-CC-PVDZ
    Blend: AUG-CC-PVDZ
  Basis Set: (AUG-CC-PVDZ AUX)
    Blend: AUG-CC-PVDZ-JKFIT

    Orbital Energies [Eh]
    ---------------------

    Doubly Occupied:

       1A    -11.218245     2A    -11.218184     3A    -11.215620
       4A    -11.213991     5A    -11.213987     6A     -1.082650
       7A     -1.016563     8A     -0.919953     9A     -0.820635
      10A     -0.785490    11A     -0.646874    12A     -0.597949
      13A     -0.592217    14A     -0.553735    15A     -0.546798
      16A     -0.524522    17A     -0.493935    18A     -0.474912
      19A     -0.461167    20A     -0.458106    21A     -0.445996

  @DF-RHF Final Energy:  -196.35385012892925

   => Energetics <=

    Nuclear Repulsion Energy =            185.6559228429530322
    One-Electron Energy =                -631.0164919533975763
    Two-Electron Energy =                 249.0067189815152915
    Total Energy =                       -196.3538501289292526

  Dipole Moment: [D]
     X:     0.0000      Y:     0.0848      Z:     0.0046     Total:     0.0850

    SAPT Results
  --------------------------------------------------------------------------------------------------------
    Electrostatics                 -0.06655947 [mEh]      -0.04176670 [kcal/mol]      -0.17475186 [kJ/mol]
      Elst10,r                     -0.06179907 [mEh]      -0.03877950 [kcal/mol]      -0.16225344 [kJ/mol]
      Elst12,r                     -0.00476040 [mEh]      -0.00298719 [kcal/mol]      -0.01249842 [kJ/mol]

    Exchange                        0.18659445 [mEh]       0.11708978 [kcal/mol]       0.48990365 [kJ/mol]
      Exch10                        0.16230272 [mEh]       0.10184650 [kcal/mol]       0.42612574 [kJ/mol]
      Exch10(S^2)                   0.16229066 [mEh]       0.10183893 [kcal/mol]       0.42609408 [kJ/mol]
      Exch11(S^2)                   0.00180340 [mEh]       0.00113165 [kcal/mol]       0.00473482 [kJ/mol]
      Exch12(S^2)                   0.02248833 [mEh]       0.01411164 [kcal/mol]       0.05904309 [kJ/mol]

    Induction                      -0.02728342 [mEh]      -0.01712060 [kcal/mol]      -0.07163260 [kJ/mol]
      Ind20,r                      -0.03525768 [mEh]      -0.02212453 [kcal/mol]      -0.09256903 [kJ/mol]
      Ind22                        -0.00253542 [mEh]      -0.00159100 [kcal/mol]      -0.00665675 [kJ/mol]
      Exch-Ind20,r                  0.02087762 [mEh]       0.01310091 [kcal/mol]       0.05481419 [kJ/mol]
      Exch-Ind22                    0.00150133 [mEh]       0.00094210 [kcal/mol]       0.00394175 [kJ/mol]
      delta HF,r (2)               -0.01186927 [mEh]      -0.00744808 [kcal/mol]      -0.03116276 [kJ/mol]

    Dispersion                     -1.34187214 [mEh]      -0.84203748 [kcal/mol]      -3.52308482 [kJ/mol]
      Disp20                       -1.36129213 [mEh]      -0.85422371 [kcal/mol]      -3.57407201 [kJ/mol]
      Disp21                        0.12799862 [mEh]       0.08032035 [kcal/mol]       0.33606032 [kJ/mol]
      Disp22 (SDQ)                  0.06259810 [mEh]       0.03928090 [kcal/mol]       0.16435129 [kJ/mol]
      Disp22 (T)                   -0.18841838 [mEh]      -0.11823432 [kcal/mol]      -0.49469239 [kJ/mol]
      Est. Disp22 (T)              -0.19808567 [mEh]      -0.12430063 [kcal/mol]      -0.52007385 [kJ/mol]
      Exch-Disp20                   0.02690894 [mEh]       0.01688562 [kcal/mol]       0.07064942 [kJ/mol]

  Total HF                          0.07425432 [mEh]       0.04659529 [kcal/mol]       0.19495470 [kJ/mol]
  Total SAPT0                      -1.26012887 [mEh]      -0.79074280 [kcal/mol]      -3.30846788 [kJ/mol]
  Total SAPT2                      -1.24163163 [mEh]      -0.77913561 [kcal/mol]      -3.25990339 [kJ/mol]
  Total SAPT2+                     -1.24912058 [mEh]      -0.78383500 [kcal/mol]      -3.27956563 [kJ/mol]

  Special recipe for scaled SAPT0 (see Manual):
    Electrostatics sSAPT0          -0.06179907 [mEh]      -0.03877950 [kcal/mol]      -0.16225344 [kJ/mol]
    Exchange sSAPT0                 0.16230272 [mEh]       0.10184650 [kcal/mol]       0.42612574 [kJ/mol]
    Induction sSAPT0               -0.02624467 [mEh]      -0.01646878 [kcal/mol]      -0.06890538 [kJ/mol]
    Dispersion sSAPT0              -1.33437719 [mEh]      -0.83733433 [kcal/mol]      -3.50340683 [kJ/mol]
  Total sSAPT0                     -1.26011821 [mEh]      -0.79073612 [kcal/mol]      -3.30843991 [kJ/mol]
  --------------------------------------------------------------------------------------------------------

*** Psi4 exiting successfully. Buy a developer a beer!
