                               Psi4 1.4a2.dev224

  ==> Input File <==

--------------------------------------------------------------------------
#Generated by lconvert.py for sapt job

memory 20 GB

molecule  {
0 1
  C       0.666400    0.183810    0.419740
  H       1.228880   -0.329880    1.186260
  H       1.228040    0.697210   -0.347610
  C      -0.665970    0.182970    0.419610
  H      -1.227920   -0.331500    1.186100
  H      -1.228180    0.695650   -0.347750
--
0 1
  C      -2.533000   -0.603590    7.374570
  H      -2.562500   -1.216610    6.473380
  H      -2.569140   -1.277810    8.230180
  H      -3.434170    0.007430    7.391810
  C      -1.271570    0.249090    7.410380
  H      -1.271970    0.869180    8.309780
  H      -1.263180    0.936000    6.561320
  C      -0.000290   -0.588470    7.383440
  H      -0.000450   -1.275140    8.235270
  H      -0.000150   -1.216050    6.486800
  C       1.270930    0.249120    7.410850
  H       1.271200    0.868930    8.310330
  H       1.262730    0.936190    6.561940
  C       2.532380   -0.603610    7.375020
  H       2.562000   -1.216460    6.473710
  H       3.433560    0.007330    7.392600
  H       2.568300   -1.278060    8.230530
units angstrom
no_reorient
symmetry c1
}

set {
scf_type DF
basis aug-cc-pvdz
freeze_core True
guess SAD
}
energy('sapt2+')
--------------------------------------------------------------------------

  //              Dimer HF             //
    Molecular point group: c1
  Charge       = 0
  Multiplicity = 1
  Basis Set: AUG-CC-PVDZ
    Blend: AUG-CC-PVDZ
  Basis Set: (AUG-CC-PVDZ AUX)
    Blend: AUG-CC-PVDZ-JKFIT
  @DF-RHF Final Energy:  -274.39731805485940
    Total Energy =                       -274.3973180548593973
  //            Monomer A HF           //
    Molecular point group: c1
  Multiplicity = 1
  Basis Set: AUG-CC-PVDZ
    Blend: AUG-CC-PVDZ
  Basis Set: (AUG-CC-PVDZ AUX)
    Blend: AUG-CC-PVDZ-JKFIT
  @DF-RHF Final Energy:   -78.04354882948505
    Total Energy =                        -78.0435488294850472
  //            Monomer B HF           //
    Molecular point group: c1

    Geometry (in Angstrom), charge = 0, multiplicity = 1:

       Center              X                  Y                   Z               Mass
    ------------   -----------------  -----------------  -----------------  -----------------
      Gh(C)           0.666563925603     0.326792906588    -5.019098961051    12.000000000000
      Gh(H)           1.229043925603    -0.186897093412    -4.252578961051     1.007825032230
      Gh(H)           1.228203925603     0.840192906588    -5.786448961051     1.007825032230
      Gh(C)          -0.665806074397     0.325952906588    -5.019228961051    12.000000000000
      Gh(H)          -1.227756074397    -0.188517093412    -4.252738961051     1.007825032230
      Gh(H)          -1.228016074397     0.838632906588    -5.786588961051     1.007825032230
         C           -2.532836074397    -0.460607093412     1.935731038949    12.000000000000
         H           -2.562336074397    -1.073627093412     1.034541038949     1.007825032230
         H           -2.568976074397    -1.134827093412     2.791341038949     1.007825032230
         H           -3.434006074397     0.150412906588     1.952971038949     1.007825032230
         C           -1.271406074397     0.392072906588     1.971541038949    12.000000000000
         H           -1.271806074397     1.012162906588     2.870941038949     1.007825032230
         H           -1.263016074397     1.078982906588     1.122481038949     1.007825032230
         C           -0.000126074397    -0.445487093412     1.944601038949    12.000000000000
         H           -0.000286074397    -1.132157093412     2.796431038949     1.007825032230
         H            0.000013925603    -1.073067093412     1.047961038949     1.007825032230
         C            1.271093925603     0.392102906588     1.972011038949    12.000000000000
         H            1.271363925603     1.011912906588     2.871491038949     1.007825032230
         H            1.262893925603     1.079172906588     1.123101038949     1.007825032230
         C            2.532543925603    -0.460627093412     1.936181038949    12.000000000000
         H            2.562163925603    -1.073477093412     1.034871038949     1.007825032230
         H            3.433723925603     0.150312906588     1.953761038949     1.007825032230
         H            2.568463925603    -1.135077093412     2.791691038949     1.007825032230

  Charge       = 0
  Multiplicity = 1
  Basis Set: AUG-CC-PVDZ
    Blend: AUG-CC-PVDZ
  Basis Set: (AUG-CC-PVDZ AUX)
    Blend: AUG-CC-PVDZ-JKFIT

    Orbital Energies [Eh]
    ---------------------

    Doubly Occupied:

       1A    -11.218265     2A    -11.218204     3A    -11.215640
       4A    -11.214012     5A    -11.214007     6A     -1.082654
       7A     -1.016565     8A     -0.919956     9A     -0.820638
      10A     -0.785494    11A     -0.646867    12A     -0.597949
      13A     -0.592219    14A     -0.553737    15A     -0.546798
      16A     -0.524527    17A     -0.493934    18A     -0.474914
      19A     -0.461164    20A     -0.458115    21A     -0.445997

  @DF-RHF Final Energy:  -196.35376754365413

   => Energetics <=

    Nuclear Repulsion Energy =            185.6558993948434306
    One-Electron Energy =                -631.0160232600300105
    Two-Electron Energy =                 249.0063563215324223
    Total Energy =                       -196.3537675436541292

  Dipole Moment: [D]
     X:    -0.0000      Y:     0.0845      Z:     0.0047     Total:     0.0846

    SAPT Results
  --------------------------------------------------------------------------------------------------------
    Electrostatics                  0.00026220 [mEh]       0.00016453 [kcal/mol]       0.00068840 [kJ/mol]
      Elst10,r                     -0.00098432 [mEh]      -0.00061767 [kcal/mol]      -0.00258432 [kJ/mol]
      Elst12,r                      0.00124652 [mEh]       0.00078220 [kcal/mol]       0.00327273 [kJ/mol]

    Exchange                        0.00015212 [mEh]       0.00009545 [kcal/mol]       0.00039938 [kJ/mol]
      Exch10                        0.00014395 [mEh]       0.00009033 [kcal/mol]       0.00037795 [kJ/mol]
      Exch10(S^2)                   0.00014395 [mEh]       0.00009033 [kcal/mol]       0.00037795 [kJ/mol]
      Exch11(S^2)                  -0.00000325 [mEh]      -0.00000204 [kcal/mol]      -0.00000854 [kJ/mol]
      Exch12(S^2)                   0.00001142 [mEh]       0.00000716 [kcal/mol]       0.00002997 [kJ/mol]

    Induction                      -0.00084484 [mEh]      -0.00053015 [kcal/mol]      -0.00221813 [kJ/mol]
      Ind20,r                      -0.00064991 [mEh]      -0.00040782 [kcal/mol]      -0.00170633 [kJ/mol]
      Ind22                        -0.00000367 [mEh]      -0.00000231 [kcal/mol]      -0.00000964 [kJ/mol]
      Exch-Ind20,r                  0.00003346 [mEh]       0.00002100 [kcal/mol]       0.00008785 [kJ/mol]
      Exch-Ind22                    0.00000019 [mEh]       0.00000012 [kcal/mol]       0.00000050 [kJ/mol]
      delta HF,r (2)               -0.00022491 [mEh]      -0.00014113 [kcal/mol]      -0.00059050 [kJ/mol]

    Dispersion                     -0.13362561 [mEh]      -0.08385134 [kcal/mol]      -0.35083400 [kJ/mol]
      Disp20                       -0.13908441 [mEh]      -0.08727679 [kcal/mol]      -0.36516608 [kJ/mol]
      Disp21                        0.01909266 [mEh]       0.01198083 [kcal/mol]       0.05012778 [kJ/mol]
      Disp22 (SDQ)                  0.00694315 [mEh]       0.00435689 [kcal/mol]       0.01822923 [kJ/mol]
      Disp22 (T)                   -0.02036898 [mEh]      -0.01278173 [kcal/mol]      -0.05347876 [kJ/mol]
      Est. Disp22 (T)              -0.02061698 [mEh]      -0.01293735 [kcal/mol]      -0.05412987 [kJ/mol]
      Exch-Disp20                   0.00003997 [mEh]       0.00002508 [kcal/mol]       0.00010493 [kJ/mol]

  Total HF                         -0.00168172 [mEh]      -0.00105530 [kcal/mol]      -0.00441536 [kJ/mol]
  Total SAPT0                      -0.14072617 [mEh]      -0.08830700 [kcal/mol]      -0.36947651 [kJ/mol]
  Total SAPT2                      -0.13947497 [mEh]      -0.08752187 [kcal/mol]      -0.36619149 [kJ/mol]
  Total SAPT2+                     -0.13405614 [mEh]      -0.08412150 [kcal/mol]      -0.35196435 [kJ/mol]

  Special recipe for scaled SAPT0 (see Manual):
    Electrostatics sSAPT0          -0.00098432 [mEh]      -0.00061767 [kcal/mol]      -0.00258432 [kJ/mol]
    Exchange sSAPT0                 0.00014395 [mEh]       0.00009033 [kcal/mol]       0.00037795 [kJ/mol]
    Induction sSAPT0               -0.00084136 [mEh]      -0.00052796 [kcal/mol]      -0.00220898 [kJ/mol]
    Dispersion sSAPT0              -0.13904445 [mEh]      -0.08725171 [kcal/mol]      -0.36506115 [kJ/mol]
  Total sSAPT0                     -0.14072617 [mEh]      -0.08830700 [kcal/mol]      -0.36947651 [kJ/mol]
  --------------------------------------------------------------------------------------------------------

*** Psi4 exiting successfully. Buy a developer a beer!
