                               Psi4 1.4a2.dev224

  ==> Input File <==

--------------------------------------------------------------------------
#Generated by lconvert.py for sapt job

memory 20 GB

molecule  {
0 1
  C       0.666400    0.183810    0.419740
  H       1.228880   -0.329880    1.186260
  H       1.228040    0.697210   -0.347610
  C      -0.665970    0.182970    0.419610
  H      -1.227920   -0.331500    1.186100
  H      -1.228180    0.695650   -0.347750
--
0 1
  C      -2.532920   -0.533670    6.299090
  H      -2.562420   -1.146690    5.397900
  H      -2.569060   -1.207890    7.154710
  H      -3.434090    0.077340    6.316340
  C      -1.271490    0.319000    6.334910
  H      -1.271890    0.939100    7.234310
  H      -1.263100    1.005910    5.485850
  C      -0.000210   -0.518550    6.307970
  H      -0.000360   -1.205230    7.159800
  H      -0.000070   -1.146130    5.411330
  C       1.271010    0.319030    6.335370
  H       1.271280    0.938840    7.234860
  H       1.262810    1.006110    5.486470
  C       2.532460   -0.533690    6.299550
  H       2.562080   -1.146550    5.398240
  H       3.433640    0.077240    6.317130
  H       2.568380   -1.208150    7.155050
units angstrom
no_reorient
symmetry c1
}

set {
scf_type DF
basis aug-cc-pvdz
freeze_core True
guess SAD
}
energy('sapt2+')
--------------------------------------------------------------------------

  //              Dimer HF             //
    Molecular point group: c1
  Charge       = 0
  Multiplicity = 1
  Basis Set: AUG-CC-PVDZ
    Blend: AUG-CC-PVDZ
  Basis Set: (AUG-CC-PVDZ AUX)
    Blend: AUG-CC-PVDZ-JKFIT
  @DF-RHF Final Energy:  -274.39737009601311
    Total Energy =                       -274.3973700960131055
  //            Monomer A HF           //
    Molecular point group: c1
  Multiplicity = 1
  Basis Set: AUG-CC-PVDZ
    Blend: AUG-CC-PVDZ
  Basis Set: (AUG-CC-PVDZ AUX)
    Blend: AUG-CC-PVDZ-JKFIT
  @DF-RHF Final Energy:   -78.04358209998307
    Total Energy =                        -78.0435820999830696
  //            Monomer B HF           //
    Molecular point group: c1

    Geometry (in Angstrom), charge = 0, multiplicity = 1:

       Center              X                  Y                   Z               Mass
    ------------   -----------------  -----------------  -----------------  -----------------
      Gh(C)           0.666506221945     0.276450985260    -4.244717618431    12.000000000000
      Gh(H)           1.228986221945    -0.237239014740    -3.478197618431     1.007825032230
      Gh(H)           1.228146221945     0.789850985260    -5.012067618431     1.007825032230
      Gh(C)          -0.665863778055     0.275610985260    -4.244847618431    12.000000000000
      Gh(H)          -1.227813778055    -0.238859014740    -3.478357618431     1.007825032230
      Gh(H)          -1.228073778055     0.788290985260    -5.012207618431     1.007825032230
         C           -2.532813778055    -0.441029014740     1.634632381569    12.000000000000
         H           -2.562313778055    -1.054049014740     0.733442381569     1.007825032230
         H           -2.568953778055    -1.115249014740     2.490252381569     1.007825032230
         H           -3.433983778055     0.169980985260     1.651882381569     1.007825032230
         C           -1.271383778055     0.411640985260     1.670452381569    12.000000000000
         H           -1.271783778055     1.031740985260     2.569852381569     1.007825032230
         H           -1.262993778055     1.098550985260     0.821392381569     1.007825032230
         C           -0.000103778055    -0.425909014740     1.643512381569    12.000000000000
         H           -0.000253778055    -1.112589014740     2.495342381569     1.007825032230
         H            0.000036221945    -1.053489014740     0.746872381569     1.007825032230
         C            1.271116221945     0.411670985260     1.670912381569    12.000000000000
         H            1.271386221945     1.031480985260     2.570402381569     1.007825032230
         H            1.262916221945     1.098750985260     0.822012381569     1.007825032230
         C            2.532566221945    -0.441049014740     1.635092381569    12.000000000000
         H            2.562186221945    -1.053909014740     0.733782381569     1.007825032230
         H            3.433746221945     0.169880985260     1.652672381569     1.007825032230
         H            2.568486221945    -1.115509014740     2.490592381569     1.007825032230

  Charge       = 0
  Multiplicity = 1
  Basis Set: AUG-CC-PVDZ
    Blend: AUG-CC-PVDZ
  Basis Set: (AUG-CC-PVDZ AUX)
    Blend: AUG-CC-PVDZ-JKFIT

    Orbital Energies [Eh]
    ---------------------

    Doubly Occupied:

       1A    -11.218257     2A    -11.218197     3A    -11.215630
       4A    -11.214007     5A    -11.214002     6A     -1.082655
       7A     -1.016567     8A     -0.919957     9A     -0.820638
      10A     -0.785492    11A     -0.646868    12A     -0.597952
      13A     -0.592218    14A     -0.553740    15A     -0.546801
      16A     -0.524524    17A     -0.493934    18A     -0.474911
      19A     -0.461164    20A     -0.458110    21A     -0.446003

  @DF-RHF Final Energy:  -196.35378450896749

   => Energetics <=

    Nuclear Repulsion Energy =            185.6560739156847717
    One-Electron Energy =                -631.0164617412901862
    Two-Electron Energy =                 249.0066033166379214
    Total Energy =                       -196.3537845089674931

  Dipole Moment: [D]
     X:    -0.0000      Y:     0.0846      Z:     0.0046     Total:     0.0847

    SAPT Results
  --------------------------------------------------------------------------------------------------------
    Electrostatics                 -0.00261809 [mEh]      -0.00164288 [kcal/mol]      -0.00687380 [kJ/mol]
      Elst10,r                     -0.00508098 [mEh]      -0.00318836 [kcal/mol]      -0.01334010 [kJ/mol]
      Elst12,r                      0.00246288 [mEh]       0.00154548 [kcal/mol]       0.00646630 [kJ/mol]

    Exchange                        0.00566099 [mEh]       0.00355232 [kcal/mol]       0.01486292 [kJ/mol]
      Exch10                        0.00489794 [mEh]       0.00307350 [kcal/mol]       0.01285954 [kJ/mol]
      Exch10(S^2)                   0.00489792 [mEh]       0.00307349 [kcal/mol]       0.01285949 [kJ/mol]
      Exch11(S^2)                  -0.00000636 [mEh]      -0.00000399 [kcal/mol]      -0.00001670 [kJ/mol]
      Exch12(S^2)                   0.00076941 [mEh]       0.00048281 [kcal/mol]       0.00202008 [kJ/mol]

    Induction                      -0.00328982 [mEh]      -0.00206439 [kcal/mol]      -0.00863741 [kJ/mol]
      Ind20,r                      -0.00318596 [mEh]      -0.00199922 [kcal/mol]      -0.00836474 [kJ/mol]
      Ind22                         0.00001846 [mEh]       0.00001158 [kcal/mol]       0.00004847 [kJ/mol]
      Exch-Ind20,r                  0.00073347 [mEh]       0.00046026 [kcal/mol]       0.00192572 [kJ/mol]
      Exch-Ind22                   -0.00000425 [mEh]      -0.00000267 [kcal/mol]      -0.00001116 [kJ/mol]
      delta HF,r (2)               -0.00085153 [mEh]      -0.00053434 [kcal/mol]      -0.00223570 [kJ/mol]

    Dispersion                     -0.37744705 [mEh]      -0.23685160 [kcal/mol]      -0.99098709 [kJ/mol]
      Disp20                       -0.38687090 [mEh]      -0.24276515 [kcal/mol]      -1.01572940 [kJ/mol]
      Disp21                        0.04668045 [mEh]       0.02929243 [kcal/mol]       0.12255951 [kJ/mol]
      Disp22 (SDQ)                  0.01880215 [mEh]       0.01179853 [kcal/mol]       0.04936503 [kJ/mol]
      Disp22 (T)                   -0.05592796 [mEh]      -0.03509532 [kcal/mol]      -0.14683883 [kJ/mol]
      Est. Disp22 (T)              -0.05710748 [mEh]      -0.03583548 [kcal/mol]      -0.14993566 [kJ/mol]
      Exch-Disp20                   0.00104872 [mEh]       0.00065808 [kcal/mol]       0.00275343 [kJ/mol]

  Total HF                         -0.00348706 [mEh]      -0.00218816 [kcal/mol]      -0.00915528 [kJ/mol]
  Total SAPT0                      -0.38930924 [mEh]      -0.24429523 [kcal/mol]      -1.02213126 [kJ/mol]
  Total SAPT2                      -0.38606910 [mEh]      -0.24226201 [kcal/mol]      -1.01362427 [kJ/mol]
  Total SAPT2+                     -0.37769397 [mEh]      -0.23700655 [kcal/mol]      -0.99163539 [kJ/mol]

  Special recipe for scaled SAPT0 (see Manual):
    Electrostatics sSAPT0          -0.00508098 [mEh]      -0.00318836 [kcal/mol]      -0.01334010 [kJ/mol]
    Exchange sSAPT0                 0.00489794 [mEh]       0.00307350 [kcal/mol]       0.01285954 [kJ/mol]
    Induction sSAPT0               -0.00330403 [mEh]      -0.00207331 [kcal/mol]      -0.00867472 [kJ/mol]
    Dispersion sSAPT0              -0.38582217 [mEh]      -0.24210707 [kcal/mol]      -1.01297598 [kJ/mol]
  Total sSAPT0                     -0.38930924 [mEh]      -0.24429523 [kcal/mol]      -1.02213126 [kJ/mol]
  --------------------------------------------------------------------------------------------------------

*** Psi4 exiting successfully. Buy a developer a beer!
