                               Psi4 1.4a2.dev224

  ==> Input File <==

--------------------------------------------------------------------------
#Generated by lconvert.py for sapt job

memory 20 GB

molecule  {
0 1
  C       1.372190    1.012480    0.970830
  H       0.952180    2.014050    1.033120
  H       1.947420    0.926520    0.050720
  H       2.051700    0.851830    1.802950
  C       0.326740   -0.077650    0.988200
  O       0.618820   -1.252480    1.171280
  N      -0.950030    0.344890    0.773920
  H      -1.104670    1.322030    0.606110
  C      -2.059850   -0.577370    0.680150
  H      -1.669360   -1.566800    0.897180
  H      -2.834590   -0.331380    1.403660
  H      -2.490970   -0.578930   -0.319940
--
0 1
  C       2.796380    0.557740    6.443170
  H       2.913220    1.312150    5.664430
  H       2.710270    1.082620    7.394830
  H       3.708470   -0.036500    6.469980
  C       1.568110   -0.305650    6.185620
  H       1.473540   -1.051100    6.978670
  H       1.684530   -0.859110    5.251780
  C       0.285570    0.512970    6.120320
  H       0.174000    1.090700    7.043400
  H       0.364810    1.245780    5.310670
  C      -0.958780   -0.337370    5.903440
  H      -1.049580   -1.051860    6.724860
  H      -0.830980   -0.926310    4.993230
  C      -2.225620    0.502920    5.813330
  H      -2.158710    1.209970    4.985560
  H      -3.110960   -0.113100    5.659490
  H      -2.375980    1.079130    6.726550
units angstrom
no_reorient
symmetry c1
}

set {
scf_type DF
basis aug-cc-pvdz
freeze_core True
guess SAD
}
energy('sapt2+')
--------------------------------------------------------------------------

  //              Dimer HF             //
    Molecular point group: c1
  Charge       = 0
  Multiplicity = 1
  Basis Set: AUG-CC-PVDZ
    Blend: AUG-CC-PVDZ
  Basis Set: (AUG-CC-PVDZ AUX)
    Blend: AUG-CC-PVDZ-JKFIT
  @DF-RHF Final Energy:  -443.39582304868236
    Total Energy =                       -443.3958230486823595
  //            Monomer A HF           //
    Molecular point group: c1
  Multiplicity = 1
  Basis Set: AUG-CC-PVDZ
    Blend: AUG-CC-PVDZ
  Basis Set: (AUG-CC-PVDZ AUX)
    Blend: AUG-CC-PVDZ-JKFIT
  @DF-RHF Final Energy:  -247.04182874615228
    Total Energy =                       -247.0418287461523050
  //            Monomer B HF           //
    Molecular point group: c1

    Geometry (in Angstrom), charge = 0, multiplicity = 1:

       Center              X                  Y                   Z               Mass
    ------------   -----------------  -----------------  -----------------  -----------------
      Gh(C)           1.301856827384     0.971716308894    -2.516163017090    12.000000000000
      Gh(H)           0.881846827384     1.973286308894    -2.453873017090     1.007825032230
      Gh(H)           1.877086827384     0.885756308894    -3.436273017090     1.007825032230
      Gh(H)           1.981366827384     0.811066308894    -1.684043017090     1.007825032230
      Gh(C)           0.256406827384    -0.118413691106    -2.498793017090    12.000000000000
      Gh(O)           0.548486827384    -1.293243691106    -2.315713017090    15.994914619570
      Gh(N)          -1.020363172616     0.304126308894    -2.713073017090    14.003074004430
      Gh(H)          -1.175003172616     1.281266308894    -2.880883017090     1.007825032230
      Gh(C)          -2.130183172616    -0.618133691106    -2.806843017090    12.000000000000
      Gh(H)          -1.739693172616    -1.607563691106    -2.589813017090     1.007825032230
      Gh(H)          -2.904923172616    -0.372143691106    -2.083333017090     1.007825032230
      Gh(H)          -2.561303172616    -0.619693691106    -3.806933017090     1.007825032230
         C            2.726046827384     0.516976308894     2.956176982910    12.000000000000
         H            2.842886827384     1.271386308894     2.177436982910     1.007825032230
         H            2.639936827384     1.041856308894     3.907836982910     1.007825032230
         H            3.638136827384    -0.077263691106     2.982986982910     1.007825032230
         C            1.497776827384    -0.346413691106     2.698626982910    12.000000000000
         H            1.403206827384    -1.091863691106     3.491676982910     1.007825032230
         H            1.614196827384    -0.899873691106     1.764786982910     1.007825032230
         C            0.215236827384     0.472206308894     2.633326982910    12.000000000000
         H            0.103666827384     1.049936308894     3.556406982910     1.007825032230
         H            0.294476827384     1.205016308894     1.823676982910     1.007825032230
         C           -1.029113172616    -0.378133691106     2.416446982910    12.000000000000
         H           -1.119913172616    -1.092623691106     3.237866982910     1.007825032230
         H           -0.901313172616    -0.967073691106     1.506236982910     1.007825032230
         C           -2.295953172616     0.462156308894     2.326336982910    12.000000000000
         H           -2.229043172616     1.169206308894     1.498566982910     1.007825032230
         H           -3.181293172616    -0.153863691106     2.172496982910     1.007825032230
         H           -2.446313172616     1.038366308894     3.239556982910     1.007825032230

  Charge       = 0
  Multiplicity = 1
  Basis Set: AUG-CC-PVDZ
    Blend: AUG-CC-PVDZ
  Basis Set: (AUG-CC-PVDZ AUX)
    Blend: AUG-CC-PVDZ-JKFIT

    Orbital Energies [Eh]
    ---------------------

    Doubly Occupied:

       1A    -11.218289     2A    -11.218084     3A    -11.215615
       4A    -11.214096     5A    -11.214064     6A     -1.082664
       7A     -1.016507     8A     -0.919691     9A     -0.820638
      10A     -0.785465    11A     -0.646914    12A     -0.597855
      13A     -0.592248    14A     -0.553602    15A     -0.546627
      16A     -0.524328    17A     -0.494121    18A     -0.475042
      19A     -0.461343    20A     -0.458094    21A     -0.445618

  @DF-RHF Final Energy:  -196.35381141544963

   => Energetics <=

    Nuclear Repulsion Energy =            185.6770318948452996
    One-Electron Energy =                -631.0598819458145954
    Two-Electron Energy =                 249.0290386355196688
    Total Energy =                       -196.3538114154496270

  Dipole Moment: [D]
     X:     0.0025      Y:    -0.0857      Z:    -0.0043     Total:     0.0858

    SAPT Results
  --------------------------------------------------------------------------------------------------------
    Electrostatics                 -0.13343391 [mEh]      -0.08373104 [kcal/mol]      -0.35033068 [kJ/mol]
      Elst10,r                     -0.13628950 [mEh]      -0.08552295 [kcal/mol]      -0.35782803 [kJ/mol]
      Elst12,r                      0.00285559 [mEh]       0.00179191 [kcal/mol]       0.00749735 [kJ/mol]

    Exchange                        0.06228766 [mEh]       0.03908610 [kcal/mol]       0.16353624 [kJ/mol]
      Exch10                        0.04804785 [mEh]       0.03015048 [kcal/mol]       0.12614962 [kJ/mol]
      Exch10(S^2)                   0.04804788 [mEh]       0.03015050 [kcal/mol]       0.12614968 [kJ/mol]
      Exch11(S^2)                  -0.00096531 [mEh]      -0.00060574 [kcal/mol]      -0.00253441 [kJ/mol]
      Exch12(S^2)                   0.01520512 [mEh]       0.00954136 [kcal/mol]       0.03992103 [kJ/mol]

    Induction                      -0.08272438 [mEh]      -0.05191033 [kcal/mol]      -0.21719282 [kJ/mol]
      Ind20,r                      -0.09614271 [mEh]      -0.06033046 [kcal/mol]      -0.25242264 [kJ/mol]
      Ind22                         0.01262842 [mEh]       0.00792445 [kcal/mol]       0.03315591 [kJ/mol]
      Exch-Ind20,r                  0.00538529 [mEh]       0.00337932 [kcal/mol]       0.01413908 [kJ/mol]
      Exch-Ind22                   -0.00070736 [mEh]      -0.00044388 [kcal/mol]      -0.00185718 [kJ/mol]
      delta HF,r (2)               -0.00388802 [mEh]      -0.00243977 [kcal/mol]      -0.01020800 [kJ/mol]

    Dispersion                     -1.38399157 [mEh]      -0.86846782 [kcal/mol]      -3.63366937 [kJ/mol]
      Disp20                       -1.38023299 [mEh]      -0.86610928 [kcal/mol]      -3.62380121 [kJ/mol]
      Disp21                        0.23203157 [mEh]       0.14560201 [kcal/mol]       0.60919882 [kJ/mol]
      Disp22 (SDQ)                 -0.01894909 [mEh]      -0.01189073 [kcal/mol]      -0.04975083 [kJ/mol]
      Disp22 (T)                   -0.21975334 [mEh]      -0.13789730 [kcal/mol]      -0.57696231 [kJ/mol]
      Est. Disp22 (T)              -0.22635290 [mEh]      -0.14203859 [kcal/mol]      -0.59428945 [kJ/mol]
      Exch-Disp20                   0.00951183 [mEh]       0.00596876 [kcal/mol]       0.02497330 [kJ/mol]

  Total HF                         -0.18288708 [mEh]      -0.11476338 [kcal/mol]      -0.48016996 [kJ/mol]
  Total SAPT0                      -1.55360824 [mEh]      -0.97490389 [kcal/mol]      -4.07899787 [kJ/mol]
  Total SAPT2                      -1.52459178 [mEh]      -0.95669579 [kcal/mol]      -4.00281517 [kJ/mol]
  Total SAPT2+                     -1.53786219 [mEh]      -0.96502310 [kcal/mol]      -4.03765663 [kJ/mol]

  Special recipe for scaled SAPT0 (see Manual):
    Electrostatics sSAPT0          -0.13628950 [mEh]      -0.08552295 [kcal/mol]      -0.35782803 [kJ/mol]
    Exchange sSAPT0                 0.04804785 [mEh]       0.03015048 [kcal/mol]       0.12614962 [kJ/mol]
    Induction sSAPT0               -0.09464544 [mEh]      -0.05939091 [kcal/mol]      -0.24849157 [kJ/mol]
    Dispersion sSAPT0              -1.37072117 [mEh]      -0.86014052 [kcal/mol]      -3.59882794 [kJ/mol]
  Total sSAPT0                     -1.55360826 [mEh]      -0.97490390 [kcal/mol]      -4.07899792 [kJ/mol]
  --------------------------------------------------------------------------------------------------------

*** Psi4 exiting successfully. Buy a developer a beer!
