                               Psi4 1.4a2.dev224

  ==> Input File <==

--------------------------------------------------------------------------
#Generated by lconvert.py for sapt job

memory 20 GB

molecule  {
0 1
  C       1.372190    1.012480    0.970830
  H       0.952180    2.014050    1.033120
  H       1.947420    0.926520    0.050720
  H       2.051700    0.851830    1.802950
  C       0.326740   -0.077650    0.988200
  O       0.618820   -1.252480    1.171280
  N      -0.950030    0.344890    0.773920
  H      -1.104670    1.322030    0.606110
  C      -2.059850   -0.577370    0.680150
  H      -1.669360   -1.566800    0.897180
  H      -2.834590   -0.331380    1.403660
  H      -2.490970   -0.578930   -0.319940
--
0 1
  C       2.730370    0.511530    5.669860
  H       2.847210    1.265950    4.891110
  H       2.644260    1.036420    6.621510
  H       3.642460   -0.082710    5.696670
  C       1.502100   -0.351850    5.412310
  H       1.407530   -1.097310    6.205360
  H       1.618520   -0.905320    4.478460
  C       0.219560    0.466760    5.347010
  H       0.107990    1.044490    6.270090
  H       0.298790    1.199570    4.537350
  C      -1.024800   -0.383580    5.130120
  H      -1.115600   -1.098060    5.951540
  H      -0.896990   -0.972510    4.219910
  C      -2.291640    0.456710    5.040010
  H      -2.224720    1.163770    4.212240
  H      -3.176980   -0.159300    4.886180
  H      -2.441990    1.032930    5.953230
units angstrom
no_reorient
symmetry c1
}

set {
scf_type DF
basis aug-cc-pvdz
freeze_core True
guess SAD
}
energy('sapt2+')
--------------------------------------------------------------------------

  //              Dimer HF             //
    Molecular point group: c1
  Charge       = 0
  Multiplicity = 1
  Basis Set: AUG-CC-PVDZ
    Blend: AUG-CC-PVDZ
  Basis Set: (AUG-CC-PVDZ AUX)
    Blend: AUG-CC-PVDZ-JKFIT
  @DF-RHF Final Energy:  -443.39611702634431
    Total Energy =                       -443.3961170263443137
  //            Monomer A HF           //
    Molecular point group: c1
  Multiplicity = 1
  Basis Set: AUG-CC-PVDZ
    Blend: AUG-CC-PVDZ
  Basis Set: (AUG-CC-PVDZ AUX)
    Blend: AUG-CC-PVDZ-JKFIT
  @DF-RHF Final Energy:  -247.04210792246727
    Total Energy =                       -247.0421079224672667
  //            Monomer B HF           //
    Molecular point group: c1

    Geometry (in Angstrom), charge = 0, multiplicity = 1:

       Center              X                  Y                   Z               Mass
    ------------   -----------------  -----------------  -----------------  -----------------
      Gh(C)           1.334645652565     0.994667360553    -2.132060116569    12.000000000000
      Gh(H)           0.914635652565     1.996237360553    -2.069770116569     1.007825032230
      Gh(H)           1.909875652565     0.908707360553    -3.052170116569     1.007825032230
      Gh(H)           2.014155652565     0.834017360553    -1.299940116569     1.007825032230
      Gh(C)           0.289195652565    -0.095462639447    -2.114690116569    12.000000000000
      Gh(O)           0.581275652565    -1.270292639447    -1.931610116569    15.994914619570
      Gh(N)          -0.987574347435     0.327077360553    -2.328970116569    14.003074004430
      Gh(H)          -1.142214347435     1.304217360553    -2.496780116569     1.007825032230
      Gh(C)          -2.097394347435    -0.595182639447    -2.422740116569    12.000000000000
      Gh(H)          -1.706904347435    -1.584612639447    -2.205710116569     1.007825032230
      Gh(H)          -2.872134347435    -0.349192639447    -1.699230116569     1.007825032230
      Gh(H)          -2.528514347435    -0.596742639447    -3.422830116569     1.007825032230
         C            2.692825652565     0.493717360553     2.566969883431    12.000000000000
         H            2.809665652565     1.248137360553     1.788219883431     1.007825032230
         H            2.606715652565     1.018607360553     3.518619883431     1.007825032230
         H            3.604915652565    -0.100522639447     2.593779883431     1.007825032230
         C            1.464555652565    -0.369662639447     2.309419883431    12.000000000000
         H            1.369985652565    -1.115122639447     3.102469883431     1.007825032230
         H            1.580975652565    -0.923132639447     1.375569883431     1.007825032230
         C            0.182015652565     0.448947360553     2.244119883431    12.000000000000
         H            0.070445652565     1.026677360553     3.167199883431     1.007825032230
         H            0.261245652565     1.181757360553     1.434459883431     1.007825032230
         C           -1.062344347435    -0.401392639447     2.027229883431    12.000000000000
         H           -1.153144347435    -1.115872639447     2.848649883431     1.007825032230
         H           -0.934534347435    -0.990322639447     1.117019883431     1.007825032230
         C           -2.329184347435     0.438897360553     1.937119883431    12.000000000000
         H           -2.262264347435     1.145957360553     1.109349883431     1.007825032230
         H           -3.214524347435    -0.177112639447     1.783289883431     1.007825032230
         H           -2.479534347435     1.015117360553     2.850339883431     1.007825032230

  Charge       = 0
  Multiplicity = 1
  Basis Set: AUG-CC-PVDZ
    Blend: AUG-CC-PVDZ
  Basis Set: (AUG-CC-PVDZ AUX)
    Blend: AUG-CC-PVDZ-JKFIT

    Orbital Energies [Eh]
    ---------------------

    Doubly Occupied:

       1A    -11.218272     2A    -11.218061     3A    -11.215594
       4A    -11.214043     5A    -11.214036     6A     -1.082658
       7A     -1.016502     8A     -0.919687     9A     -0.820633
      10A     -0.785462    11A     -0.646918    12A     -0.597854
      13A     -0.592246    14A     -0.553600    15A     -0.546629
      16A     -0.524327    17A     -0.494121    18A     -0.475042
      19A     -0.461348    20A     -0.458094    21A     -0.445615

  @DF-RHF Final Energy:  -196.35394123199541

   => Energetics <=

    Nuclear Repulsion Energy =            185.6768014052919966
    One-Electron Energy =                -631.0600053999186230
    Two-Electron Energy =                 249.0292627626312196
    Total Energy =                       -196.3539412319954067

  Dipole Moment: [D]
     X:     0.0026      Y:    -0.0861      Z:    -0.0039     Total:     0.0862

    SAPT Results
  --------------------------------------------------------------------------------------------------------
    Electrostatics                 -0.50592779 [mEh]      -0.31747448 [kcal/mol]      -1.32831324 [kJ/mol]
      Elst10,r                     -0.45434027 [mEh]      -0.28510282 [kcal/mol]      -1.19287021 [kJ/mol]
      Elst12,r                     -0.05158753 [mEh]      -0.03237166 [kcal/mol]      -0.13544303 [kJ/mol]

    Exchange                        0.81961656 [mEh]       0.51431716 [kcal/mol]       2.15190298 [kJ/mol]
      Exch10                        0.66544758 [mEh]       0.41757466 [kcal/mol]       1.74713238 [kJ/mol]
      Exch10(S^2)                   0.66541501 [mEh]       0.41755422 [kcal/mol]       1.74704686 [kJ/mol]
      Exch11(S^2)                  -0.00197531 [mEh]      -0.00123952 [kcal/mol]      -0.00518616 [kJ/mol]
      Exch12(S^2)                   0.15614429 [mEh]       0.09798202 [kcal/mol]       0.40995677 [kJ/mol]

    Induction                      -0.27333594 [mEh]      -0.17152089 [kcal/mol]      -0.71764342 [kJ/mol]
      Ind20,r                      -0.32670149 [mEh]      -0.20500828 [kcal/mol]      -0.85775465 [kJ/mol]
      Ind22                         0.00781069 [mEh]       0.00490128 [kcal/mol]       0.02050696 [kJ/mol]
      Exch-Ind20,r                  0.09065858 [mEh]       0.05688912 [kcal/mol]       0.23802408 [kJ/mol]
      Exch-Ind22                   -0.00216744 [mEh]      -0.00136009 [kcal/mol]      -0.00569061 [kJ/mol]
      delta HF,r (2)               -0.04293628 [mEh]      -0.02694292 [kcal/mol]      -0.11272919 [kJ/mol]

    Dispersion                     -3.70471703 [mEh]      -2.32474503 [kcal/mol]      -9.72673322 [kJ/mol]
      Disp20                       -3.68963174 [mEh]      -2.31527887 [kcal/mol]      -9.68712681 [kJ/mol]
      Disp21                        0.53308304 [mEh]       0.33451466 [kcal/mol]       1.39960933 [kJ/mol]
      Disp22 (SDQ)                 -0.05290083 [mEh]      -0.03319577 [kcal/mol]      -0.13889111 [kJ/mol]
      Disp22 (T)                   -0.57140329 [mEh]      -0.35856098 [kcal/mol]      -1.50021913 [kJ/mol]
      Est. Disp22 (T)              -0.59900109 [mEh]      -0.37587886 [kcal/mol]      -1.57267715 [kJ/mol]
      Exch-Disp20                   0.10373360 [mEh]       0.06509381 [kcal/mol]       0.27235252 [kJ/mol]

  Total HF                         -0.06787188 [mEh]      -0.04259025 [kcal/mol]      -0.17819760 [kJ/mol]
  Total SAPT0                      -3.65377003 [mEh]      -2.29277531 [kcal/mol]      -9.59297189 [kJ/mol]
  Total SAPT2                      -3.54554533 [mEh]      -2.22486328 [kcal/mol]      -9.30882798 [kJ/mol]
  Total SAPT2+                     -3.66436421 [mEh]      -2.29942326 [kcal/mol]      -9.62078691 [kJ/mol]

  Special recipe for scaled SAPT0 (see Manual):
    Electrostatics sSAPT0          -0.45434027 [mEh]      -0.28510282 [kcal/mol]      -1.19287021 [kJ/mol]
    Exchange sSAPT0                 0.66544758 [mEh]       0.41757466 [kcal/mol]       1.74713238 [kJ/mol]
    Induction sSAPT0               -0.27896588 [mEh]      -0.17505373 [kcal/mol]      -0.73242482 [kJ/mol]
    Dispersion sSAPT0              -3.58588291 [mEh]      -2.25017550 [kcal/mol]      -9.41473430 [kJ/mol]
  Total sSAPT0                     -3.65374148 [mEh]      -2.29275740 [kcal/mol]      -9.59289694 [kJ/mol]
  --------------------------------------------------------------------------------------------------------

*** Psi4 exiting successfully. Buy a developer a beer!
