                               Psi4 1.4a2.dev224

  ==> Input File <==

--------------------------------------------------------------------------
#Generated by lconvert.py for sapt job

memory 20 GB

molecule  {
0 1
  C       1.372190    1.012480    0.970830
  H       0.952180    2.014050    1.033120
  H       1.947420    0.926520    0.050720
  H       2.051700    0.851830    1.802950
  C       0.326740   -0.077650    0.988200
  O       0.618820   -1.252480    1.171280
  N      -0.950030    0.344890    0.773920
  H      -1.104670    1.322030    0.606110
  C      -2.059850   -0.577370    0.680150
  H      -1.669360   -1.566800    0.897180
  H      -2.834590   -0.331380    1.403660
  H      -2.490970   -0.578930   -0.319940
--
0 1
  C       2.862400    0.603940    7.216490
  H       2.979240    1.358360    6.437740
  H       2.776290    1.128830    8.168150
  H       3.774490    0.009700    7.243300
  C       1.634130   -0.259440    6.958940
  H       1.539560   -1.004900    7.751990
  H       1.750550   -0.812910    6.025100
  C       0.351590    0.559170    6.893640
  H       0.240020    1.136910    7.816720
  H       0.430820    1.291990    6.083990
  C      -0.892770   -0.291160    6.676760
  H      -0.983570   -1.005650    7.498170
  H      -0.764960   -0.880100    5.766540
  C      -2.159610    0.549130    6.586640
  H      -2.092690    1.256180    5.758870
  H      -3.044950   -0.066890    6.432810
  H      -2.309960    1.125340    7.499860
units angstrom
no_reorient
symmetry c1
}

set {
scf_type DF
basis aug-cc-pvdz
freeze_core True
guess SAD
}
energy('sapt2+')
--------------------------------------------------------------------------

  //              Dimer HF             //
    Molecular point group: c1
  Charge       = 0
  Multiplicity = 1
  Basis Set: AUG-CC-PVDZ
    Blend: AUG-CC-PVDZ
  Basis Set: (AUG-CC-PVDZ AUX)
    Blend: AUG-CC-PVDZ-JKFIT
  @DF-RHF Final Energy:  -443.39559900510324
    Total Energy =                       -443.3955990051032359
  //            Monomer A HF           //
    Molecular point group: c1
  Multiplicity = 1
  Basis Set: AUG-CC-PVDZ
    Blend: AUG-CC-PVDZ
  Basis Set: (AUG-CC-PVDZ AUX)
    Blend: AUG-CC-PVDZ-JKFIT
  @DF-RHF Final Energy:  -247.04173993554633
    Total Energy =                       -247.0417399355463317
  //            Monomer B HF           //
    Molecular point group: c1

    Geometry (in Angstrom), charge = 0, multiplicity = 1:

       Center              X                  Y                   Z               Mass
    ------------   -----------------  -----------------  -----------------  -----------------
      Gh(C)           1.269066758843     0.948765806244    -2.900267501676    12.000000000000
      Gh(H)           0.849056758843     1.950335806244    -2.837977501676     1.007825032230
      Gh(H)           1.844296758843     0.862805806244    -3.820377501676     1.007825032230
      Gh(H)           1.948576758843     0.788115806244    -2.068147501676     1.007825032230
      Gh(C)           0.223616758843    -0.141364193756    -2.882897501676    12.000000000000
      Gh(O)           0.515696758843    -1.316194193756    -2.699817501676    15.994914619570
      Gh(N)          -1.053153241157     0.281175806244    -3.097177501676    14.003074004430
      Gh(H)          -1.207793241157     1.258315806244    -3.264987501676     1.007825032230
      Gh(C)          -2.162973241157    -0.641084193756    -3.190947501676    12.000000000000
      Gh(H)          -1.772483241157    -1.630514193756    -2.973917501676     1.007825032230
      Gh(H)          -2.937713241157    -0.395094193756    -2.467437501676     1.007825032230
      Gh(H)          -2.594093241157    -0.642644193756    -4.191037501676     1.007825032230
         C            2.759276758843     0.540225806244     3.345392498324    12.000000000000
         H            2.876116758843     1.294645806244     2.566642498324     1.007825032230
         H            2.673166758843     1.065115806244     4.297052498324     1.007825032230
         H            3.671366758843    -0.054014193756     3.372202498324     1.007825032230
         C            1.531006758843    -0.323154193756     3.087842498324    12.000000000000
         H            1.436436758843    -1.068614193756     3.880892498324     1.007825032230
         H            1.647426758843    -0.876624193756     2.154002498324     1.007825032230
         C            0.248466758843     0.495455806244     3.022542498324    12.000000000000
         H            0.136896758843     1.073195806244     3.945622498324     1.007825032230
         H            0.327696758843     1.228275806244     2.212892498324     1.007825032230
         C           -0.995893241157    -0.354874193756     2.805662498324    12.000000000000
         H           -1.086693241157    -1.069364193756     3.627072498324     1.007825032230
         H           -0.868083241157    -0.943814193756     1.895442498324     1.007825032230
         C           -2.262733241157     0.485415806244     2.715542498324    12.000000000000
         H           -2.195813241157     1.192465806244     1.887772498324     1.007825032230
         H           -3.148073241157    -0.130604193756     2.561712498324     1.007825032230
         H           -2.413083241157     1.061625806244     3.628762498324     1.007825032230

  Charge       = 0
  Multiplicity = 1
  Basis Set: AUG-CC-PVDZ
    Blend: AUG-CC-PVDZ
  Basis Set: (AUG-CC-PVDZ AUX)
    Blend: AUG-CC-PVDZ-JKFIT

    Orbital Energies [Eh]
    ---------------------

    Doubly Occupied:

       1A    -11.218299     2A    -11.218094     3A    -11.215630
       4A    -11.214124     5A    -11.214079     6A     -1.082666
       7A     -1.016509     8A     -0.919694     9A     -0.820640
      10A     -0.785466    11A     -0.646906    12A     -0.597858
      13A     -0.592248    14A     -0.553603    15A     -0.546631
      16A     -0.524329    17A     -0.494121    18A     -0.475043
      19A     -0.461342    20A     -0.458095    21A     -0.445625

  @DF-RHF Final Energy:  -196.35375212363712

   => Energetics <=

    Nuclear Repulsion Energy =            185.6768250282276824
    One-Electron Energy =                -631.0591470235084444
    Two-Electron Energy =                 249.0285698716436684
    Total Energy =                       -196.3537521236371219

  Dipole Moment: [D]
     X:     0.0026      Y:    -0.0853      Z:    -0.0046     Total:     0.0855

    SAPT Results
  --------------------------------------------------------------------------------------------------------
    Electrostatics                 -0.06537700 [mEh]      -0.04102468 [kcal/mol]      -0.17164728 [kJ/mol]
      Elst10,r                     -0.06939509 [mEh]      -0.04354608 [kcal/mol]      -0.18219678 [kJ/mol]
      Elst12,r                      0.00401809 [mEh]       0.00252139 [kcal/mol]       0.01054950 [kJ/mol]

    Exchange                        0.00446059 [mEh]       0.00279906 [kcal/mol]       0.01171127 [kJ/mol]
      Exch10                        0.00332411 [mEh]       0.00208591 [kcal/mol]       0.00872745 [kJ/mol]
      Exch10(S^2)                   0.00332411 [mEh]       0.00208591 [kcal/mol]       0.00872746 [kJ/mol]
      Exch11(S^2)                  -0.00013903 [mEh]      -0.00008724 [kcal/mol]      -0.00036503 [kJ/mol]
      Exch12(S^2)                   0.00127551 [mEh]       0.00080039 [kcal/mol]       0.00334885 [kJ/mol]

    Induction                      -0.03455402 [mEh]      -0.02168298 [kcal/mol]      -0.09072157 [kJ/mol]
      Ind20,r                      -0.04066976 [mEh]      -0.02552066 [kcal/mol]      -0.10677843 [kJ/mol]
      Ind22                         0.00639086 [mEh]       0.00401032 [kcal/mol]       0.01677920 [kJ/mol]
      Exch-Ind20,r                  0.00044507 [mEh]       0.00027929 [kcal/mol]       0.00116853 [kJ/mol]
      Exch-Ind22                   -0.00006994 [mEh]      -0.00004389 [kcal/mol]      -0.00018362 [kJ/mol]
      delta HF,r (2)               -0.00065026 [mEh]      -0.00040804 [kcal/mol]      -0.00170725 [kJ/mol]

    Dispersion                     -0.59412762 [mEh]      -0.37282071 [kcal/mol]      -1.55988184 [kJ/mol]
      Disp20                       -0.59984204 [mEh]      -0.37640656 [kcal/mol]      -1.57488505 [kJ/mol]
      Disp21                        0.11112721 [mEh]       0.06973337 [kcal/mol]       0.29176444 [kJ/mol]
      Disp22 (SDQ)                 -0.00739604 [mEh]      -0.00464109 [kcal/mol]      -0.01941831 [kJ/mol]
      Disp22 (T)                   -0.09733709 [mEh]      -0.06107995 [kcal/mol]      -0.25555849 [kJ/mol]
      Est. Disp22 (T)              -0.09882501 [mEh]      -0.06201363 [kcal/mol]      -0.25946502 [kJ/mol]
      Exch-Disp20                   0.00080826 [mEh]       0.00050719 [kcal/mol]       0.00212209 [kJ/mol]

  Total HF                         -0.10694592 [mEh]      -0.06710958 [kcal/mol]      -0.28078647 [kJ/mol]
  Total SAPT0                      -0.70597969 [mEh]      -0.44300895 [kcal/mol]      -1.85354943 [kJ/mol]
  Total SAPT2                      -0.69450420 [mEh]      -0.43580797 [kcal/mol]      -1.82342054 [kJ/mol]
  Total SAPT2+                     -0.68959805 [mEh]      -0.43272931 [kcal/mol]      -1.81053942 [kJ/mol]

  Special recipe for scaled SAPT0 (see Manual):
    Electrostatics sSAPT0          -0.06939509 [mEh]      -0.04354608 [kcal/mol]      -0.18219678 [kJ/mol]
    Exchange sSAPT0                 0.00332411 [mEh]       0.00208591 [kcal/mol]       0.00872745 [kJ/mol]
    Induction sSAPT0               -0.04087494 [mEh]      -0.02564941 [kcal/mol]      -0.10731715 [kJ/mol]
    Dispersion sSAPT0              -0.59903377 [mEh]      -0.37589937 [kcal/mol]      -1.57276296 [kJ/mol]
  Total sSAPT0                     -0.70597969 [mEh]      -0.44300895 [kcal/mol]      -1.85354943 [kJ/mol]
  --------------------------------------------------------------------------------------------------------

*** Psi4 exiting successfully. Buy a developer a beer!
