                               Psi4 1.4a2.dev224

  ==> Input File <==

--------------------------------------------------------------------------
#Generated by lconvert.py for sapt job

memory 20 GB

molecule  {
0 1
  C       0.729190    1.113100    0.326730
  H       1.303220    2.014220    0.159160
  C       1.375090   -0.119370    0.412780
  H       2.450520   -0.174620    0.313310
  C       0.635040   -1.280550    0.629380
  H       1.136330   -2.236020    0.700220
  C      -0.750990   -1.209650    0.757890
  H      -1.324530   -2.111410    0.924200
  C      -1.397030    0.022670    0.673090
  H      -2.472420    0.078490    0.774000
  C      -0.656900    1.184300    0.458340
  H      -1.157830    2.140590    0.395100
--
0 1
  C       0.533160    0.702440    7.296390
  H       0.655290    0.927920    6.245960
  C      -0.557920   -0.052460    7.723730
  H      -1.278420   -0.408980    7.000030
  C      -0.718620   -0.346590    9.076680
  H      -1.565730   -0.932560    9.406920
  C       0.213260    0.114470   10.005170
  H       0.089370   -0.113500   11.055180
  C       1.304850    0.869570    9.579930
  H       2.027970    1.227400   10.300310
  C       1.463650    1.163050    8.226440
  H       2.310910    1.749130    7.896390
units angstrom
no_reorient
symmetry c1
}

set {
scf_type DF
basis aug-cc-pvdz
freeze_core True
guess SAD
}
energy('sapt2+')
--------------------------------------------------------------------------

  //              Dimer HF             //
    Molecular point group: c1
  Charge       = 0
  Multiplicity = 1
  Basis Set: AUG-CC-PVDZ
    Blend: AUG-CC-PVDZ
  Basis Set: (AUG-CC-PVDZ AUX)
    Blend: AUG-CC-PVDZ-JKFIT
  @DF-RHF Final Energy:  -461.45598844378605
    Total Energy =                       -461.4559884437860546
  //            Monomer A HF           //
    Molecular point group: c1
  Multiplicity = 1
  Basis Set: AUG-CC-PVDZ
    Blend: AUG-CC-PVDZ
  Basis Set: (AUG-CC-PVDZ AUX)
    Blend: AUG-CC-PVDZ-JKFIT
  @DF-RHF Final Energy:  -230.72794151225122
    Total Energy =                       -230.7279415122512205
  //            Monomer B HF           //
    Molecular point group: c1

    Geometry (in Angstrom), charge = 0, multiplicity = 1:

       Center              X                  Y                   Z               Mass
    ------------   -----------------  -----------------  -----------------  -----------------
      Gh(C)           0.548112732592     0.933020399423    -4.270509811124    12.000000000000
      Gh(H)           1.122142732592     1.834140399423    -4.438079811124     1.007825032230
      Gh(C)           1.194012732592    -0.299449600577    -4.184459811124    12.000000000000
      Gh(H)           2.269442732592    -0.354699600577    -4.283929811124     1.007825032230
      Gh(C)           0.453962732592    -1.460629600577    -3.967859811124    12.000000000000
      Gh(H)           0.955252732592    -2.416099600577    -3.897019811124     1.007825032230
      Gh(C)          -0.932067267408    -1.389729600577    -3.839349811124    12.000000000000
      Gh(H)          -1.505607267408    -2.291489600577    -3.673039811124     1.007825032230
      Gh(C)          -1.578107267408    -0.157409600577    -3.924149811124    12.000000000000
      Gh(H)          -2.653497267408    -0.101589600577    -3.823239811124     1.007825032230
      Gh(C)          -0.837977267408     1.004220399423    -4.138899811124    12.000000000000
      Gh(H)          -1.338907267408     1.960510399423    -4.202139811124     1.007825032230
         C            0.352082732592     0.522360399423     2.699150188876    12.000000000000
         H            0.474212732592     0.747840399423     1.648720188876     1.007825032230
         C           -0.738997267408    -0.232539600577     3.126490188876    12.000000000000
         H           -1.459497267408    -0.589059600577     2.402790188876     1.007825032230
         C           -0.899697267408    -0.526669600577     4.479440188876    12.000000000000
         H           -1.746807267408    -1.112639600577     4.809680188876     1.007825032230
         C            0.032182732592    -0.065609600577     5.407930188876    12.000000000000
         H           -0.091707267408    -0.293579600577     6.457940188876     1.007825032230
         C            1.123772732592     0.689490399423     4.982690188876    12.000000000000
         H            1.846892732592     1.047320399423     5.703070188876     1.007825032230
         C            1.282572732592     0.982970399423     3.629200188876    12.000000000000
         H            2.129832732592     1.569050399423     3.299150188876     1.007825032230

  Charge       = 0
  Multiplicity = 1
  Basis Set: AUG-CC-PVDZ
    Blend: AUG-CC-PVDZ
  Basis Set: (AUG-CC-PVDZ AUX)
    Blend: AUG-CC-PVDZ-JKFIT

    Orbital Energies [Eh]
    ---------------------

    Doubly Occupied:

       1A    -11.242311     2A    -11.241767     3A    -11.241730
       4A    -11.240548     5A    -11.240514     6A    -11.239934
       7A     -1.153184     8A     -1.017613     9A     -1.017211
      10A     -0.826051    11A     -0.825802    12A     -0.710586
      13A     -0.644982    14A     -0.619892    15A     -0.589044
      16A     -0.588481    17A     -0.501803    18A     -0.495338
      19A     -0.494412    20A     -0.336515    21A     -0.336342

  @DF-RHF Final Energy:  -230.72790144075404

   => Energetics <=

    Nuclear Repulsion Energy =            203.6769304630967099
    One-Electron Energy =                -713.6015498878499557
    Two-Electron Energy =                 279.1967179839991786
    Total Energy =                       -230.7279014407540672

  Dipole Moment: [D]
     X:     0.0007      Y:    -0.0010      Z:    -0.0017     Total:     0.0021

    SAPT Results
  --------------------------------------------------------------------------------------------------------
    Electrostatics                 -0.10255523 [mEh]      -0.06435438 [kcal/mol]      -0.26925872 [kJ/mol]
      Elst10,r                     -0.13932198 [mEh]      -0.08742586 [kcal/mol]      -0.36578981 [kJ/mol]
      Elst12,r                      0.03676675 [mEh]       0.02307148 [kcal/mol]       0.09653108 [kJ/mol]

    Exchange                        0.00019882 [mEh]       0.00012476 [kcal/mol]       0.00052200 [kJ/mol]
      Exch10                        0.00018430 [mEh]       0.00011565 [kcal/mol]       0.00048389 [kJ/mol]
      Exch10(S^2)                   0.00018430 [mEh]       0.00011565 [kcal/mol]       0.00048389 [kJ/mol]
      Exch11(S^2)                  -0.00000992 [mEh]      -0.00000623 [kcal/mol]      -0.00002605 [kJ/mol]
      Exch12(S^2)                   0.00002444 [mEh]       0.00001533 [kcal/mol]       0.00006416 [kJ/mol]

    Induction                      -0.00550006 [mEh]      -0.00345134 [kcal/mol]      -0.01444042 [kJ/mol]
      Ind20,r                      -0.00698742 [mEh]      -0.00438467 [kcal/mol]      -0.01834547 [kJ/mol]
      Ind22                         0.00086731 [mEh]       0.00054424 [kcal/mol]       0.00227712 [kJ/mol]
      Exch-Ind20,r                  0.00011494 [mEh]       0.00007213 [kcal/mol]       0.00030179 [kJ/mol]
      Exch-Ind22                   -0.00001427 [mEh]      -0.00000895 [kcal/mol]      -0.00003746 [kJ/mol]
      delta HF,r (2)                0.00051937 [mEh]       0.00032591 [kcal/mol]       0.00136361 [kJ/mol]

    Dispersion                     -0.19237859 [mEh]      -0.12071939 [kcal/mol]      -0.50508993 [kJ/mol]
      Disp20                       -0.22189052 [mEh]      -0.13923840 [kcal/mol]      -0.58257348 [kJ/mol]
      Disp21                        0.07734019 [mEh]       0.04853170 [kcal/mol]       0.20305663 [kJ/mol]
      Disp22 (SDQ)                  0.00170870 [mEh]       0.00107222 [kcal/mol]       0.00448618 [kJ/mol]
      Disp22 (T)                   -0.04918007 [mEh]      -0.03086096 [kcal/mol]      -0.12912225 [kJ/mol]
      Est. Disp22 (T)              -0.04960278 [mEh]      -0.03112622 [kcal/mol]      -0.13023209 [kJ/mol]
      Exch-Disp20                   0.00006583 [mEh]       0.00004131 [kcal/mol]       0.00017283 [kJ/mol]

  Total HF                         -0.14549078 [mEh]      -0.09129684 [kcal/mol]      -0.38198599 [kJ/mol]
  Total SAPT0                      -0.36731547 [mEh]      -0.23049394 [kcal/mol]      -0.96438665 [kJ/mol]
  Total SAPT2                      -0.32968117 [mEh]      -0.20687806 [kcal/mol]      -0.86557780 [kJ/mol]
  Total SAPT2+                     -0.30023507 [mEh]      -0.18840035 [kcal/mol]      -0.78826707 [kJ/mol]

  Special recipe for scaled SAPT0 (see Manual):
    Electrostatics sSAPT0          -0.13932198 [mEh]      -0.08742586 [kcal/mol]      -0.36578981 [kJ/mol]
    Exchange sSAPT0                 0.00018430 [mEh]       0.00011565 [kcal/mol]       0.00048389 [kJ/mol]
    Induction sSAPT0               -0.00635311 [mEh]      -0.00398663 [kcal/mol]      -0.01668008 [kJ/mol]
    Dispersion sSAPT0              -0.22182469 [mEh]      -0.13919710 [kcal/mol]      -0.58240065 [kJ/mol]
  Total sSAPT0                     -0.36731547 [mEh]      -0.23049394 [kcal/mol]      -0.96438665 [kJ/mol]
  --------------------------------------------------------------------------------------------------------

*** Psi4 exiting successfully. Buy a developer a beer!
