                               Psi4 1.4a2.dev224

  ==> Input File <==

--------------------------------------------------------------------------
#Generated by lconvert.py for sapt job

memory 20 GB

molecule  {
0 1
  C       0.729190    1.113100    0.326730
  H       1.303220    2.014220    0.159160
  C       1.375090   -0.119370    0.412780
  H       2.450520   -0.174620    0.313310
  C       0.635040   -1.280550    0.629380
  H       1.136330   -2.236020    0.700220
  C      -0.750990   -1.209650    0.757890
  H      -1.324530   -2.111410    0.924200
  C      -1.397030    0.022670    0.673090
  H      -2.472420    0.078490    0.774000
  C      -0.656900    1.184300    0.458340
  H      -1.157830    2.140590    0.395100
--
0 1
  C       0.275520    0.324930    5.090980
  H       0.397650    0.550420    4.040560
  C      -0.815560   -0.429960    5.518320
  H      -1.536060   -0.786480    4.794620
  C      -0.976260   -0.724090    6.871270
  H      -1.823370   -1.310060    7.201520
  C      -0.044380   -0.263040    7.799760
  H      -0.168270   -0.491000    8.849770
  C       1.047210    0.492070    7.374520
  H       1.770330    0.849900    8.094910
  C       1.206010    0.785550    6.021030
  H       2.053270    1.371630    5.690980
units angstrom
no_reorient
symmetry c1
}

set {
scf_type DF
basis aug-cc-pvdz
freeze_core True
guess SAD
}
energy('sapt2+')
--------------------------------------------------------------------------

  //              Dimer HF             //
    Molecular point group: c1
  Charge       = 0
  Multiplicity = 1
  Basis Set: AUG-CC-PVDZ
    Blend: AUG-CC-PVDZ
  Basis Set: (AUG-CC-PVDZ AUX)
    Blend: AUG-CC-PVDZ-JKFIT
  @DF-RHF Final Energy:  -461.45691926562375
    Total Energy =                       -461.4569192656238101
  //            Monomer A HF           //
    Molecular point group: c1
  Multiplicity = 1
  Basis Set: AUG-CC-PVDZ
    Blend: AUG-CC-PVDZ
  Basis Set: (AUG-CC-PVDZ AUX)
    Blend: AUG-CC-PVDZ-JKFIT
  @DF-RHF Final Energy:  -230.72832475599677
    Total Energy =                       -230.7283247559967663
  //            Monomer B HF           //
    Molecular point group: c1

    Geometry (in Angstrom), charge = 0, multiplicity = 1:

       Center              X                  Y                   Z               Mass
    ------------   -----------------  -----------------  -----------------  -----------------
      Gh(C)           0.676932732592     1.121771936959    -3.167805004820    12.000000000000
      Gh(H)           1.250962732592     2.022891936959    -3.335375004820     1.007825032230
      Gh(C)           1.322832732592    -0.110698063041    -3.081755004820    12.000000000000
      Gh(H)           2.398262732592    -0.165948063041    -3.181225004820     1.007825032230
      Gh(C)           0.582782732592    -1.271878063041    -2.865155004820    12.000000000000
      Gh(H)           1.084072732592    -2.227348063041    -2.794315004820     1.007825032230
      Gh(C)          -0.803247267408    -1.200978063041    -2.736645004820    12.000000000000
      Gh(H)          -1.376787267408    -2.102738063041    -2.570335004820     1.007825032230
      Gh(C)          -1.449287267408     0.031341936959    -2.821445004820    12.000000000000
      Gh(H)          -2.524677267408     0.087161936959    -2.720535004820     1.007825032230
      Gh(C)          -0.709157267408     1.192971936959    -3.036195004820    12.000000000000
      Gh(H)          -1.210087267408     2.149261936959    -3.099435004820     1.007825032230
         C            0.223262732592     0.333601936959     1.596444995180    12.000000000000
         H            0.345392732592     0.559091936959     0.546024995180     1.007825032230
         C           -0.867817267408    -0.421288063041     2.023784995180    12.000000000000
         H           -1.588317267408    -0.777808063041     1.300084995180     1.007825032230
         C           -1.028517267408    -0.715418063041     3.376734995180    12.000000000000
         H           -1.875627267408    -1.301388063041     3.706984995180     1.007825032230
         C           -0.096637267408    -0.254368063041     4.305224995180    12.000000000000
         H           -0.220527267408    -0.482328063041     5.355234995180     1.007825032230
         C            0.994952732592     0.500741936959     3.879984995180    12.000000000000
         H            1.718072732592     0.858571936959     4.600374995180     1.007825032230
         C            1.153752732592     0.794221936959     2.526494995180    12.000000000000
         H            2.001012732592     1.380301936959     2.196444995180     1.007825032230

  Charge       = 0
  Multiplicity = 1
  Basis Set: AUG-CC-PVDZ
    Blend: AUG-CC-PVDZ
  Basis Set: (AUG-CC-PVDZ AUX)
    Blend: AUG-CC-PVDZ-JKFIT

    Orbital Energies [Eh]
    ---------------------

    Doubly Occupied:

       1A    -11.242305     2A    -11.241761     3A    -11.241722
       4A    -11.240542     5A    -11.240506     6A    -11.239926
       7A     -1.153179     8A     -1.017585     9A     -1.017187
      10A     -0.826022    11A     -0.825778    12A     -0.710562
      13A     -0.644959    14A     -0.619869    15A     -0.589019
      16A     -0.588458    17A     -0.501804    18A     -0.495311
      19A     -0.494385    20A     -0.336512    21A     -0.336334

  @DF-RHF Final Energy:  -230.72806389772029

   => Energetics <=

    Nuclear Repulsion Energy =            203.6769305289748502
    One-Electron Energy =                -713.6025403831121139
    Two-Electron Energy =                 279.1975459564170023
    Total Energy =                       -230.7280638977202898

  Dipole Moment: [D]
     X:     0.0010      Y:    -0.0009      Z:     0.0016     Total:     0.0021

    SAPT Results
  --------------------------------------------------------------------------------------------------------
    Electrostatics                 -0.53415393 [mEh]      -0.33518665 [kcal/mol]      -1.40242096 [kJ/mol]
      Elst10,r                     -0.66650646 [mEh]      -0.41823912 [kcal/mol]      -1.74991246 [kJ/mol]
      Elst12,r                      0.13235252 [mEh]       0.08305246 [kcal/mol]       0.34749150 [kJ/mol]

    Exchange                        0.29593565 [mEh]       0.18570242 [kcal/mol]       0.77697893 [kJ/mol]
      Exch10                        0.25386365 [mEh]       0.15930185 [kcal/mol]       0.66651893 [kJ/mol]
      Exch10(S^2)                   0.25385241 [mEh]       0.15929479 [kcal/mol]       0.66648942 [kJ/mol]
      Exch11(S^2)                  -0.00037846 [mEh]      -0.00023749 [kcal/mol]      -0.00099365 [kJ/mol]
      Exch12(S^2)                   0.04245045 [mEh]       0.02663806 [kcal/mol]       0.11145365 [kJ/mol]

    Induction                      -0.11511401 [mEh]      -0.07223513 [kcal/mol]      -0.30223179 [kJ/mol]
      Ind20,r                      -0.12726996 [mEh]      -0.07986311 [kcal/mol]      -0.33414724 [kJ/mol]
      Ind22                         0.00397684 [mEh]       0.00249550 [kcal/mol]       0.01044119 [kJ/mol]
      Exch-Ind20,r                  0.03589891 [mEh]       0.02252691 [kcal/mol]       0.09425259 [kJ/mol]
      Exch-Ind22                   -0.00112174 [mEh]      -0.00070390 [kcal/mol]      -0.00294514 [kJ/mol]
      delta HF,r (2)               -0.02659805 [mEh]      -0.01669053 [kcal/mol]      -0.06983318 [kJ/mol]

    Dispersion                     -1.91995034 [mEh]      -1.20478703 [kcal/mol]      -5.04082892 [kJ/mol]
      Disp20                       -2.15573381 [mEh]      -1.35274339 [kcal/mol]      -5.65987834 [kJ/mol]
      Disp21                        0.59270027 [mEh]       0.37192504 [kcal/mol]       1.55613435 [kJ/mol]
      Disp22 (SDQ)                  0.04766566 [mEh]       0.02991066 [kcal/mol]       0.12514618 [kJ/mol]
      Disp22 (T)                   -0.43980120 [mEh]      -0.27597942 [kcal/mol]      -1.15469789 [kJ/mol]
      Est. Disp22 (T)              -0.45656878 [mEh]      -0.28650123 [kcal/mol]      -1.19872116 [kJ/mol]
      Exch-Disp20                   0.05198631 [mEh]       0.03262190 [kcal/mol]       0.13649005 [kJ/mol]

  Total HF                         -0.53061191 [mEh]      -0.33296400 [kcal/mol]      -1.39312137 [kJ/mol]
  Total SAPT0                      -2.63435940 [mEh]      -1.65308548 [kcal/mol]      -6.91650966 [kJ/mol]
  Total SAPT2                      -2.45707979 [mEh]      -1.54184085 [kcal/mol]      -6.45106210 [kJ/mol]
  Total SAPT2+                     -2.27328263 [mEh]      -1.42650639 [kcal/mol]      -5.96850273 [kJ/mol]

  Special recipe for scaled SAPT0 (see Manual):
    Electrostatics sSAPT0          -0.66650646 [mEh]      -0.41823912 [kcal/mol]      -1.74991246 [kJ/mol]
    Exchange sSAPT0                 0.25386365 [mEh]       0.15930185 [kcal/mol]       0.66651893 [kJ/mol]
    Induction sSAPT0               -0.11796433 [mEh]      -0.07402374 [kcal/mol]      -0.30971532 [kJ/mol]
    Dispersion sSAPT0              -2.10374059 [mEh]      -1.32011715 [kcal/mol]      -5.52337016 [kJ/mol]
  Total sSAPT0                     -2.63434773 [mEh]      -1.65307816 [kcal/mol]      -6.91647900 [kJ/mol]
  --------------------------------------------------------------------------------------------------------

*** Psi4 exiting successfully. Buy a developer a beer!
