                               Psi4 1.4a2.dev224

  ==> Input File <==

--------------------------------------------------------------------------
#Generated by lconvert.py for sapt job

memory 20 GB

molecule  {
0 1
  C       0.729190    1.113100    0.326730
  H       1.303220    2.014220    0.159160
  C       1.375090   -0.119370    0.412780
  H       2.450520   -0.174620    0.313310
  C       0.635040   -1.280550    0.629380
  H       1.136330   -2.236020    0.700220
  C      -0.750990   -1.209650    0.757890
  H      -1.324530   -2.111410    0.924200
  C      -1.397030    0.022670    0.673090
  H      -2.472420    0.078490    0.774000
  C      -0.656900    1.184300    0.458340
  H      -1.157830    2.140590    0.395100
--
0 1
  C       0.404340    0.513680    6.193690
  H       0.526470    0.739170    5.143260
  C      -0.686740   -0.241210    6.621020
  H      -1.407240   -0.597730    5.897330
  C      -0.847440   -0.535340    7.973970
  H      -1.694550   -1.121310    8.304220
  C       0.084440   -0.074290    8.902470
  H      -0.039450   -0.302250    9.952470
  C       1.176030    0.680820    8.477230
  H       1.899150    1.038650    9.197610
  C       1.334830    0.974300    7.123730
  H       2.182090    1.560380    6.793690
units angstrom
no_reorient
symmetry c1
}

set {
scf_type DF
basis aug-cc-pvdz
freeze_core True
guess SAD
}
energy('sapt2+')
--------------------------------------------------------------------------

  //              Dimer HF             //
    Molecular point group: c1
  Charge       = 0
  Multiplicity = 1
  Basis Set: AUG-CC-PVDZ
    Blend: AUG-CC-PVDZ
  Basis Set: (AUG-CC-PVDZ AUX)
    Blend: AUG-CC-PVDZ-JKFIT
  @DF-RHF Final Energy:  -461.45629742072174
    Total Energy =                       -461.4562974207217394
  //            Monomer A HF           //
    Molecular point group: c1
  Multiplicity = 1
  Basis Set: AUG-CC-PVDZ
    Blend: AUG-CC-PVDZ
  Basis Set: (AUG-CC-PVDZ AUX)
    Blend: AUG-CC-PVDZ-JKFIT
  @DF-RHF Final Energy:  -230.72804918845299
    Total Energy =                       -230.7280491884529852
  //            Monomer B HF           //
    Molecular point group: c1

    Geometry (in Angstrom), charge = 0, multiplicity = 1:

       Center              X                  Y                   Z               Mass
    ------------   -----------------  -----------------  -----------------  -----------------
      Gh(C)           0.612522732592     1.027396936959    -3.719157440255    12.000000000000
      Gh(H)           1.186552732592     1.928516936959    -3.886727440255     1.007825032230
      Gh(C)           1.258422732592    -0.205073063041    -3.633107440255    12.000000000000
      Gh(H)           2.333852732592    -0.260323063041    -3.732577440255     1.007825032230
      Gh(C)           0.518372732592    -1.366253063041    -3.416507440255    12.000000000000
      Gh(H)           1.019662732592    -2.321723063041    -3.345667440255     1.007825032230
      Gh(C)          -0.867657267408    -1.295353063041    -3.287997440255    12.000000000000
      Gh(H)          -1.441197267408    -2.197113063041    -3.121687440255     1.007825032230
      Gh(C)          -1.513697267408    -0.063033063041    -3.372797440255    12.000000000000
      Gh(H)          -2.589087267408    -0.007213063041    -3.271887440255     1.007825032230
      Gh(C)          -0.773567267408     1.098596936959    -3.587547440255    12.000000000000
      Gh(H)          -1.274497267408     2.054886936959    -3.650787440255     1.007825032230
         C            0.287672732592     0.427976936959     2.147802559745    12.000000000000
         H            0.409802732592     0.653466936959     1.097372559745     1.007825032230
         C           -0.803407267408    -0.326913063041     2.575132559745    12.000000000000
         H           -1.523907267408    -0.683433063041     1.851442559745     1.007825032230
         C           -0.964107267408    -0.621043063041     3.928082559745    12.000000000000
         H           -1.811217267408    -1.207013063041     4.258332559745     1.007825032230
         C           -0.032227267408    -0.159993063041     4.856582559745    12.000000000000
         H           -0.156117267408    -0.387953063041     5.906582559745     1.007825032230
         C            1.059362732592     0.595116936959     4.431342559745    12.000000000000
         H            1.782482732592     0.952946936959     5.151722559745     1.007825032230
         C            1.218162732592     0.888596936959     3.077842559745    12.000000000000
         H            2.065422732592     1.474676936959     2.747802559745     1.007825032230

  Charge       = 0
  Multiplicity = 1
  Basis Set: AUG-CC-PVDZ
    Blend: AUG-CC-PVDZ
  Basis Set: (AUG-CC-PVDZ AUX)
    Blend: AUG-CC-PVDZ-JKFIT

    Orbital Energies [Eh]
    ---------------------

    Doubly Occupied:

       1A    -11.242310     2A    -11.241765     3A    -11.241729
       4A    -11.240547     5A    -11.240513     6A    -11.239933
       7A     -1.153184     8A     -1.017606     9A     -1.017202
      10A     -0.826043    11A     -0.825795    12A     -0.710578
      13A     -0.644976    14A     -0.619885    15A     -0.589037
      16A     -0.588473    17A     -0.501801    18A     -0.495329
      19A     -0.494405    20A     -0.336514    21A     -0.336338

  @DF-RHF Final Energy:  -230.72795131480768

   => Energetics <=

    Nuclear Repulsion Energy =            203.6768706114552856
    One-Electron Energy =                -713.6017225359551048
    Two-Electron Energy =                 279.1969006096921362
    Total Energy =                       -230.7279513148076830

  Dipole Moment: [D]
     X:     0.0008      Y:    -0.0009      Z:    -0.0009     Total:     0.0015

    SAPT Results
  --------------------------------------------------------------------------------------------------------
    Electrostatics                 -0.20648545 [mEh]      -0.12957158 [kcal/mol]      -0.54212748 [kJ/mol]
      Elst10,r                     -0.27903535 [mEh]      -0.17509733 [kcal/mol]      -0.73260721 [kJ/mol]
      Elst12,r                      0.07254990 [mEh]       0.04552575 [kcal/mol]       0.19047973 [kJ/mol]

    Exchange                        0.00758869 [mEh]       0.00476198 [kcal/mol]       0.01992410 [kJ/mol]
      Exch10                        0.00620581 [mEh]       0.00389421 [kcal/mol]       0.01629336 [kJ/mol]
      Exch10(S^2)                   0.00620584 [mEh]       0.00389422 [kcal/mol]       0.01629343 [kJ/mol]
      Exch11(S^2)                  -0.00022509 [mEh]      -0.00014124 [kcal/mol]      -0.00059097 [kJ/mol]
      Exch12(S^2)                   0.00160797 [mEh]       0.00100901 [kcal/mol]       0.00422172 [kJ/mol]

    Induction                      -0.02150368 [mEh]      -0.01349376 [kcal/mol]      -0.05645790 [kJ/mol]
      Ind20,r                      -0.02429258 [mEh]      -0.01524382 [kcal/mol]      -0.06378015 [kJ/mol]
      Ind22                         0.00271675 [mEh]       0.00170479 [kcal/mol]       0.00713283 [kJ/mol]
      Exch-Ind20,r                  0.00118482 [mEh]       0.00074349 [kcal/mol]       0.00311076 [kJ/mol]
      Exch-Ind22                   -0.00013250 [mEh]      -0.00008315 [kcal/mol]      -0.00034789 [kJ/mol]
      delta HF,r (2)               -0.00098017 [mEh]      -0.00061507 [kcal/mol]      -0.00257344 [kJ/mol]

    Dispersion                     -0.53769608 [mEh]      -0.33740938 [kcal/mol]      -1.41172086 [kJ/mol]
      Disp20                       -0.60988936 [mEh]      -0.38271135 [kcal/mol]      -1.60126429 [kJ/mol]
      Disp21                        0.19577812 [mEh]       0.12285263 [kcal/mol]       0.51401539 [kJ/mol]
      Disp22 (SDQ)                  0.00832919 [mEh]       0.00522665 [kcal/mol]       0.02186829 [kJ/mol]
      Disp22 (T)                   -0.13139403 [mEh]      -0.08245100 [kcal/mol]      -0.34497499 [kJ/mol]
      Est. Disp22 (T)              -0.13374434 [mEh]      -0.08392584 [kcal/mol]      -0.35114573 [kJ/mol]
      Exch-Disp20                   0.00183031 [mEh]       0.00114854 [kcal/mol]       0.00480549 [kJ/mol]

  Total HF                         -0.29691746 [mEh]      -0.18631852 [kcal/mol]      -0.77955669 [kJ/mol]
  Total SAPT0                      -0.90497651 [mEh]      -0.56788133 [kcal/mol]      -2.37601549 [kJ/mol]
  Total SAPT2                      -0.82845949 [mEh]      -0.51986618 [kcal/mol]      -2.17512008 [kJ/mol]
  Total SAPT2+                     -0.75809652 [mEh]      -0.47571275 [kcal/mol]      -1.99038213 [kJ/mol]

  Special recipe for scaled SAPT0 (see Manual):
    Electrostatics sSAPT0          -0.27903535 [mEh]      -0.17509733 [kcal/mol]      -0.73260721 [kJ/mol]
    Exchange sSAPT0                 0.00620581 [mEh]       0.00389421 [kcal/mol]       0.01629336 [kJ/mol]
    Induction sSAPT0               -0.02408792 [mEh]      -0.01511540 [kcal/mol]      -0.06324284 [kJ/mol]
    Dispersion sSAPT0              -0.60805905 [mEh]      -0.38156281 [kcal/mol]      -1.59645881 [kJ/mol]
  Total sSAPT0                     -0.90497651 [mEh]      -0.56788133 [kcal/mol]      -2.37601549 [kJ/mol]
  --------------------------------------------------------------------------------------------------------

*** Psi4 exiting successfully. Buy a developer a beer!
