                               Psi4 1.4a2.dev224

  ==> Input File <==

--------------------------------------------------------------------------
#Generated by lconvert.py for sapt job

memory 20 GB

molecule  {
0 1
  N       1.322760   -0.010380    1.019180
  C       0.651290   -1.148990    0.796800
  H       1.200420   -2.065530    0.973670
  C      -0.672680   -1.194710    0.366660
  H      -1.157190   -2.147320    0.206460
  C      -1.347200    0.003130    0.152140
  H      -2.375360    0.008400   -0.182290
  C      -0.664560    1.194090    0.379000
  H      -1.142630    2.151560    0.228720
  C       0.658900    1.134980    0.808860
  H       1.214100    2.045910    0.995440
--
0 1
  N      -0.074470   -0.009110    8.556450
  C       0.796190   -0.014720    7.537040
  H       1.844050   -0.013470    7.811340
  C       0.422810   -0.021790    6.195210
  H       1.170270   -0.025950    5.414110
  C      -0.933240   -0.023200    5.882800
  H      -1.262970   -0.028650    4.852520
  C      -1.851340   -0.017490    6.927970
  H      -2.915790   -0.018330    6.739230
  C      -1.375740   -0.010570    8.236920
  H      -2.067920   -0.005980    9.070120
units angstrom
no_reorient
symmetry c1
}

set {
scf_type DF
basis aug-cc-pvdz
freeze_core True
guess SAD
}
energy('sapt2+')
--------------------------------------------------------------------------

  //              Dimer HF             //
    Molecular point group: c1
  Charge       = 0
  Multiplicity = 1
  Basis Set: AUG-CC-PVDZ
    Blend: AUG-CC-PVDZ
  Basis Set: (AUG-CC-PVDZ AUX)
    Blend: AUG-CC-PVDZ-JKFIT
  @DF-RHF Final Energy:  -493.44865321366495
    Total Energy =                       -493.4486532136648975
  //            Monomer A HF           //
    Molecular point group: c1
  Multiplicity = 1
  Basis Set: AUG-CC-PVDZ
    Blend: AUG-CC-PVDZ
  Basis Set: (AUG-CC-PVDZ AUX)
    Blend: AUG-CC-PVDZ-JKFIT
  @DF-RHF Final Energy:  -246.72402155375474
    Total Energy =                       -246.7240215537547101
  //            Monomer B HF           //
    Molecular point group: c1

    Geometry (in Angstrom), charge = 0, multiplicity = 1:

       Center              X                  Y                   Z               Mass
    ------------   -----------------  -----------------  -----------------  -----------------
      Gh(N)           1.574795913918    -0.000484669252    -2.889370993296    14.003074004430
      Gh(C)           0.903325913918    -1.139094669252    -3.111750993296    12.000000000000
      Gh(H)           1.452455913918    -2.055634669252    -2.934880993296     1.007825032230
      Gh(C)          -0.420644086082    -1.184814669252    -3.541890993296    12.000000000000
      Gh(H)          -0.905154086082    -2.137424669252    -3.702090993296     1.007825032230
      Gh(C)          -1.095164086082     0.013025330748    -3.756410993296    12.000000000000
      Gh(H)          -2.123324086082     0.018295330748    -4.090840993296     1.007825032230
      Gh(C)          -0.412524086082     1.203985330748    -3.529550993296    12.000000000000
      Gh(H)          -0.890594086082     2.161455330748    -3.679830993296     1.007825032230
      Gh(C)           0.910935913918     1.144875330748    -3.099690993296    12.000000000000
      Gh(H)           1.466135913918     2.055805330748    -2.913110993296     1.007825032230
         N            0.177565913918     0.000785330748     4.647899006704    14.003074004430
         C            1.048225913918    -0.004824669252     3.628489006704    12.000000000000
         H            2.096085913918    -0.003574669252     3.902789006704     1.007825032230
         C            0.674845913918    -0.011894669252     2.286659006704    12.000000000000
         H            1.422305913918    -0.016054669252     1.505559006704     1.007825032230
         C           -0.681204086082    -0.013304669252     1.974249006704    12.000000000000
         H           -1.010934086082    -0.018754669252     0.943969006704     1.007825032230
         C           -1.599304086082    -0.007594669252     3.019419006704    12.000000000000
         H           -2.663754086082    -0.008434669252     2.830679006704     1.007825032230
         C           -1.123704086082    -0.000674669252     4.328369006704    12.000000000000
         H           -1.815884086082     0.003915330748     5.161569006704     1.007825032230

  Charge       = 0
  Multiplicity = 1
  Basis Set: AUG-CC-PVDZ
    Blend: AUG-CC-PVDZ
  Basis Set: (AUG-CC-PVDZ AUX)
    Blend: AUG-CC-PVDZ-JKFIT

    Orbital Energies [Eh]
    ---------------------

    Doubly Occupied:

       1A    -15.575983     2A    -11.282217     3A    -11.282106
       4A    -11.266827     5A    -11.249030     6A    -11.248827
       7A     -1.260313     8A     -1.092942     9A     -1.036439
      10A     -0.861255    11A     -0.858277    12A     -0.722936
      13A     -0.661781    14A     -0.655335    15A     -0.599097
      16A     -0.577755    17A     -0.541047    18A     -0.519866
      19A     -0.419930    20A     -0.383826    21A     -0.347811

  @DF-RHF Final Energy:  -246.72393713510709

   => Energetics <=

    Nuclear Repulsion Energy =            206.1989723142160358
    One-Electron Energy =                -740.9586155053550556
    Two-Electron Energy =                 288.0357060560319837
    Total Energy =                       -246.7239371351070645

  Dipole Moment: [D]
     X:    -0.7204      Y:    -0.0117      Z:    -2.2336     Total:     2.3469

    SAPT Results
  --------------------------------------------------------------------------------------------------------
    Electrostatics                 -0.52671451 [mEh]      -0.33051834 [kcal/mol]      -1.38288875 [kJ/mol]
      Elst10,r                     -0.66127735 [mEh]      -0.41495780 [kcal/mol]      -1.73618343 [kJ/mol]
      Elst12,r                      0.13456284 [mEh]       0.08443946 [kcal/mol]       0.35329468 [kJ/mol]

    Exchange                        0.02050181 [mEh]       0.01286508 [kcal/mol]       0.05382751 [kJ/mol]
      Exch10                        0.01652766 [mEh]       0.01037127 [kcal/mol]       0.04339337 [kJ/mol]
      Exch10(S^2)                   0.01652772 [mEh]       0.01037130 [kcal/mol]       0.04339353 [kJ/mol]
      Exch11(S^2)                  -0.00054801 [mEh]      -0.00034388 [kcal/mol]      -0.00143880 [kJ/mol]
      Exch12(S^2)                   0.00452216 [mEh]       0.00283770 [kcal/mol]       0.01187294 [kJ/mol]

    Induction                      -0.04460296 [mEh]      -0.02798878 [kcal/mol]      -0.11710506 [kJ/mol]
      Ind20,r                      -0.04914201 [mEh]      -0.03083708 [kcal/mol]      -0.12902234 [kJ/mol]
      Ind22                         0.00540648 [mEh]       0.00339262 [kcal/mol]       0.01419471 [kJ/mol]
      Exch-Ind20,r                  0.00212988 [mEh]       0.00133652 [kcal/mol]       0.00559199 [kJ/mol]
      Exch-Ind22                   -0.00023432 [mEh]      -0.00014704 [kcal/mol]      -0.00061522 [kJ/mol]
      delta HF,r (2)               -0.00276298 [mEh]      -0.00173380 [kcal/mol]      -0.00725421 [kJ/mol]

    Dispersion                     -0.73404009 [mEh]      -0.46061711 [kcal/mol]      -1.92722200 [kJ/mol]
      Disp20                       -0.80972951 [mEh]      -0.50811294 [kcal/mol]      -2.12594455 [kJ/mol]
      Disp21                        0.25597656 [mEh]       0.16062772 [kcal/mol]       0.67206638 [kJ/mol]
      Disp22 (SDQ)                 -0.00465126 [mEh]      -0.00291871 [kcal/mol]      -0.01221189 [kJ/mol]
      Disp22 (T)                   -0.17569575 [mEh]      -0.11025075 [kcal/mol]      -0.46128913 [kJ/mol]
      Est. Disp22 (T)              -0.17920050 [mEh]      -0.11245001 [kcal/mol]      -0.47049086 [kJ/mol]
      Exch-Disp20                   0.00356462 [mEh]       0.00223684 [kcal/mol]       0.00935892 [kJ/mol]

  Total HF                         -0.69452480 [mEh]      -0.43582089 [kcal/mol]      -1.82347462 [kJ/mol]
  Total SAPT0                      -1.50068969 [mEh]      -0.94169700 [kcal/mol]      -3.94006025 [kJ/mol]
  Total SAPT2                      -1.35698055 [mEh]      -0.85151815 [kcal/mol]      -3.56275194 [kJ/mol]
  Total SAPT2+                     -1.28485575 [mEh]      -0.80625916 [kcal/mol]      -3.37338831 [kJ/mol]

  Special recipe for scaled SAPT0 (see Manual):
    Electrostatics sSAPT0          -0.66127735 [mEh]      -0.41495780 [kcal/mol]      -1.73618343 [kJ/mol]
    Exchange sSAPT0                 0.01652766 [mEh]       0.01037127 [kcal/mol]       0.04339337 [kJ/mol]
    Induction sSAPT0               -0.04977514 [mEh]      -0.03123437 [kcal/mol]      -0.13068462 [kJ/mol]
    Dispersion sSAPT0              -0.80616493 [mEh]      -0.50587613 [kcal/mol]      -2.11658572 [kJ/mol]
  Total sSAPT0                     -1.50068975 [mEh]      -0.94169704 [kcal/mol]      -3.94006040 [kJ/mol]
  --------------------------------------------------------------------------------------------------------

*** Psi4 exiting successfully. Buy a developer a beer!
