                               Psi4 1.4a2.dev224

  ==> Input File <==

--------------------------------------------------------------------------
#Generated by lconvert.py for sapt job

memory 20 GB

molecule  {
0 1
  N       1.322760   -0.010380    1.019180
  C       0.651290   -1.148990    0.796800
  H       1.200420   -2.065530    0.973670
  C      -0.672680   -1.194710    0.366660
  H      -1.157190   -2.147320    0.206460
  C      -1.347200    0.003130    0.152140
  H      -2.375360    0.008400   -0.182290
  C      -0.664560    1.194090    0.379000
  H      -1.142630    2.151560    0.228720
  C       0.658900    1.134980    0.808860
  H       1.214100    2.045910    0.995440
--
0 1
  N      -0.343950   -0.014450    9.468490
  C       0.526720   -0.020060    8.449080
  H       1.574580   -0.018820    8.723380
  C       0.153340   -0.027130    7.107250
  H       0.900800   -0.031300    6.326150
  C      -1.202710   -0.028550    6.794830
  H      -1.532440   -0.034000    5.764550
  C      -2.120810   -0.022830    7.840000
  H      -3.185260   -0.023680    7.651270
  C      -1.645210   -0.015910    9.148960
  H      -2.337390   -0.011330    9.982160
units angstrom
no_reorient
symmetry c1
}

set {
scf_type DF
basis aug-cc-pvdz
freeze_core True
guess SAD
}
energy('sapt2+')
--------------------------------------------------------------------------

  //              Dimer HF             //
    Molecular point group: c1
  Charge       = 0
  Multiplicity = 1
  Basis Set: AUG-CC-PVDZ
    Blend: AUG-CC-PVDZ
  Basis Set: (AUG-CC-PVDZ AUX)
    Blend: AUG-CC-PVDZ-JKFIT
  @DF-RHF Final Energy:  -493.44820448683208
    Total Energy =                       -493.4482044868320827
  //            Monomer A HF           //
    Molecular point group: c1
  Multiplicity = 1
  Basis Set: AUG-CC-PVDZ
    Blend: AUG-CC-PVDZ
  Basis Set: (AUG-CC-PVDZ AUX)
    Blend: AUG-CC-PVDZ-JKFIT
  @DF-RHF Final Energy:  -246.72392561291883
    Total Energy =                       -246.7239256129188334
  //            Monomer B HF           //
    Molecular point group: c1

    Geometry (in Angstrom), charge = 0, multiplicity = 1:

       Center              X                  Y                   Z               Mass
    ------------   -----------------  -----------------  -----------------  -----------------
      Gh(N)           1.709531799715     0.002186408598    -3.345389411367    14.003074004430
      Gh(C)           1.038061799715    -1.136423591402    -3.567769411367    12.000000000000
      Gh(H)           1.587191799715    -2.052963591402    -3.390899411367     1.007825032230
      Gh(C)          -0.285908200285    -1.182143591402    -3.997909411367    12.000000000000
      Gh(H)          -0.770418200285    -2.134753591402    -4.158109411367     1.007825032230
      Gh(C)          -0.960428200285     0.015696408598    -4.212429411367    12.000000000000
      Gh(H)          -1.988588200285     0.020966408598    -4.546859411367     1.007825032230
      Gh(C)          -0.277788200285     1.206656408598    -3.985569411367    12.000000000000
      Gh(H)          -0.755858200285     2.164126408598    -4.135849411367     1.007825032230
      Gh(C)           1.045671799715     1.147546408598    -3.555709411367    12.000000000000
      Gh(H)           1.600871799715     2.058476408598    -3.369129411367     1.007825032230
         N            0.042821799715    -0.001883591402     5.103920588633    14.003074004430
         C            0.913491799715    -0.007493591402     4.084510588633    12.000000000000
         H            1.961351799715    -0.006253591402     4.358810588633     1.007825032230
         C            0.540111799715    -0.014563591402     2.742680588633    12.000000000000
         H            1.287571799715    -0.018733591402     1.961580588633     1.007825032230
         C           -0.815938200285    -0.015983591402     2.430260588633    12.000000000000
         H           -1.145668200285    -0.021433591402     1.399980588633     1.007825032230
         C           -1.734038200285    -0.010263591402     3.475430588633    12.000000000000
         H           -2.798488200285    -0.011113591402     3.286700588633     1.007825032230
         C           -1.258438200285    -0.003343591402     4.784390588633    12.000000000000
         H           -1.950618200285     0.001236408598     5.617590588633     1.007825032230

  Charge       = 0
  Multiplicity = 1
  Basis Set: AUG-CC-PVDZ
    Blend: AUG-CC-PVDZ
  Basis Set: (AUG-CC-PVDZ AUX)
    Blend: AUG-CC-PVDZ-JKFIT

    Orbital Energies [Eh]
    ---------------------

    Doubly Occupied:

       1A    -15.575982     2A    -11.282227     3A    -11.282108
       4A    -11.266843     5A    -11.249038     6A    -11.248832
       7A     -1.260317     8A     -1.092954     9A     -1.036446
      10A     -0.861264    11A     -0.858286    12A     -0.722947
      13A     -0.661788    14A     -0.655347    15A     -0.599105
      16A     -0.577771    17A     -0.541048    18A     -0.519875
      19A     -0.419933    20A     -0.383828    21A     -0.347814

  @DF-RHF Final Energy:  -246.72389093668343

   => Energetics <=

    Nuclear Repulsion Energy =            206.1988048887025968
    One-Electron Energy =                -740.9578912002396009
    Two-Electron Energy =                 288.0351953748535152
    Total Energy =                       -246.7238909366834605

  Dipole Moment: [D]
     X:    -0.7203      Y:    -0.0117      Z:    -2.2348     Total:     2.3480

    SAPT Results
  --------------------------------------------------------------------------------------------------------
    Electrostatics                 -0.29395700 [mEh]      -0.18446080 [kcal/mol]      -0.77178401 [kJ/mol]
      Elst10,r                     -0.37001883 [mEh]      -0.23219032 [kcal/mol]      -0.97148431 [kJ/mol]
      Elst12,r                      0.07606183 [mEh]       0.04772952 [kcal/mol]       0.19970031 [kJ/mol]

    Exchange                        0.00092412 [mEh]       0.00057990 [kcal/mol]       0.00242629 [kJ/mol]
      Exch10                        0.00076349 [mEh]       0.00047910 [kcal/mol]       0.00200455 [kJ/mol]
      Exch10(S^2)                   0.00076349 [mEh]       0.00047910 [kcal/mol]       0.00200455 [kJ/mol]
      Exch11(S^2)                  -0.00003816 [mEh]      -0.00002395 [kcal/mol]      -0.00010019 [kJ/mol]
      Exch12(S^2)                   0.00019879 [mEh]       0.00012474 [kcal/mol]       0.00052192 [kJ/mol]

    Induction                      -0.01635928 [mEh]      -0.01026560 [kcal/mol]      -0.04295128 [kJ/mol]
      Ind20,r                      -0.01889076 [mEh]      -0.01185413 [kcal/mol]      -0.04959767 [kJ/mol]
      Ind22                         0.00235339 [mEh]       0.00147678 [kcal/mol]       0.00617883 [kJ/mol]
      Exch-Ind20,r                  0.00024708 [mEh]       0.00015504 [kcal/mol]       0.00064870 [kJ/mol]
      Exch-Ind22                   -0.00003078 [mEh]      -0.00001932 [kcal/mol]      -0.00008081 [kJ/mol]
      delta HF,r (2)               -0.00003821 [mEh]      -0.00002398 [kcal/mol]      -0.00010033 [kJ/mol]

    Dispersion                     -0.28636148 [mEh]      -0.17969454 [kcal/mol]      -0.75184195 [kJ/mol]
      Disp20                       -0.32104189 [mEh]      -0.20145683 [kcal/mol]      -0.84289536 [kJ/mol]
      Disp21                        0.11065594 [mEh]       0.06943765 [kcal/mol]       0.29052712 [kJ/mol]
      Disp22 (SDQ)                 -0.00377079 [mEh]      -0.00236620 [kcal/mol]      -0.00990020 [kJ/mol]
      Disp22 (T)                   -0.07168381 [mEh]      -0.04498227 [kcal/mol]      -0.18820581 [kJ/mol]
      Est. Disp22 (T)              -0.07238288 [mEh]      -0.04542094 [kcal/mol]      -0.19004122 [kJ/mol]
      Exch-Disp20                   0.00017814 [mEh]       0.00011178 [kcal/mol]       0.00046770 [kJ/mol]

  Total HF                         -0.38793723 [mEh]      -0.24343429 [kcal/mol]      -1.01852906 [kJ/mol]
  Total SAPT0                      -0.70880098 [mEh]      -0.44477933 [kcal/mol]      -1.86095671 [kJ/mol]
  Total SAPT2                      -0.63025591 [mEh]      -0.39549155 [kcal/mol]      -1.65473665 [kJ/mol]
  Total SAPT2+                     -0.59575363 [mEh]      -0.37384105 [kcal/mol]      -1.56415095 [kJ/mol]

  Special recipe for scaled SAPT0 (see Manual):
    Electrostatics sSAPT0          -0.37001883 [mEh]      -0.23219032 [kcal/mol]      -0.97148431 [kJ/mol]
    Exchange sSAPT0                 0.00076349 [mEh]       0.00047910 [kcal/mol]       0.00200455 [kJ/mol]
    Induction sSAPT0               -0.01868189 [mEh]      -0.01172306 [kcal/mol]      -0.04904930 [kJ/mol]
    Dispersion sSAPT0              -0.32086375 [mEh]      -0.20134504 [kcal/mol]      -0.84242766 [kJ/mol]
  Total sSAPT0                     -0.70880098 [mEh]      -0.44477933 [kcal/mol]      -1.86095671 [kJ/mol]
  --------------------------------------------------------------------------------------------------------

*** Psi4 exiting successfully. Buy a developer a beer!
