                               Psi4 1.4a2.dev224

  ==> Input File <==

--------------------------------------------------------------------------
#Generated by lconvert.py for sapt job

memory 20 GB

molecule  {
0 1
  N       1.322760   -0.010380    1.019180
  C       0.651290   -1.148990    0.796800
  H       1.200420   -2.065530    0.973670
  C      -0.672680   -1.194710    0.366660
  H      -1.157190   -2.147320    0.206460
  C      -1.347200    0.003130    0.152140
  H      -2.375360    0.008400   -0.182290
  C      -0.664560    1.194090    0.379000
  H      -1.142630    2.151560    0.228720
  C       0.658900    1.134980    0.808860
  H       1.214100    2.045910    0.995440
--
0 1
  N       0.195000   -0.003760    7.644410
  C       1.065670   -0.009370    6.625000
  H       2.113520   -0.008120    6.899300
  C       0.692280   -0.016440    5.283170
  H       1.439740   -0.020600    4.502070
  C      -0.663770   -0.017850    4.970760
  H      -0.993500   -0.023310    3.940480
  C      -1.581870   -0.012140    6.015930
  H      -2.646320   -0.012990    5.827190
  C      -1.106270   -0.005220    7.324890
  H      -1.798450   -0.000640    8.158080
units angstrom
no_reorient
symmetry c1
}

set {
scf_type DF
basis aug-cc-pvdz
freeze_core True
guess SAD
}
energy('sapt2+')
--------------------------------------------------------------------------

  //              Dimer HF             //
    Molecular point group: c1
  Charge       = 0
  Multiplicity = 1
  Basis Set: AUG-CC-PVDZ
    Blend: AUG-CC-PVDZ
  Basis Set: (AUG-CC-PVDZ AUX)
    Blend: AUG-CC-PVDZ-JKFIT
  @DF-RHF Final Energy:  -493.44941107466377
    Total Energy =                       -493.4494110746637716
  //            Monomer A HF           //
    Molecular point group: c1
  Multiplicity = 1
  Basis Set: AUG-CC-PVDZ
    Blend: AUG-CC-PVDZ
  Basis Set: (AUG-CC-PVDZ AUX)
    Blend: AUG-CC-PVDZ-JKFIT
  @DF-RHF Final Energy:  -246.72421529498402
    Total Energy =                       -246.7242152949839920
  //            Monomer B HF           //
    Molecular point group: c1

    Geometry (in Angstrom), charge = 0, multiplicity = 1:

       Center              X                  Y                   Z               Mass
    ------------   -----------------  -----------------  -----------------  -----------------
      Gh(N)           1.440060154830    -0.003159477995    -2.433351752384    14.003074004430
      Gh(C)           0.768590154830    -1.141769477995    -2.655731752384    12.000000000000
      Gh(H)           1.317720154830    -2.058309477995    -2.478861752384     1.007825032230
      Gh(C)          -0.555379845170    -1.187489477995    -3.085871752384    12.000000000000
      Gh(H)          -1.039889845170    -2.140099477995    -3.246071752384     1.007825032230
      Gh(C)          -1.229899845170     0.010350522005    -3.300391752384    12.000000000000
      Gh(H)          -2.258059845170     0.015620522005    -3.634821752384     1.007825032230
      Gh(C)          -0.547259845170     1.201310522005    -3.073531752384    12.000000000000
      Gh(H)          -1.025329845170     2.158780522005    -3.223811752384     1.007825032230
      Gh(C)           0.776200154830     1.142200522005    -2.643671752384    12.000000000000
      Gh(H)           1.331400154830     2.053130522005    -2.457091752384     1.007825032230
         N            0.312300154830     0.003460522005     4.191878247616    14.003074004430
         C            1.182970154830    -0.002149477995     3.172468247616    12.000000000000
         H            2.230820154830    -0.000899477995     3.446768247616     1.007825032230
         C            0.809580154830    -0.009219477995     1.830638247616    12.000000000000
         H            1.557040154830    -0.013379477995     1.049538247616     1.007825032230
         C           -0.546469845170    -0.010629477995     1.518228247616    12.000000000000
         H           -0.876199845170    -0.016089477995     0.487948247616     1.007825032230
         C           -1.464569845170    -0.004919477995     2.563398247616    12.000000000000
         H           -2.529019845170    -0.005769477995     2.374658247616     1.007825032230
         C           -0.988969845170     0.002000522005     3.872358247616    12.000000000000
         H           -1.681149845170     0.006580522005     4.705548247616     1.007825032230

  Charge       = 0
  Multiplicity = 1
  Basis Set: AUG-CC-PVDZ
    Blend: AUG-CC-PVDZ
  Basis Set: (AUG-CC-PVDZ AUX)
    Blend: AUG-CC-PVDZ-JKFIT

    Orbital Energies [Eh]
    ---------------------

    Doubly Occupied:

       1A    -15.575990     2A    -11.282210     3A    -11.282101
       4A    -11.266780     5A    -11.248995     6A    -11.248812
       7A     -1.260309     8A     -1.092922     9A     -1.036430
      10A     -0.861243    11A     -0.858267    12A     -0.722930
      13A     -0.661769    14A     -0.655327    15A     -0.599089
      16A     -0.577743    17A     -0.541050    18A     -0.519861
      19A     -0.419927    20A     -0.383828    21A     -0.347807

  @DF-RHF Final Energy:  -246.72403291833919

   => Energetics <=

    Nuclear Repulsion Energy =            206.1986877356464731
    One-Electron Energy =                -740.9586603100452749
    Two-Electron Energy =                 288.0359396560596110
    Total Energy =                       -246.7240329183392191

  Dipole Moment: [D]
     X:    -0.7204      Y:    -0.0117      Z:    -2.2317     Total:     2.3451

    SAPT Results
  --------------------------------------------------------------------------------------------------------
    Electrostatics                 -1.14945834 [mEh]      -0.72129600 [kcal/mol]      -3.01790245 [kJ/mol]
      Elst10,r                     -1.37697658 [mEh]      -0.86406585 [kcal/mol]      -3.61525152 [kJ/mol]
      Elst12,r                      0.22751824 [mEh]       0.14276985 [kcal/mol]       0.59734907 [kJ/mol]

    Exchange                        0.47037388 [mEh]       0.29516406 [kcal/mol]       1.23496644 [kJ/mol]
      Exch10                        0.39962928 [mEh]       0.25077116 [kcal/mol]       1.04922652 [kJ/mol]
      Exch10(S^2)                   0.39960130 [mEh]       0.25075360 [kcal/mol]       1.04915307 [kJ/mol]
      Exch11(S^2)                  -0.00318088 [mEh]      -0.00199603 [kcal/mol]      -0.00835141 [kJ/mol]
      Exch12(S^2)                   0.07392548 [mEh]       0.04638894 [kcal/mol]       0.19409133 [kJ/mol]

    Induction                      -0.18375088 [mEh]      -0.11530542 [kcal/mol]      -0.48243786 [kJ/mol]
      Ind20,r                      -0.19655463 [mEh]      -0.12333989 [kcal/mol]      -0.51605411 [kJ/mol]
      Ind22                         0.00242599 [mEh]       0.00152233 [kcal/mol]       0.00636943 [kJ/mol]
      Exch-Ind20,r                  0.05370272 [mEh]       0.03369897 [kcal/mol]       0.14099647 [kJ/mol]
      Exch-Ind22                   -0.00066283 [mEh]      -0.00041593 [kcal/mol]      -0.00174026 [kJ/mol]
      delta HF,r (2)               -0.04266213 [mEh]      -0.02677089 [kcal/mol]      -0.11200940 [kJ/mol]

    Dispersion                     -2.28758347 [mEh]      -1.43548030 [kcal/mol]      -6.00604957 [kJ/mol]
      Disp20                       -2.50666186 [mEh]      -1.57295407 [kcal/mol]      -6.58123982 [kJ/mol]
      Disp21                        0.68348690 [mEh]       0.42889451 [kcal/mol]       1.79449462 [kJ/mol]
      Disp22 (SDQ)                  0.00499144 [mEh]       0.00313218 [kcal/mol]       0.01310502 [kJ/mol]
      Disp22 (T)                   -0.51498302 [mEh]      -0.32315673 [kcal/mol]      -1.35208775 [kJ/mol]
      Est. Disp22 (T)              -0.53582505 [mEh]      -0.33623529 [kcal/mol]      -1.40680847 [kJ/mol]
      Exch-Disp20                   0.06642510 [mEh]       0.04168238 [kcal/mol]       0.17439908 [kJ/mol]

  Total HF                         -1.16286134 [mEh]      -0.72970651 [kcal/mol]      -3.05309203 [kJ/mol]
  Total SAPT0                      -3.60309810 [mEh]      -2.26097820 [kcal/mol]      -9.45993277 [kJ/mol]
  Total SAPT2                      -3.30307210 [mEh]      -2.07270904 [kcal/mol]      -8.67221461 [kJ/mol]
  Total SAPT2+                     -3.15041881 [mEh]      -1.97691765 [kcal/mol]      -8.27142344 [kJ/mol]

  Special recipe for scaled SAPT0 (see Manual):
    Electrostatics sSAPT0          -1.37697658 [mEh]      -0.86406585 [kcal/mol]      -3.61525152 [kJ/mol]
    Exchange sSAPT0                 0.39962928 [mEh]       0.25077116 [kcal/mol]       1.04922652 [kJ/mol]
    Induction sSAPT0               -0.18550275 [mEh]      -0.11640474 [kcal/mol]      -0.48703742 [kJ/mol]
    Dispersion sSAPT0              -2.44022281 [mEh]      -1.53126293 [kcal/mol]      -6.40680411 [kJ/mol]
  Total sSAPT0                     -3.60307287 [mEh]      -2.26096236 [kcal/mol]      -9.45986652 [kJ/mol]
  --------------------------------------------------------------------------------------------------------

*** Psi4 exiting successfully. Buy a developer a beer!
