                               Psi4 1.4a2.dev224

  ==> Input File <==

--------------------------------------------------------------------------
#Generated by lconvert.py for sapt job

memory 20 GB

molecule  {
0 1
  C       0.845080    1.057920    0.699460
  H       1.506410    1.903220    0.833380
  C       1.375510   -0.217460    0.511160
  H       2.447180   -0.361470    0.502850
  C       0.524070   -1.307040    0.333190
  H       0.935730   -2.296030    0.184920
  C      -0.857720   -1.121460    0.346380
  H      -1.518380   -1.966460    0.208360
  C      -1.388050    0.153630    0.537610
  H      -2.459720    0.297420    0.550030
  C      -0.536610    1.243420    0.712740
  H      -0.948920    2.232810    0.857370
--
0 1
  N       0.010350    0.146240    7.787030
  C       0.165040    1.084200    6.842150
  H       0.306810    2.096720    7.200050
  C       0.150830    0.816910    5.475650
  H       0.281070    1.617930    4.761770
  C      -0.033510   -0.494720    5.050360
  H      -0.050080   -0.737840    3.997020
  C      -0.195360   -1.479750    6.019220
  H      -0.341900   -2.514970    5.744450
  C      -0.166160   -1.112420    7.362310
  H      -0.289750   -1.859940    8.136410
units angstrom
no_reorient
symmetry c1
}

set {
scf_type DF
basis aug-cc-pvdz
freeze_core True
guess SAD
}
energy('sapt2+')
--------------------------------------------------------------------------

  //              Dimer HF             //
    Molecular point group: c1
  Charge       = 0
  Multiplicity = 1
  Basis Set: AUG-CC-PVDZ
    Blend: AUG-CC-PVDZ
  Basis Set: (AUG-CC-PVDZ AUX)
    Blend: AUG-CC-PVDZ-JKFIT
  @DF-RHF Final Energy:  -477.45343725277706
    Total Energy =                       -477.4534372527770074
  //            Monomer A HF           //
    Molecular point group: c1
  Multiplicity = 1
  Basis Set: AUG-CC-PVDZ
    Blend: AUG-CC-PVDZ
  Basis Set: (AUG-CC-PVDZ AUX)
    Blend: AUG-CC-PVDZ-JKFIT
  @DF-RHF Final Energy:  -230.72833826564400
    Total Energy =                       -230.7283382656440267
  //            Monomer B HF           //
    Molecular point group: c1

    Geometry (in Angstrom), charge = 0, multiplicity = 1:

       Center              X                  Y                   Z               Mass
    ------------   -----------------  -----------------  -----------------  -----------------
      Gh(C)           0.853929800083     1.160247063630    -2.795114721685    12.000000000000
      Gh(H)           1.515259800083     2.005547063630    -2.661194721685     1.007825032230
      Gh(C)           1.384359800083    -0.115132936370    -2.983414721685    12.000000000000
      Gh(H)           2.456029800083    -0.259142936370    -2.991724721685     1.007825032230
      Gh(C)           0.532919800083    -1.204712936370    -3.161384721685    12.000000000000
      Gh(H)           0.944579800083    -2.193702936370    -3.309654721685     1.007825032230
      Gh(C)          -0.848870199917    -1.019132936370    -3.148194721685    12.000000000000
      Gh(H)          -1.509530199917    -1.864132936370    -3.286214721685     1.007825032230
      Gh(C)          -1.379200199917     0.255957063630    -2.956964721685    12.000000000000
      Gh(H)          -2.450870199917     0.399747063630    -2.944544721685     1.007825032230
      Gh(C)          -0.527760199917     1.345747063630    -2.781834721685    12.000000000000
      Gh(H)          -0.940070199917     2.335137063630    -2.637204721685     1.007825032230
         N            0.019199800083     0.248567063630     4.292455278315    14.003074004430
         C            0.173889800083     1.186527063630     3.347575278315    12.000000000000
         H            0.315659800083     2.199047063630     3.705475278315     1.007825032230
         C            0.159679800083     0.919237063630     1.981075278315    12.000000000000
         H            0.289919800083     1.720257063630     1.267195278315     1.007825032230
         C           -0.024660199917    -0.392392936370     1.555785278315    12.000000000000
         H           -0.041230199917    -0.635512936370     0.502445278315     1.007825032230
         C           -0.186510199917    -1.377422936370     2.524645278315    12.000000000000
         H           -0.333050199917    -2.412642936370     2.249875278315     1.007825032230
         C           -0.157310199917    -1.010092936370     3.867735278315    12.000000000000
         H           -0.280900199917    -1.757612936370     4.641835278315     1.007825032230

  Charge       = 0
  Multiplicity = 1
  Basis Set: AUG-CC-PVDZ
    Blend: AUG-CC-PVDZ
  Basis Set: (AUG-CC-PVDZ AUX)
    Blend: AUG-CC-PVDZ-JKFIT

    Orbital Energies [Eh]
    ---------------------

    Doubly Occupied:

       1A    -15.575986     2A    -11.282040     3A    -11.282018
       4A    -11.266776     5A    -11.248898     6A    -11.248774
       7A     -1.260391     8A     -1.093127     9A     -1.036337
      10A     -0.861497    11A     -0.858170    12A     -0.723114
      13A     -0.661770    14A     -0.655117    15A     -0.598769
      16A     -0.578663    17A     -0.541098    18A     -0.519641
      19A     -0.419947    20A     -0.383930    21A     -0.347724

  @DF-RHF Final Energy:  -246.72399240639487

   => Energetics <=

    Nuclear Repulsion Energy =            206.2246099485912794
    One-Electron Energy =                -741.0096298720729919
    Two-Electron Energy =                 288.0610275170868704
    Total Energy =                       -246.7239924063948706

  Dipole Moment: [D]
     X:    -0.0367      Y:    -0.5353      Z:    -2.2837     Total:     2.3459

    SAPT Results
  --------------------------------------------------------------------------------------------------------
    Electrostatics                 -0.94092707 [mEh]      -0.59044065 [kcal/mol]      -2.47040369 [kJ/mol]
      Elst10,r                     -1.20220932 [mEh]      -0.75439774 [kcal/mol]      -3.15640013 [kJ/mol]
      Elst12,r                      0.26128224 [mEh]       0.16395708 [kcal/mol]       0.68599643 [kJ/mol]

    Exchange                        0.30297146 [mEh]       0.19011746 [kcal/mol]       0.79545146 [kJ/mol]
      Exch10                        0.26109023 [mEh]       0.16383659 [kcal/mol]       0.68549230 [kJ/mol]
      Exch10(S^2)                   0.26107428 [mEh]       0.16382658 [kcal/mol]       0.68545042 [kJ/mol]
      Exch11(S^2)                  -0.00095686 [mEh]      -0.00060044 [kcal/mol]      -0.00251224 [kJ/mol]
      Exch12(S^2)                   0.04283809 [mEh]       0.02688131 [kcal/mol]       0.11247140 [kJ/mol]

    Induction                      -0.15717936 [mEh]      -0.09863154 [kcal/mol]      -0.41267435 [kJ/mol]
      Ind20,r                      -0.16773012 [mEh]      -0.10525224 [kcal/mol]      -0.44037538 [kJ/mol]
      Ind22                         0.01069513 [mEh]       0.00671130 [kcal/mol]       0.02808007 [kJ/mol]
      Exch-Ind20,r                  0.03784023 [mEh]       0.02374510 [kcal/mol]       0.09934951 [kJ/mol]
      Exch-Ind22                   -0.00241284 [mEh]      -0.00151408 [kcal/mol]      -0.00633492 [kJ/mol]
      delta HF,r (2)               -0.03557176 [mEh]      -0.02232161 [kcal/mol]      -0.09339363 [kJ/mol]

    Dispersion                     -1.91500181 [mEh]      -1.20168178 [kcal/mol]      -5.02783656 [kJ/mol]
      Disp20                       -2.13282328 [mEh]      -1.33836681 [kcal/mol]      -5.59972675 [kJ/mol]
      Disp21                        0.58321388 [mEh]       0.36597224 [kcal/mol]       1.53122783 [kJ/mol]
      Disp22 (SDQ)                  0.03515871 [mEh]       0.02206242 [kcal/mol]       0.09230917 [kJ/mol]
      Disp22 (T)                   -0.43331030 [mEh]      -0.27190632 [kcal/mol]      -1.13765603 [kJ/mol]
      Est. Disp22 (T)              -0.45012694 [mEh]      -0.28245892 [kcal/mol]      -1.18180811 [kJ/mol]
      Exch-Disp20                   0.04957582 [mEh]       0.03110930 [kcal/mol]       0.13016129 [kJ/mol]

  Total HF                         -1.10658074 [mEh]      -0.69438990 [kcal/mol]      -2.90532733 [kJ/mol]
  Total SAPT0                      -3.18982820 [mEh]      -2.00164741 [kcal/mol]      -8.37489278 [kJ/mol]
  Total SAPT2                      -2.87838243 [mEh]      -1.80621225 [kcal/mol]      -7.55719203 [kJ/mol]
  Total SAPT2+                     -2.71013678 [mEh]      -1.70063651 [kcal/mol]      -7.11546314 [kJ/mol]

  Special recipe for scaled SAPT0 (see Manual):
    Electrostatics sSAPT0          -1.20220932 [mEh]      -0.75439774 [kcal/mol]      -3.15640013 [kJ/mol]
    Exchange sSAPT0                 0.26109023 [mEh]       0.16383659 [kcal/mol]       0.68549230 [kJ/mol]
    Induction sSAPT0               -0.16545471 [mEh]      -0.10382440 [kcal/mol]      -0.43440129 [kJ/mol]
    Dispersion sSAPT0              -2.08323837 [mEh]      -1.30725181 [kcal/mol]      -5.46954159 [kJ/mol]
  Total sSAPT0                     -3.18981217 [mEh]      -2.00163736 [kcal/mol]      -8.37485070 [kJ/mol]
  --------------------------------------------------------------------------------------------------------

*** Psi4 exiting successfully. Buy a developer a beer!
