                               Psi4 1.4a2.dev224

  ==> Input File <==

--------------------------------------------------------------------------
#Generated by lconvert.py for sapt job

memory 20 GB

molecule  {
0 1
  C       0.845080    1.057920    0.699460
  H       1.506410    1.903220    0.833380
  C       1.375510   -0.217460    0.511160
  H       2.447180   -0.361470    0.502850
  C       0.524070   -1.307040    0.333190
  H       0.935730   -2.296030    0.184920
  C      -0.857720   -1.121460    0.346380
  H      -1.518380   -1.966460    0.208360
  C      -1.388050    0.153630    0.537610
  H      -2.459720    0.297420    0.550030
  C      -0.536610    1.243420    0.712740
  H      -0.948920    2.232810    0.857370
--
0 1
  N      -0.003550   -0.077850    8.889550
  C       0.151140    0.860110    7.944670
  H       0.292910    1.872640    8.302580
  C       0.136930    0.592820    6.578170
  H       0.267170    1.393850    5.864290
  C      -0.047410   -0.718810    6.152880
  H      -0.063980   -0.961930    5.099540
  C      -0.209260   -1.703840    7.121740
  H      -0.355800   -2.739050    6.846970
  C      -0.180060   -1.336510    8.464830
  H      -0.303650   -2.084020    9.238930
units angstrom
no_reorient
symmetry c1
}

set {
scf_type DF
basis aug-cc-pvdz
freeze_core True
guess SAD
}
energy('sapt2+')
--------------------------------------------------------------------------

  //              Dimer HF             //
    Molecular point group: c1
  Charge       = 0
  Multiplicity = 1
  Basis Set: AUG-CC-PVDZ
    Blend: AUG-CC-PVDZ
  Basis Set: (AUG-CC-PVDZ AUX)
    Blend: AUG-CC-PVDZ-JKFIT
  @DF-RHF Final Energy:  -477.45257428025212
    Total Energy =                       -477.4525742802520654
  //            Monomer A HF           //
    Molecular point group: c1
  Multiplicity = 1
  Basis Set: AUG-CC-PVDZ
    Blend: AUG-CC-PVDZ
  Basis Set: (AUG-CC-PVDZ AUX)
    Blend: AUG-CC-PVDZ-JKFIT
  @DF-RHF Final Energy:  -230.72804901331071
    Total Energy =                       -230.7280490133106809
  //            Monomer B HF           //
    Molecular point group: c1

    Geometry (in Angstrom), charge = 0, multiplicity = 1:

       Center              X                  Y                   Z               Mass
    ------------   -----------------  -----------------  -----------------  -----------------
      Gh(C)           0.860923832280     1.273001675710    -3.349867331002    12.000000000000
      Gh(H)           1.522253832280     2.118301675710    -3.215947331002     1.007825032230
      Gh(C)           1.391353832280    -0.002378324290    -3.538167331002    12.000000000000
      Gh(H)           2.463023832280    -0.146388324290    -3.546477331002     1.007825032230
      Gh(C)           0.539913832280    -1.091958324290    -3.716137331002    12.000000000000
      Gh(H)           0.951573832280    -2.080948324290    -3.864407331002     1.007825032230
      Gh(C)          -0.841876167720    -0.906378324290    -3.702947331002    12.000000000000
      Gh(H)          -1.502536167720    -1.751378324290    -3.840967331002     1.007825032230
      Gh(C)          -1.372206167720     0.368711675710    -3.511717331002    12.000000000000
      Gh(H)          -2.443876167720     0.512501675710    -3.499297331002     1.007825032230
      Gh(C)          -0.520766167720     1.458501675710    -3.336587331002    12.000000000000
      Gh(H)          -0.933076167720     2.447891675710    -3.191957331002     1.007825032230
         N            0.012293832280     0.137231675710     4.840222668998    14.003074004430
         C            0.166983832280     1.075191675710     3.895342668998    12.000000000000
         H            0.308753832280     2.087721675710     4.253252668998     1.007825032230
         C            0.152773832280     0.807901675710     2.528842668998    12.000000000000
         H            0.283013832280     1.608931675710     1.814962668998     1.007825032230
         C           -0.031566167720    -0.503728324290     2.103552668998    12.000000000000
         H           -0.048136167720    -0.746848324290     1.050212668998     1.007825032230
         C           -0.193416167720    -1.488758324290     3.072412668998    12.000000000000
         H           -0.339956167720    -2.523968324290     2.797642668998     1.007825032230
         C           -0.164216167720    -1.121428324290     4.415502668998    12.000000000000
         H           -0.287806167720    -1.868938324290     5.189602668998     1.007825032230

  Charge       = 0
  Multiplicity = 1
  Basis Set: AUG-CC-PVDZ
    Blend: AUG-CC-PVDZ
  Basis Set: (AUG-CC-PVDZ AUX)
    Blend: AUG-CC-PVDZ-JKFIT

    Orbital Energies [Eh]
    ---------------------

    Doubly Occupied:

       1A    -15.575982     2A    -11.282047     3A    -11.282022
       4A    -11.266810     5A    -11.248910     6A    -11.248797
       7A     -1.260393     8A     -1.093149     9A     -1.036348
      10A     -0.861512    11A     -0.858182    12A     -0.723125
      13A     -0.661784    14A     -0.655131    15A     -0.598778
      16A     -0.578682    17A     -0.541094    18A     -0.519653
      19A     -0.419949    20A     -0.383928    21A     -0.347727

  @DF-RHF Final Energy:  -246.72390703428573

   => Energetics <=

    Nuclear Repulsion Energy =            206.2245935264732850
    One-Electron Energy =                -741.0089974931468078
    Two-Electron Energy =                 288.0604969323877640
    Total Energy =                       -246.7239070342857303

  Dipole Moment: [D]
     X:    -0.0367      Y:    -0.5352      Z:    -2.2860     Total:     2.3481

    SAPT Results
  --------------------------------------------------------------------------------------------------------
    Electrostatics                 -0.44785635 [mEh]      -0.28103410 [kcal/mol]      -1.17584669 [kJ/mol]
      Elst10,r                     -0.58641214 [mEh]      -0.36797917 [kcal/mol]      -1.53962486 [kJ/mol]
      Elst12,r                      0.13855579 [mEh]       0.08694507 [kcal/mol]       0.36377817 [kJ/mol]

    Exchange                        0.00785379 [mEh]       0.00492833 [kcal/mol]       0.02062011 [kJ/mol]
      Exch10                        0.00642059 [mEh]       0.00402898 [kcal/mol]       0.01685727 [kJ/mol]
      Exch10(S^2)                   0.00642061 [mEh]       0.00402900 [kcal/mol]       0.01685732 [kJ/mol]
      Exch11(S^2)                  -0.00024094 [mEh]      -0.00015119 [kcal/mol]      -0.00063258 [kJ/mol]
      Exch12(S^2)                   0.00167413 [mEh]       0.00105053 [kcal/mol]       0.00439542 [kJ/mol]

    Induction                      -0.03349558 [mEh]      -0.02101879 [kcal/mol]      -0.08794264 [kJ/mol]
      Ind20,r                      -0.03714784 [mEh]      -0.02331062 [kcal/mol]      -0.09753163 [kJ/mol]
      Ind22                         0.00489681 [mEh]       0.00307279 [kcal/mol]       0.01285656 [kJ/mol]
      Exch-Ind20,r                  0.00114761 [mEh]       0.00072014 [kcal/mol]       0.00301305 [kJ/mol]
      Exch-Ind22                   -0.00015128 [mEh]      -0.00009493 [kcal/mol]      -0.00039718 [kJ/mol]
      delta HF,r (2)               -0.00224088 [mEh]      -0.00140618 [kcal/mol]      -0.00588344 [kJ/mol]

    Dispersion                     -0.53320427 [mEh]      -0.33459073 [kcal/mol]      -1.39992763 [kJ/mol]
      Disp20                       -0.59960044 [mEh]      -0.37625496 [kcal/mol]      -1.57425074 [kJ/mol]
      Disp21                        0.19237053 [mEh]       0.12071433 [kcal/mol]       0.50506876 [kJ/mol]
      Disp22 (SDQ)                  0.00373503 [mEh]       0.00234377 [kcal/mol]       0.00980633 [kJ/mol]
      Disp22 (T)                   -0.12896346 [mEh]      -0.08092580 [kcal/mol]      -0.33859353 [kJ/mol]
      Est. Disp22 (T)              -0.13138374 [mEh]      -0.08244454 [kcal/mol]      -0.34494797 [kJ/mol]
      Exch-Disp20                   0.00167435 [mEh]       0.00105067 [kcal/mol]       0.00439600 [kJ/mol]

  Total HF                         -0.61823266 [mEh]      -0.38794685 [kcal/mol]      -1.62316961 [kJ/mol]
  Total SAPT0                      -1.21615875 [mEh]      -0.76315114 [kcal/mol]      -3.19302436 [kJ/mol]
  Total SAPT2                      -1.07142424 [mEh]      -0.67232886 [kcal/mol]      -2.81302396 [kJ/mol]
  Total SAPT2+                     -1.00670242 [mEh]      -0.63171531 [kcal/mol]      -2.64309684 [kJ/mol]

  Special recipe for scaled SAPT0 (see Manual):
    Electrostatics sSAPT0          -0.58641214 [mEh]      -0.36797917 [kcal/mol]      -1.53962486 [kJ/mol]
    Exchange sSAPT0                 0.00642059 [mEh]       0.00402898 [kcal/mol]       0.01685727 [kJ/mol]
    Induction sSAPT0               -0.03824111 [mEh]      -0.02399666 [kcal/mol]      -0.10040202 [kJ/mol]
    Dispersion sSAPT0              -0.59792609 [mEh]      -0.37520429 [kcal/mol]      -1.56985474 [kJ/mol]
  Total sSAPT0                     -1.21615875 [mEh]      -0.76315114 [kcal/mol]      -3.19302436 [kJ/mol]
  --------------------------------------------------------------------------------------------------------

*** Psi4 exiting successfully. Buy a developer a beer!
