                               Psi4 1.4a2.dev224

  ==> Input File <==

--------------------------------------------------------------------------
#Generated by lconvert.py for sapt job

memory 20 GB

molecule  {
0 1
  C       0.845080    1.057920    0.699460
  H       1.506410    1.903220    0.833380
  C       1.375510   -0.217460    0.511160
  H       2.447180   -0.361470    0.502850
  C       0.524070   -1.307040    0.333190
  H       0.935730   -2.296030    0.184920
  C      -0.857720   -1.121460    0.346380
  H      -1.518380   -1.966460    0.208360
  C      -1.388050    0.153630    0.537610
  H      -2.459720    0.297420    0.550030
  C      -0.536610    1.243420    0.712740
  H      -0.948920    2.232810    0.857370
--
0 1
  N      -0.017440   -0.301940    9.992070
  C       0.137240    0.636020    9.047200
  H       0.279010    1.648550    9.405100
  C       0.123030    0.368730    7.680700
  H       0.253270    1.169760    6.966810
  C      -0.061310   -0.942900    7.255400
  H      -0.077870   -1.186020    6.202060
  C      -0.223160   -1.927930    8.224260
  H      -0.369700   -2.963140    7.949490
  C      -0.193950   -1.560600    9.567350
  H      -0.317550   -2.308110   10.341450
units angstrom
no_reorient
symmetry c1
}

set {
scf_type DF
basis aug-cc-pvdz
freeze_core True
guess SAD
}
energy('sapt2+')
--------------------------------------------------------------------------

  //              Dimer HF             //
    Molecular point group: c1
  Charge       = 0
  Multiplicity = 1
  Basis Set: AUG-CC-PVDZ
    Blend: AUG-CC-PVDZ
  Basis Set: (AUG-CC-PVDZ AUX)
    Blend: AUG-CC-PVDZ-JKFIT
  @DF-RHF Final Energy:  -477.45214922923140
    Total Energy =                       -477.4521492292313951
  //            Monomer A HF           //
    Molecular point group: c1
  Multiplicity = 1
  Basis Set: AUG-CC-PVDZ
    Blend: AUG-CC-PVDZ
  Basis Set: (AUG-CC-PVDZ AUX)
    Blend: AUG-CC-PVDZ-JKFIT
  @DF-RHF Final Energy:  -230.72793681760183
    Total Energy =                       -230.7279368176018579
  //            Monomer B HF           //
    Molecular point group: c1

    Geometry (in Angstrom), charge = 0, multiplicity = 1:

       Center              X                  Y                   Z               Mass
    ------------   -----------------  -----------------  -----------------  -----------------
      Gh(C)           0.867916145014     1.385756544416    -3.904621403958    12.000000000000
      Gh(H)           1.529246145014     2.231056544416    -3.770701403958     1.007825032230
      Gh(C)           1.398346145014     0.110376544416    -4.092921403958    12.000000000000
      Gh(H)           2.470016145014    -0.033633455584    -4.101231403958     1.007825032230
      Gh(C)           0.546906145014    -0.979203455584    -4.270891403958    12.000000000000
      Gh(H)           0.958566145014    -1.968193455584    -4.419161403958     1.007825032230
      Gh(C)          -0.834883854986    -0.793623455584    -4.257701403958    12.000000000000
      Gh(H)          -1.495543854986    -1.638623455584    -4.395721403958     1.007825032230
      Gh(C)          -1.365213854986     0.481466544416    -4.066471403958    12.000000000000
      Gh(H)          -2.436883854986     0.625256544416    -4.054051403958     1.007825032230
      Gh(C)          -0.513773854986     1.571256544416    -3.891341403958    12.000000000000
      Gh(H)          -0.926083854986     2.560646544416    -3.746711403958     1.007825032230
         N            0.005396145014     0.025896544416     5.387988596042    14.003074004430
         C            0.160076145014     0.963856544416     4.443118596042    12.000000000000
         H            0.301846145014     1.976386544416     4.801018596042     1.007825032230
         C            0.145866145014     0.696566544416     3.076618596042    12.000000000000
         H            0.276106145014     1.497596544416     2.362728596042     1.007825032230
         C           -0.038473854986    -0.615063455584     2.651318596042    12.000000000000
         H           -0.055033854986    -0.858183455584     1.597978596042     1.007825032230
         C           -0.200323854986    -1.600093455584     3.620178596042    12.000000000000
         H           -0.346863854986    -2.635303455584     3.345408596042     1.007825032230
         C           -0.171113854986    -1.232763455584     4.963268596042    12.000000000000
         H           -0.294713854986    -1.980273455584     5.737368596042     1.007825032230

  Charge       = 0
  Multiplicity = 1
  Basis Set: AUG-CC-PVDZ
    Blend: AUG-CC-PVDZ
  Basis Set: (AUG-CC-PVDZ AUX)
    Blend: AUG-CC-PVDZ-JKFIT

    Orbital Energies [Eh]
    ---------------------

    Doubly Occupied:

       1A    -15.575981     2A    -11.282052     3A    -11.282023
       4A    -11.266817     5A    -11.248914     6A    -11.248798
       7A     -1.260397     8A     -1.093157     9A     -1.036353
      10A     -0.861519    11A     -0.858189    12A     -0.723133
      13A     -0.661790    14A     -0.655137    15A     -0.598784
      16A     -0.578693    17A     -0.541095    18A     -0.519658
      19A     -0.419950    20A     -0.383930    21A     -0.347729

  @DF-RHF Final Energy:  -246.72387593131194

   => Energetics <=

    Nuclear Repulsion Energy =            206.2246923708726740
    One-Electron Energy =                -741.0089471365995450
    Two-Electron Energy =                 288.0603788344150189
    Total Energy =                       -246.7238759313119090

  Dipole Moment: [D]
     X:    -0.0367      Y:    -0.5351      Z:    -2.2868     Total:     2.3489

    SAPT Results
  --------------------------------------------------------------------------------------------------------
    Electrostatics                 -0.25199930 [mEh]      -0.15813195 [kcal/mol]      -0.66162408 [kJ/mol]
      Elst10,r                     -0.32497836 [mEh]      -0.20392700 [kcal/mol]      -0.85323056 [kJ/mol]
      Elst12,r                      0.07297905 [mEh]       0.04579505 [kcal/mol]       0.19160648 [kJ/mol]

    Exchange                        0.00028808 [mEh]       0.00018077 [kcal/mol]       0.00075635 [kJ/mol]
      Exch10                        0.00026236 [mEh]       0.00016463 [kcal/mol]       0.00068883 [kJ/mol]
      Exch10(S^2)                   0.00026236 [mEh]       0.00016463 [kcal/mol]       0.00068883 [kJ/mol]
      Exch11(S^2)                  -0.00001145 [mEh]      -0.00000718 [kcal/mol]      -0.00003005 [kJ/mol]
      Exch12(S^2)                   0.00003717 [mEh]       0.00002332 [kcal/mol]       0.00009758 [kJ/mol]

    Induction                      -0.01006088 [mEh]      -0.00631330 [kcal/mol]      -0.02641484 [kJ/mol]
      Ind20,r                      -0.01222456 [mEh]      -0.00767103 [kcal/mol]      -0.03209558 [kJ/mol]
      Ind22                         0.00172733 [mEh]       0.00108391 [kcal/mol]       0.00453509 [kJ/mol]
      Exch-Ind20,r                  0.00016907 [mEh]       0.00010609 [kcal/mol]       0.00044389 [kJ/mol]
      Exch-Ind22                   -0.00002389 [mEh]      -0.00001499 [kcal/mol]      -0.00006272 [kJ/mol]
      delta HF,r (2)                0.00029118 [mEh]       0.00018272 [kcal/mol]       0.00076448 [kJ/mol]

    Dispersion                     -0.19006311 [mEh]      -0.11926640 [kcal/mol]      -0.49901064 [kJ/mol]
      Disp20                       -0.21707495 [mEh]      -0.13621659 [kcal/mol]      -0.56993021 [kJ/mol]
      Disp21                        0.07586130 [mEh]       0.04760368 [kcal/mol]       0.19917381 [kJ/mol]
      Disp22 (SDQ)                 -0.00026876 [mEh]      -0.00016865 [kcal/mol]      -0.00070563 [kJ/mol]
      Disp22 (T)                   -0.04828196 [mEh]      -0.03029739 [kcal/mol]      -0.12676426 [kJ/mol]
      Est. Disp22 (T)              -0.04863645 [mEh]      -0.03051984 [kcal/mol]      -0.12769499 [kJ/mol]
      Exch-Disp20                   0.00005575 [mEh]       0.00003499 [kcal/mol]       0.00014638 [kJ/mol]

  Total HF                         -0.33648032 [mEh]      -0.21114459 [kcal/mol]      -0.88342895 [kJ/mol]
  Total SAPT0                      -0.55349952 [mEh]      -0.34732619 [kcal/mol]      -1.45321278 [kJ/mol]
  Total SAPT2                      -0.47879131 [mEh]      -0.30044608 [kcal/mol]      -1.25706640 [kJ/mol]
  Total SAPT2+                     -0.45183522 [mEh]      -0.28353088 [kcal/mol]      -1.18629321 [kJ/mol]

  Special recipe for scaled SAPT0 (see Manual):
    Electrostatics sSAPT0          -0.32497836 [mEh]      -0.20392700 [kcal/mol]      -0.85323056 [kJ/mol]
    Exchange sSAPT0                 0.00026236 [mEh]       0.00016463 [kcal/mol]       0.00068883 [kJ/mol]
    Induction sSAPT0               -0.01176432 [mEh]      -0.00738222 [kcal/mol]      -0.03088721 [kJ/mol]
    Dispersion sSAPT0              -0.21701920 [mEh]      -0.13618160 [kcal/mol]      -0.56978383 [kJ/mol]
  Total sSAPT0                     -0.55349952 [mEh]      -0.34732619 [kcal/mol]      -1.45321278 [kJ/mol]
  --------------------------------------------------------------------------------------------------------

*** Psi4 exiting successfully. Buy a developer a beer!
