                               Psi4 1.4a2.dev224

  ==> Input File <==

--------------------------------------------------------------------------
#Generated by lconvert.py for sapt job

memory 20 GB

molecule  {
0 1
  C       0.964080    0.875090    0.378010
  H       1.659830    1.699930    0.446040
  C       1.431060   -0.413130    0.118990
  H       2.489520   -0.587210   -0.017010
  C       0.534130   -1.477640    0.042420
  H       0.896960   -2.477390   -0.152010
  C      -0.830330   -1.253600    0.220860
  H      -1.525760   -2.079620    0.164120
  C      -1.297590    0.034410    0.480240
  H      -2.354400    0.208020    0.628560
  C      -0.400440    1.099780    0.561600
  H      -0.760450    2.093770    0.784760
--
0 1
  C      -0.247820    1.140340    8.900470
  O      -0.716010    2.189790    8.521210
  O       0.155390    0.162780    8.061180
  H      -0.013310    0.488690    7.159770
  C      -0.037870    0.743350   10.331870
  H      -0.347830    1.552690   10.981860
  H      -0.613950   -0.153270   10.548820
  H       1.010630    0.507220   10.496890
units angstrom
no_reorient
symmetry c1
}

set {
scf_type DF
basis aug-cc-pvdz
freeze_core True
guess SAD
}
energy('sapt2+')
--------------------------------------------------------------------------

  //              Dimer HF             //
    Molecular point group: c1
  Charge       = 0
  Multiplicity = 1
  Basis Set: AUG-CC-PVDZ
    Blend: AUG-CC-PVDZ
  Basis Set: (AUG-CC-PVDZ AUX)
    Blend: AUG-CC-PVDZ-JKFIT
  @DF-RHF Final Energy:  -458.57681896522871
    Total Energy =                       -458.5768189652287674
  //            Monomer A HF           //
    Molecular point group: c1
  Multiplicity = 1
  Basis Set: AUG-CC-PVDZ
    Blend: AUG-CC-PVDZ
  Basis Set: (AUG-CC-PVDZ AUX)
    Blend: AUG-CC-PVDZ-JKFIT
  @DF-RHF Final Energy:  -230.72783547775393
    Total Energy =                       -230.7278354777539562
  //            Monomer B HF           //
    Molecular point group: c1

    Geometry (in Angstrom), charge = 0, multiplicity = 1:

       Center              X                  Y                   Z               Mass
    ------------   -----------------  -----------------  -----------------  -----------------
      Gh(C)           1.015791708742     0.528340846439    -3.670792499621    12.000000000000
      Gh(H)           1.711541708742     1.353180846439    -3.602762499621     1.007825032230
      Gh(C)           1.482771708742    -0.759879153561    -3.929812499621    12.000000000000
      Gh(H)           2.541231708742    -0.933959153561    -4.065812499621     1.007825032230
      Gh(C)           0.585841708742    -1.824389153561    -4.006382499621    12.000000000000
      Gh(H)           0.948671708742    -2.824139153561    -4.200812499621     1.007825032230
      Gh(C)          -0.778618291258    -1.600349153561    -3.827942499621    12.000000000000
      Gh(H)          -1.474048291258    -2.426369153561    -3.884682499621     1.007825032230
      Gh(C)          -1.245878291258    -0.312339153561    -3.568562499621    12.000000000000
      Gh(H)          -2.302688291258    -0.138729153561    -3.420242499621     1.007825032230
      Gh(C)          -0.348728291258     0.753030846439    -3.487202499621    12.000000000000
      Gh(H)          -0.708738291258     1.747020846439    -3.264042499621     1.007825032230
         C           -0.196108291258     0.793590846439     4.851667500379    12.000000000000
         O           -0.664298291258     1.843040846439     4.472407500379    15.994914619570
         O            0.207101708742    -0.183969153561     4.012377500379    15.994914619570
         H            0.038401708742     0.141940846439     3.110967500379     1.007825032230
         C            0.013841708742     0.396600846439     6.283067500379    12.000000000000
         H           -0.296118291258     1.205940846439     6.933057500379     1.007825032230
         H           -0.562238291258    -0.500019153561     6.500017500379     1.007825032230
         H            1.062341708742     0.160470846439     6.448087500379     1.007825032230

  Charge       = 0
  Multiplicity = 1
  Basis Set: AUG-CC-PVDZ
    Blend: AUG-CC-PVDZ
  Basis Set: (AUG-CC-PVDZ AUX)
    Blend: AUG-CC-PVDZ-JKFIT

    Orbital Energies [Eh]
    ---------------------

    Doubly Occupied:

       1A    -20.626596     2A    -20.562671     3A    -11.400118
       4A    -11.252653     5A     -1.472191     6A     -1.367606
       7A     -1.031202     8A     -0.827907     9A     -0.709910
      10A     -0.683130    11A     -0.653034    12A     -0.586261
      13A     -0.574488    14A     -0.562713    15A     -0.484691
      16A     -0.455902

  @DF-RHF Final Energy:  -227.84875911995317

   => Energetics <=

    Nuclear Repulsion Energy =            121.2268108588042281
    One-Electron Energy =                -551.6489983034316538
    Two-Electron Energy =                 202.5734283246742393
    Total Energy =                       -227.8487591199531721

  Dipole Moment: [D]
     X:     0.7780      Y:    -1.7600      Z:     0.6559     Total:     2.0329

    SAPT Results
  --------------------------------------------------------------------------------------------------------
    Electrostatics                 -0.18044995 [mEh]      -0.11323405 [kcal/mol]      -0.47377128 [kJ/mol]
      Elst10,r                     -0.22068265 [mEh]      -0.13848046 [kcal/mol]      -0.57940223 [kJ/mol]
      Elst12,r                      0.04023270 [mEh]       0.02524640 [kcal/mol]       0.10563095 [kJ/mol]

    Exchange                       -0.00000757 [mEh]      -0.00000475 [kcal/mol]      -0.00001988 [kJ/mol]
      Exch10                       -0.00000006 [mEh]      -0.00000004 [kcal/mol]      -0.00000016 [kJ/mol]
      Exch10(S^2)                  -0.00000006 [mEh]      -0.00000004 [kcal/mol]      -0.00000016 [kJ/mol]
      Exch11(S^2)                   0.00000078 [mEh]       0.00000049 [kcal/mol]       0.00000206 [kJ/mol]
      Exch12(S^2)                  -0.00000830 [mEh]      -0.00000521 [kcal/mol]      -0.00002178 [kJ/mol]

    Induction                      -0.00346834 [mEh]      -0.00217642 [kcal/mol]      -0.00910613 [kJ/mol]
      Ind20,r                      -0.00331559 [mEh]      -0.00208056 [kcal/mol]      -0.00870507 [kJ/mol]
      Ind22                         0.00021721 [mEh]       0.00013630 [kcal/mol]       0.00057028 [kJ/mol]
      Exch-Ind20,r                  0.00001140 [mEh]       0.00000715 [kcal/mol]       0.00002992 [kJ/mol]
      Exch-Ind22                   -0.00000075 [mEh]      -0.00000047 [kcal/mol]      -0.00000196 [kJ/mol]
      delta HF,r (2)               -0.00038061 [mEh]      -0.00023884 [kcal/mol]      -0.00099930 [kJ/mol]

    Dispersion                     -0.05382601 [mEh]      -0.03377633 [kcal/mol]      -0.14132017 [kJ/mol]
      Disp20                       -0.05607414 [mEh]      -0.03518705 [kcal/mol]      -0.14722263 [kJ/mol]
      Disp21                        0.01486412 [mEh]       0.00932738 [kcal/mol]       0.03902575 [kJ/mol]
      Disp22 (SDQ)                 -0.00058787 [mEh]      -0.00036889 [kcal/mol]      -0.00154345 [kJ/mol]
      Disp22 (T)                   -0.01197312 [mEh]      -0.00751325 [kcal/mol]      -0.03143543 [kJ/mol]
      Est. Disp22 (T)              -0.01203231 [mEh]      -0.00755039 [kcal/mol]      -0.03159084 [kJ/mol]
      Exch-Disp20                   0.00000419 [mEh]       0.00000263 [kcal/mol]       0.00001099 [kJ/mol]

  Total HF                         -0.22436752 [mEh]      -0.14079275 [kcal/mol]      -0.58907685 [kJ/mol]
  Total SAPT0                      -0.28043747 [mEh]      -0.17597717 [kcal/mol]      -0.73628848 [kJ/mol]
  Total SAPT2                      -0.23999582 [mEh]      -0.15059965 [kcal/mol]      -0.63010893 [kJ/mol]
  Total SAPT2+                     -0.23775188 [mEh]      -0.14919155 [kcal/mol]      -0.62421747 [kJ/mol]

  Special recipe for scaled SAPT0 (see Manual):
    Electrostatics sSAPT0          -0.22068265 [mEh]      -0.13848046 [kcal/mol]      -0.57940223 [kJ/mol]
    Exchange sSAPT0                -0.00000006 [mEh]      -0.00000004 [kcal/mol]      -0.00000016 [kJ/mol]
    Induction sSAPT0               -0.00368481 [mEh]      -0.00231225 [kcal/mol]      -0.00967446 [kJ/mol]
    Dispersion sSAPT0              -0.05606995 [mEh]      -0.03518443 [kcal/mol]      -0.14721163 [kJ/mol]
  Total sSAPT0                     -0.28043747 [mEh]      -0.17597717 [kcal/mol]      -0.73628848 [kJ/mol]
  --------------------------------------------------------------------------------------------------------

*** Psi4 exiting successfully. Buy a developer a beer!
