                               Psi4 1.4a2.dev224

  ==> Input File <==

--------------------------------------------------------------------------
#Generated by lconvert.py for sapt job

memory 20 GB

molecule  {
0 1
  C       0.964080    0.875090    0.378010
  H       1.659830    1.699930    0.446040
  C       1.431060   -0.413130    0.118990
  H       2.489520   -0.587210   -0.017010
  C       0.534130   -1.477640    0.042420
  H       0.896960   -2.477390   -0.152010
  C      -0.830330   -1.253600    0.220860
  H      -1.525760   -2.079620    0.164120
  C      -1.297590    0.034410    0.480240
  H      -2.354400    0.208020    0.628560
  C      -0.400440    1.099780    0.561600
  H      -0.760450    2.093770    0.784760
--
0 1
  C      -0.192010    0.897350    7.303700
  O      -0.660200    1.946790    6.924440
  O       0.211200   -0.080220    6.464420
  H       0.042490    0.245700    5.563010
  C       0.017940    0.500360    8.735110
  H      -0.292020    1.309700    9.385100
  H      -0.558140   -0.396260    8.952060
  H       1.066440    0.264230    8.900130
units angstrom
no_reorient
symmetry c1
}

set {
scf_type DF
basis aug-cc-pvdz
freeze_core True
guess SAD
}
energy('sapt2+')
--------------------------------------------------------------------------

  //              Dimer HF             //
    Molecular point group: c1
  Charge       = 0
  Multiplicity = 1
  Basis Set: AUG-CC-PVDZ
    Blend: AUG-CC-PVDZ
  Basis Set: (AUG-CC-PVDZ AUX)
    Blend: AUG-CC-PVDZ-JKFIT
  @DF-RHF Final Energy:  -458.57727081928505
    Total Energy =                       -458.5772708192851042
  //            Monomer A HF           //
    Molecular point group: c1
  Multiplicity = 1
  Basis Set: AUG-CC-PVDZ
    Blend: AUG-CC-PVDZ
  Basis Set: (AUG-CC-PVDZ AUX)
    Blend: AUG-CC-PVDZ-JKFIT
  @DF-RHF Final Energy:  -230.72788200990070
    Total Energy =                       -230.7278820099006680
  //            Monomer B HF           //
    Molecular point group: c1

    Geometry (in Angstrom), charge = 0, multiplicity = 1:

       Center              X                  Y                   Z               Mass
    ------------   -----------------  -----------------  -----------------  -----------------
      Gh(C)           0.991529988274     0.633976082113    -2.976644954559    12.000000000000
      Gh(H)           1.687279988274     1.458816082113    -2.908614954559     1.007825032230
      Gh(C)           1.458509988274    -0.654243917887    -3.235664954559    12.000000000000
      Gh(H)           2.516969988274    -0.828323917887    -3.371664954559     1.007825032230
      Gh(C)           0.561579988274    -1.718753917887    -3.312234954559    12.000000000000
      Gh(H)           0.924409988274    -2.718503917887    -3.506664954559     1.007825032230
      Gh(C)          -0.802880011726    -1.494713917887    -3.133794954559    12.000000000000
      Gh(H)          -1.498310011726    -2.320733917887    -3.190534954559     1.007825032230
      Gh(C)          -1.270140011726    -0.206703917887    -2.874414954559    12.000000000000
      Gh(H)          -2.326950011726    -0.033093917887    -2.726094954559     1.007825032230
      Gh(C)          -0.372990011726     0.858666082113    -2.793054954559    12.000000000000
      Gh(H)          -0.733000011726     1.852656082113    -2.569894954559     1.007825032230
         C           -0.164560011726     0.656236082113     3.949045045441    12.000000000000
         O           -0.632750011726     1.705676082113     3.569785045441    15.994914619570
         O            0.238649988274    -0.321333917887     3.109765045441    15.994914619570
         H            0.069939988274     0.004586082113     2.208355045441     1.007825032230
         C            0.045389988274     0.259246082113     5.380455045441    12.000000000000
         H           -0.264570011726     1.068586082113     6.030445045441     1.007825032230
         H           -0.530690011726    -0.637373917887     5.597405045441     1.007825032230
         H            1.093889988274     0.023116082113     5.545475045441     1.007825032230

  Charge       = 0
  Multiplicity = 1
  Basis Set: AUG-CC-PVDZ
    Blend: AUG-CC-PVDZ
  Basis Set: (AUG-CC-PVDZ AUX)
    Blend: AUG-CC-PVDZ-JKFIT

    Orbital Energies [Eh]
    ---------------------

    Doubly Occupied:

       1A    -20.626608     2A    -20.562678     3A    -11.400119
       4A    -11.252652     5A     -1.472193     6A     -1.367612
       7A     -1.031198     8A     -0.827905     9A     -0.709912
      10A     -0.683131    11A     -0.653033    12A     -0.586263
      13A     -0.574486    14A     -0.562712    15A     -0.484694
      16A     -0.455904

  @DF-RHF Final Energy:  -227.84877461694364

   => Energetics <=

    Nuclear Repulsion Energy =            121.2268381886135700
    One-Electron Energy =                -551.6490298026263872
    Two-Electron Energy =                 202.5734169970691880
    Total Energy =                       -227.8487746169436434

  Dipole Moment: [D]
     X:     0.7779      Y:    -1.7599      Z:     0.6552     Total:     2.0327

    SAPT Results
  --------------------------------------------------------------------------------------------------------
    Electrostatics                 -0.48426923 [mEh]      -0.30388353 [kcal/mol]      -1.27144868 [kJ/mol]
      Elst10,r                     -0.59586059 [mEh]      -0.37390817 [kcal/mol]      -1.56443178 [kJ/mol]
      Elst12,r                      0.11159137 [mEh]       0.07002464 [kcal/mol]       0.29298309 [kJ/mol]

    Exchange                        0.00136165 [mEh]       0.00085445 [kcal/mol]       0.00357501 [kJ/mol]
      Exch10                        0.00112155 [mEh]       0.00070378 [kcal/mol]       0.00294463 [kJ/mol]
      Exch10(S^2)                   0.00112155 [mEh]       0.00070378 [kcal/mol]       0.00294462 [kJ/mol]
      Exch11(S^2)                  -0.00000874 [mEh]      -0.00000548 [kcal/mol]      -0.00002294 [kJ/mol]
      Exch12(S^2)                   0.00024884 [mEh]       0.00015615 [kcal/mol]       0.00065332 [kJ/mol]

    Induction                      -0.01844496 [mEh]      -0.01157439 [kcal/mol]      -0.04842724 [kJ/mol]
      Ind20,r                      -0.01911739 [mEh]      -0.01199634 [kcal/mol]      -0.05019271 [kJ/mol]
      Ind22                         0.00102820 [mEh]       0.00064520 [kcal/mol]       0.00269954 [kJ/mol]
      Exch-Ind20,r                  0.00036747 [mEh]       0.00023059 [kcal/mol]       0.00096478 [kJ/mol]
      Exch-Ind22                   -0.00001976 [mEh]      -0.00001240 [kcal/mol]      -0.00005189 [kJ/mol]
      delta HF,r (2)               -0.00070347 [mEh]      -0.00044143 [kcal/mol]      -0.00184696 [kJ/mol]

    Dispersion                     -0.20297595 [mEh]      -0.12736933 [kcal/mol]      -0.53291329 [kJ/mol]
      Disp20                       -0.20921655 [mEh]      -0.13128536 [kcal/mol]      -0.54929797 [kJ/mol]
      Disp21                        0.05319741 [mEh]       0.03338188 [kcal/mol]       0.13966979 [kJ/mol]
      Disp22 (SDQ)                 -0.00239249 [mEh]      -0.00150131 [kcal/mol]      -0.00628148 [kJ/mol]
      Disp22 (T)                   -0.04426694 [mEh]      -0.02777793 [kcal/mol]      -0.11622284 [kJ/mol]
      Est. Disp22 (T)              -0.04479092 [mEh]      -0.02810673 [kcal/mol]      -0.11759854 [kJ/mol]
      Exch-Disp20                   0.00022659 [mEh]       0.00014219 [kcal/mol]       0.00059491 [kJ/mol]

  Total HF                         -0.61419244 [mEh]      -0.38541158 [kcal/mol]      -1.61256203 [kJ/mol]
  Total SAPT0                      -0.82318240 [mEh]      -0.51655475 [kcal/mol]      -2.16126509 [kJ/mol]
  Total SAPT2                      -0.71034250 [mEh]      -0.44574665 [kcal/mol]      -1.86500396 [kJ/mol]
  Total SAPT2+                     -0.70432849 [mEh]      -0.44197280 [kcal/mol]      -1.84921420 [kJ/mol]

  Special recipe for scaled SAPT0 (see Manual):
    Electrostatics sSAPT0          -0.59586059 [mEh]      -0.37390817 [kcal/mol]      -1.56443178 [kJ/mol]
    Exchange sSAPT0                 0.00112155 [mEh]       0.00070378 [kcal/mol]       0.00294463 [kJ/mol]
    Induction sSAPT0               -0.01945339 [mEh]      -0.01220719 [kcal/mol]      -0.05107488 [kJ/mol]
    Dispersion sSAPT0              -0.20898996 [mEh]      -0.13114318 [kcal/mol]      -0.54870306 [kJ/mol]
  Total sSAPT0                     -0.82318240 [mEh]      -0.51655475 [kcal/mol]      -2.16126509 [kJ/mol]
  --------------------------------------------------------------------------------------------------------

*** Psi4 exiting successfully. Buy a developer a beer!
