                               Psi4 1.4a2.dev224

  ==> Input File <==

--------------------------------------------------------------------------
#Generated by lconvert.py for sapt job

memory 20 GB

molecule  {
0 1
  C       0.964080    0.875090    0.378010
  H       1.659830    1.699930    0.446040
  C       1.431060   -0.413130    0.118990
  H       2.489520   -0.587210   -0.017010
  C       0.534130   -1.477640    0.042420
  H       0.896960   -2.477390   -0.152010
  C      -0.830330   -1.253600    0.220860
  H      -1.525760   -2.079620    0.164120
  C      -1.297590    0.034410    0.480240
  H      -2.354400    0.208020    0.628560
  C      -0.400440    1.099780    0.561600
  H      -0.760450    2.093770    0.784760
--
0 1
  C      -0.136200    0.654360    5.706940
  O      -0.604390    1.703800    5.327680
  O       0.267010   -0.323210    4.867660
  H       0.098300    0.002710    3.966250
  C       0.073750    0.257370    7.138350
  H      -0.236220    1.066710    7.788340
  H      -0.502330   -0.639260    7.355300
  H       1.122250    0.021240    7.303370
units angstrom
no_reorient
symmetry c1
}

set {
scf_type DF
basis aug-cc-pvdz
freeze_core True
guess SAD
}
energy('sapt2+')
--------------------------------------------------------------------------

  //              Dimer HF             //
    Molecular point group: c1
  Charge       = 0
  Multiplicity = 1
  Basis Set: AUG-CC-PVDZ
    Blend: AUG-CC-PVDZ
  Basis Set: (AUG-CC-PVDZ AUX)
    Blend: AUG-CC-PVDZ-JKFIT
  @DF-RHF Final Energy:  -458.57890878709492
    Total Energy =                       -458.5789087870948606
  //            Monomer A HF           //
    Molecular point group: c1
  Multiplicity = 1
  Basis Set: AUG-CC-PVDZ
    Blend: AUG-CC-PVDZ
  Basis Set: (AUG-CC-PVDZ AUX)
    Blend: AUG-CC-PVDZ-JKFIT
  @DF-RHF Final Energy:  -230.72806263946646
    Total Energy =                       -230.7280626394664864
  //            Monomer B HF           //
    Molecular point group: c1

    Geometry (in Angstrom), charge = 0, multiplicity = 1:

       Center              X                  Y                   Z               Mass
    ------------   -----------------  -----------------  -----------------  -----------------
      Gh(C)           0.967268267807     0.739609073820    -2.282499437115    12.000000000000
      Gh(H)           1.663018267807     1.564449073820    -2.214469437115     1.007825032230
      Gh(C)           1.434248267807    -0.548610926180    -2.541519437115    12.000000000000
      Gh(H)           2.492708267807    -0.722690926180    -2.677519437115     1.007825032230
      Gh(C)           0.537318267807    -1.613120926180    -2.618089437115    12.000000000000
      Gh(H)           0.900148267807    -2.612870926180    -2.812519437115     1.007825032230
      Gh(C)          -0.827141732193    -1.389080926180    -2.439649437115    12.000000000000
      Gh(H)          -1.522571732193    -2.215100926180    -2.496389437115     1.007825032230
      Gh(C)          -1.294401732193    -0.101070926180    -2.180269437115    12.000000000000
      Gh(H)          -2.351211732193     0.072539073820    -2.031949437115     1.007825032230
      Gh(C)          -0.397251732193     0.964299073820    -2.098909437115    12.000000000000
      Gh(H)          -0.757261732193     1.958289073820    -1.875749437115     1.007825032230
         C           -0.133011732193     0.518879073820     3.046430562885    12.000000000000
         O           -0.601201732193     1.568319073820     2.667170562885    15.994914619570
         O            0.270198267807    -0.458690926180     2.207150562885    15.994914619570
         H            0.101488267807    -0.132770926180     1.305740562885     1.007825032230
         C            0.076938267807     0.121889073820     4.477840562885    12.000000000000
         H           -0.233031732193     0.931229073820     5.127830562885     1.007825032230
         H           -0.499141732193    -0.774740926180     4.694790562885     1.007825032230
         H            1.125438267807    -0.114240926180     4.642860562885     1.007825032230

  Charge       = 0
  Multiplicity = 1
  Basis Set: AUG-CC-PVDZ
    Blend: AUG-CC-PVDZ
  Basis Set: (AUG-CC-PVDZ AUX)
    Blend: AUG-CC-PVDZ-JKFIT

    Orbital Energies [Eh]
    ---------------------

    Doubly Occupied:

       1A    -20.626625     2A    -20.562688     3A    -11.400112
       4A    -11.252636     5A     -1.472179     6A     -1.367598
       7A     -1.031190     8A     -0.827895     9A     -0.709900
      10A     -0.683118    11A     -0.653022    12A     -0.586251
      13A     -0.574484    14A     -0.562703    15A     -0.484680
      16A     -0.455895

  @DF-RHF Final Energy:  -227.84883230206904

   => Energetics <=

    Nuclear Repulsion Energy =            121.2267965859036138
    One-Electron Energy =                -551.6493106036454037
    Two-Electron Energy =                 202.5736817156727341
    Total Energy =                       -227.8488323020690416

  Dipole Moment: [D]
     X:     0.7782      Y:    -1.7609      Z:     0.6533     Total:     2.0330

    SAPT Results
  --------------------------------------------------------------------------------------------------------
    Electrostatics                 -1.58465452 [mEh]      -0.99438572 [kcal/mol]      -4.16050987 [kJ/mol]
      Elst10,r                     -1.94513166 [mEh]      -1.22058854 [kcal/mol]      -5.10694246 [kJ/mol]
      Elst12,r                      0.36047714 [mEh]       0.22620282 [kcal/mol]       0.94643259 [kJ/mol]

    Exchange                        0.18593751 [mEh]       0.11667755 [kcal/mol]       0.48817888 [kJ/mol]
      Exch10                        0.15123844 [mEh]       0.09490356 [kcal/mol]       0.39707647 [kJ/mol]
      Exch10(S^2)                   0.15121247 [mEh]       0.09488726 [kcal/mol]       0.39700830 [kJ/mol]
      Exch11(S^2)                   0.00141113 [mEh]       0.00088550 [kcal/mol]       0.00370492 [kJ/mol]
      Exch12(S^2)                   0.03328794 [mEh]       0.02088850 [kcal/mol]       0.08739748 [kJ/mol]

    Induction                      -0.21602265 [mEh]      -0.13555626 [kcal/mol]      -0.56716739 [kJ/mol]
      Ind20,r                      -0.22745931 [mEh]      -0.14273287 [kcal/mol]      -0.59719433 [kJ/mol]
      Ind22                         0.00484050 [mEh]       0.00303746 [kcal/mol]       0.01270874 [kJ/mol]
      Exch-Ind20,r                  0.04279960 [mEh]       0.02685716 [kcal/mol]       0.11237035 [kJ/mol]
      Exch-Ind22                   -0.00091081 [mEh]      -0.00057154 [kcal/mol]      -0.00239132 [kJ/mol]
      delta HF,r (2)               -0.03529264 [mEh]      -0.02214647 [kcal/mol]      -0.09266082 [kJ/mol]

    Dispersion                     -1.17446825 [mEh]      -0.73698995 [kcal/mol]      -3.08356595 [kJ/mol]
      Disp20                       -1.19688708 [mEh]      -0.75105798 [kcal/mol]      -3.14242660 [kJ/mol]
      Disp21                        0.26720151 [mEh]       0.16767148 [kcal/mol]       0.70153746 [kJ/mol]
      Disp22 (SDQ)                 -0.01361271 [mEh]      -0.00854211 [kcal/mol]      -0.03574018 [kJ/mol]
      Disp22 (T)                   -0.24432433 [mEh]      -0.15331583 [kcal/mol]      -0.64147343 [kJ/mol]
      Est. Disp22 (T)              -0.25358443 [mEh]      -0.15912663 [kcal/mol]      -0.66578584 [kJ/mol]
      Exch-Disp20                   0.02241448 [mEh]       0.01406530 [kcal/mol]       0.05884921 [kJ/mol]

  Total HF                         -2.01384556 [mEh]      -1.26370717 [kcal/mol]      -5.28735079 [kJ/mol]
  Total SAPT0                      -3.18831816 [mEh]      -2.00069985 [kcal/mol]      -8.37092818 [kJ/mol]
  Total SAPT2                      -2.78921226 [mEh]      -1.75025712 [kcal/mol]      -7.32307578 [kJ/mol]
  Total SAPT2+                     -2.78920790 [mEh]      -1.75025438 [kcal/mol]      -7.32306433 [kJ/mol]

  Special recipe for scaled SAPT0 (see Manual):
    Electrostatics sSAPT0          -1.94513166 [mEh]      -1.22058854 [kcal/mol]      -5.10694246 [kJ/mol]
    Exchange sSAPT0                 0.15123844 [mEh]       0.09490356 [kcal/mol]       0.39707647 [kJ/mol]
    Induction sSAPT0               -0.21993029 [mEh]      -0.13800834 [kcal/mol]      -0.57742690 [kJ/mol]
    Dispersion sSAPT0              -1.17446105 [mEh]      -0.73698544 [kcal/mol]      -3.08354707 [kJ/mol]
  Total sSAPT0                     -3.18828456 [mEh]      -2.00067877 [kcal/mol]      -8.37083996 [kJ/mol]
  --------------------------------------------------------------------------------------------------------

*** Psi4 exiting successfully. Buy a developer a beer!
