                               Psi4 1.4a2.dev224

  ==> Input File <==

--------------------------------------------------------------------------
#Generated by lconvert.py for sapt job

memory 20 GB

molecule  {
0 1
  C       0.855560    0.358530    1.049750
  H       1.513830    0.902680    1.712770
  C       1.342900   -0.675380    0.251160
  H       2.392880   -0.933340    0.281960
  C       0.477810   -1.376700   -0.587820
  H       0.856080   -2.178910   -1.206820
  C      -0.874830   -1.042560   -0.630450
  H      -1.545410   -1.585700   -1.282420
  C      -1.362400   -0.007010    0.165850
  H      -2.411570    0.253470    0.130780
  C      -0.498440    0.693160    1.006990
  H      -0.866110    1.490340    1.638040
--
0 1
  C      -0.046790    0.089460    5.531020
  O       0.199700    1.132880    4.943780
  N      -0.350840   -1.065550    4.879850
  H      -0.325640   -1.072560    3.873210
  H      -0.506620   -1.921040    5.375550
  C      -0.023950   -0.005430    7.039440
  H       1.007760    0.078780    7.374510
  H      -0.445850   -0.932080    7.420460
  H      -0.573410    0.838410    7.446210
units angstrom
no_reorient
symmetry c1
}

set {
scf_type DF
basis aug-cc-pvdz
freeze_core True
guess SAD
}
energy('sapt2+')
--------------------------------------------------------------------------

  //              Dimer HF             //
    Molecular point group: c1
  Charge       = 0
  Multiplicity = 1
  Basis Set: AUG-CC-PVDZ
    Blend: AUG-CC-PVDZ
  Basis Set: (AUG-CC-PVDZ AUX)
    Blend: AUG-CC-PVDZ-JKFIT
  @DF-RHF Final Energy:  -438.74292095783801
    Total Energy =                       -438.7429209578380096
  //            Monomer A HF           //
    Molecular point group: c1
  Multiplicity = 1
  Basis Set: AUG-CC-PVDZ
    Blend: AUG-CC-PVDZ
  Basis Set: (AUG-CC-PVDZ AUX)
    Blend: AUG-CC-PVDZ-JKFIT
  @DF-RHF Final Energy:  -230.72813700530801
    Total Energy =                       -230.7281370053079854
  //            Monomer B HF           //
    Molecular point group: c1

    Geometry (in Angstrom), charge = 0, multiplicity = 1:

       Center              X                  Y                   Z               Mass
    ------------   -----------------  -----------------  -----------------  -----------------
      Gh(C)           0.886135897819     0.544484225190    -1.476730036694    12.000000000000
      Gh(H)           1.544405897819     1.088634225190    -0.813710036694     1.007825032230
      Gh(C)           1.373475897819    -0.489425774810    -2.275320036694    12.000000000000
      Gh(H)           2.423455897819    -0.747385774810    -2.244520036694     1.007825032230
      Gh(C)           0.508385897819    -1.190745774810    -3.114300036694    12.000000000000
      Gh(H)           0.886655897819    -1.992955774810    -3.733300036694     1.007825032230
      Gh(C)          -0.844254102181    -0.856605774810    -3.156930036694    12.000000000000
      Gh(H)          -1.514834102181    -1.399745774810    -3.808900036694     1.007825032230
      Gh(C)          -1.331824102181     0.178944225190    -2.360630036694    12.000000000000
      Gh(H)          -2.380994102181     0.439424225190    -2.395700036694     1.007825032230
      Gh(C)          -0.467864102181     0.879114225190    -1.519490036694    12.000000000000
      Gh(H)          -0.835534102181     1.676294225190    -0.888440036694     1.007825032230
         C           -0.016214102181     0.275414225190     3.004539963306    12.000000000000
         O            0.230275897819     1.318834225190     2.417299963306    15.994914619570
         N           -0.320264102181    -0.879595774810     2.353369963306    14.003074004430
         H           -0.295064102181    -0.886605774810     1.346729963306     1.007825032230
         H           -0.476044102181    -1.735085774810     2.849069963306     1.007825032230
         C            0.006625897819     0.180524225190     4.512959963306    12.000000000000
         H            1.038335897819     0.264734225190     4.848029963306     1.007825032230
         H           -0.415274102181    -0.746125774810     4.893979963306     1.007825032230
         H           -0.542834102181     1.024364225190     4.919729963306     1.007825032230

  Charge       = 0
  Multiplicity = 1
  Basis Set: AUG-CC-PVDZ
    Blend: AUG-CC-PVDZ
  Basis Set: (AUG-CC-PVDZ AUX)
    Blend: AUG-CC-PVDZ-JKFIT

    Orbital Energies [Eh]
    ---------------------

    Doubly Occupied:

       1A    -20.526219     2A    -15.596491     3A    -11.362543
       4A    -11.244907     5A     -1.381360     6A     -1.218000
       7A     -1.007730     8A     -0.803708     9A     -0.730622
      10A     -0.665877    11A     -0.615728    12A     -0.586401
      13A     -0.562887    14A     -0.524323    15A     -0.423513
      16A     -0.414649

  @DF-RHF Final Energy:  -208.01215169512113

   => Energetics <=

    Nuclear Repulsion Energy =            121.8374554077750958
    One-Electron Energy =                -524.3693027068908350
    Two-Electron Energy =                 194.5196956039945917
    Total Energy =                       -208.0121516951211333

  Dipole Moment: [D]
     X:    -0.7727      Y:    -3.9441      Z:     1.5004     Total:     4.2900

    SAPT Results
  --------------------------------------------------------------------------------------------------------
    Electrostatics                 -2.53860221 [mEh]      -1.59299694 [kcal/mol]      -6.66509918 [kJ/mol]
      Elst10,r                     -2.98584703 [mEh]      -1.87364730 [kcal/mol]      -7.83934030 [kJ/mol]
      Elst12,r                      0.44724482 [mEh]       0.28065036 [kcal/mol]       1.17424111 [kJ/mol]

    Exchange                        1.09571679 [mEh]       0.68757267 [kcal/mol]       2.87680404 [kJ/mol]
      Exch10                        0.90346084 [mEh]       0.56693024 [kcal/mol]       2.37203612 [kJ/mol]
      Exch10(S^2)                   0.90270222 [mEh]       0.56645419 [kcal/mol]       2.37004435 [kJ/mol]
      Exch11(S^2)                  -0.00339570 [mEh]      -0.00213083 [kcal/mol]      -0.00891541 [kJ/mol]
      Exch12(S^2)                   0.19565165 [mEh]       0.12277326 [kcal/mol]       0.51368333 [kJ/mol]

    Induction                      -0.54193426 [mEh]      -0.34006888 [kcal/mol]      -1.42284820 [kJ/mol]
      Ind20,r                      -0.71291352 [mEh]      -0.44735999 [kcal/mol]      -1.87175418 [kJ/mol]
      Ind22                         0.01255903 [mEh]       0.00788091 [kcal/mol]       0.03297373 [kJ/mol]
      Exch-Ind20,r                  0.26237169 [mEh]       0.16464072 [kcal/mol]       0.68885679 [kJ/mol]
      Exch-Ind22                   -0.00462207 [mEh]      -0.00290039 [kcal/mol]      -0.01213524 [kJ/mol]
      delta HF,r (2)               -0.09932940 [mEh]      -0.06233014 [kcal/mol]      -0.26078931 [kJ/mol]

    Dispersion                     -2.28812273 [mEh]      -1.43581869 [kcal/mol]      -6.00746541 [kJ/mol]
      Disp20                       -2.34651119 [mEh]      -1.47245800 [kcal/mol]      -6.16076427 [kJ/mol]
      Disp21                        0.42333326 [mEh]       0.26564563 [kcal/mol]       1.11146132 [kJ/mol]
      Disp22 (SDQ)                 -0.01068698 [mEh]      -0.00670618 [kcal/mol]      -0.02805866 [kJ/mol]
      Disp22 (T)                   -0.45149891 [mEh]      -0.28331984 [kcal/mol]      -1.18541021 [kJ/mol]
      Est. Disp22 (T)              -0.48091446 [mEh]      -0.30177838 [kcal/mol]      -1.26264074 [kJ/mol]
      Exch-Disp20                   0.12665663 [mEh]       0.07947824 [kcal/mol]       0.33253694 [kJ/mol]

  Total HF                         -2.63225741 [mEh]      -1.65176646 [kcal/mol]      -6.91099087 [kJ/mol]
  Total SAPT0                      -4.85211197 [mEh]      -3.04474623 [kcal/mol]     -12.73921821 [kJ/mol]
  Total SAPT2                      -4.20467423 [mEh]      -2.63847292 [kcal/mol]     -11.03937068 [kJ/mol]
  Total SAPT2+                     -4.27294241 [mEh]      -2.68131184 [kcal/mol]     -11.21860875 [kJ/mol]

  Special recipe for scaled SAPT0 (see Manual):
    Electrostatics sSAPT0          -2.98584703 [mEh]      -1.87364730 [kcal/mol]      -7.83934030 [kJ/mol]
    Exchange sSAPT0                 0.90346084 [mEh]       0.56693024 [kcal/mol]       2.37203612 [kJ/mol]
    Induction sSAPT0               -0.54920918 [mEh]      -0.34463396 [kcal/mol]      -1.44194851 [kJ/mol]
    Dispersion sSAPT0              -2.21953496 [mEh]      -1.39277922 [kcal/mol]      -5.82738825 [kJ/mol]
  Total sSAPT0                     -4.85113033 [mEh]      -3.04413024 [kcal/mol]     -12.73664093 [kJ/mol]
  --------------------------------------------------------------------------------------------------------

*** Psi4 exiting successfully. Buy a developer a beer!
