                               Psi4 1.4a2.dev224

  ==> Input File <==

--------------------------------------------------------------------------
#Generated by lconvert.py for sapt job

memory 20 GB

molecule  {
0 1
  C       0.855560    0.358530    1.049750
  H       1.513830    0.902680    1.712770
  C       1.342900   -0.675380    0.251160
  H       2.392880   -0.933340    0.281960
  C       0.477810   -1.376700   -0.587820
  H       0.856080   -2.178910   -1.206820
  C      -0.874830   -1.042560   -0.630450
  H      -1.545410   -1.585700   -1.282420
  C      -1.362400   -0.007010    0.165850
  H      -2.411570    0.253470    0.130780
  C      -0.498440    0.693160    1.006990
  H      -0.866110    1.490340    1.638040
--
0 1
  C      -0.173350   -0.311730    6.245050
  O       0.073140    0.731700    5.657810
  N      -0.477390   -1.466740    5.593880
  H      -0.452190   -1.473750    4.587250
  H      -0.633170   -2.322230    6.089580
  C      -0.150500   -0.406620    7.753470
  H       0.881210   -0.322410    8.088540
  H      -0.572410   -1.333260    8.134490
  H      -0.699970    0.437220    8.160240
units angstrom
no_reorient
symmetry c1
}

set {
scf_type DF
basis aug-cc-pvdz
freeze_core True
guess SAD
}
energy('sapt2+')
--------------------------------------------------------------------------

  //              Dimer HF             //
    Molecular point group: c1
  Charge       = 0
  Multiplicity = 1
  Basis Set: AUG-CC-PVDZ
    Blend: AUG-CC-PVDZ
  Basis Set: (AUG-CC-PVDZ AUX)
    Blend: AUG-CC-PVDZ-JKFIT
  @DF-RHF Final Energy:  -438.74152908261601
    Total Energy =                       -438.7415290826160117
  //            Monomer A HF           //
    Molecular point group: c1
  Multiplicity = 1
  Basis Set: AUG-CC-PVDZ
    Blend: AUG-CC-PVDZ
  Basis Set: (AUG-CC-PVDZ AUX)
    Blend: AUG-CC-PVDZ-JKFIT
  @DF-RHF Final Energy:  -230.72799739410112
    Total Energy =                       -230.7279973941011235
  //            Monomer B HF           //
    Molecular point group: c1

    Geometry (in Angstrom), charge = 0, multiplicity = 1:

       Center              X                  Y                   Z               Mass
    ------------   -----------------  -----------------  -----------------  -----------------
      Gh(C)           0.940638563106     0.717260906627    -1.784236826403    12.000000000000
      Gh(H)           1.598908563106     1.261410906627    -1.121216826403     1.007825032230
      Gh(C)           1.427978563106    -0.316649093373    -2.582826826403    12.000000000000
      Gh(H)           2.477958563106    -0.574609093373    -2.552026826403     1.007825032230
      Gh(C)           0.562888563106    -1.017969093373    -3.421806826403    12.000000000000
      Gh(H)           0.941158563106    -1.820179093373    -4.040806826403     1.007825032230
      Gh(C)          -0.789751436894    -0.683829093373    -3.464436826403    12.000000000000
      Gh(H)          -1.460331436894    -1.226969093373    -4.116406826403     1.007825032230
      Gh(C)          -1.277321436894     0.351720906627    -2.668136826403    12.000000000000
      Gh(H)          -2.326491436894     0.612200906627    -2.703206826403     1.007825032230
      Gh(C)          -0.413361436894     1.051890906627    -1.826996826403    12.000000000000
      Gh(H)          -0.781031436894     1.849070906627    -1.195946826403     1.007825032230
         C           -0.088271436894     0.047000906627     3.411063173597    12.000000000000
         O            0.158218563106     1.090430906627     2.823823173597    15.994914619570
         N           -0.392311436894    -1.108009093373     2.759893173597    14.003074004430
         H           -0.367111436894    -1.115019093373     1.753263173597     1.007825032230
         H           -0.548091436894    -1.963499093373     3.255593173597     1.007825032230
         C           -0.065421436894    -0.047889093373     4.919483173597    12.000000000000
         H            0.966288563106     0.036320906627     5.254553173597     1.007825032230
         H           -0.487331436894    -0.974529093373     5.300503173597     1.007825032230
         H           -0.614891436894     0.795950906627     5.326253173597     1.007825032230

  Charge       = 0
  Multiplicity = 1
  Basis Set: AUG-CC-PVDZ
    Blend: AUG-CC-PVDZ
  Basis Set: (AUG-CC-PVDZ AUX)
    Blend: AUG-CC-PVDZ-JKFIT

    Orbital Energies [Eh]
    ---------------------

    Doubly Occupied:

       1A    -20.526201     2A    -15.596520     3A    -11.362563
       4A    -11.244926     5A     -1.381367     6A     -1.218018
       7A     -1.007737     8A     -0.803718     9A     -0.730629
      10A     -0.665884    11A     -0.615730    12A     -0.586407
      13A     -0.562887    14A     -0.524332    15A     -0.423526
      16A     -0.414661

  @DF-RHF Final Energy:  -208.01207383372878

   => Energetics <=

    Nuclear Repulsion Energy =            121.8373154344783416
    One-Electron Energy =                -524.3685660530458108
    Two-Electron Energy =                 194.5191767848386917
    Total Energy =                       -208.0120738337287776

  Dipole Moment: [D]
     X:    -0.7728      Y:    -3.9449      Z:     1.5007     Total:     4.2908

    SAPT Results
  --------------------------------------------------------------------------------------------------------
    Electrostatics                 -1.10939769 [mEh]      -0.69615756 [kcal/mol]      -2.91272324 [kJ/mol]
      Elst10,r                     -1.36164070 [mEh]      -0.85444244 [kcal/mol]      -3.57498716 [kJ/mol]
      Elst12,r                      0.25224301 [mEh]       0.15828488 [kcal/mol]       0.66226392 [kJ/mol]

    Exchange                        0.11036132 [mEh]       0.06925278 [kcal/mol]       0.28975361 [kJ/mol]
      Exch10                        0.08609362 [mEh]       0.05402456 [kcal/mol]       0.22603877 [kJ/mol]
      Exch10(S^2)                   0.08608387 [mEh]       0.05401845 [kcal/mol]       0.22601318 [kJ/mol]
      Exch11(S^2)                  -0.00209443 [mEh]      -0.00131428 [kcal/mol]      -0.00549893 [kJ/mol]
      Exch12(S^2)                   0.02636214 [mEh]       0.01654249 [kcal/mol]       0.06921378 [kJ/mol]

    Induction                      -0.16178296 [mEh]      -0.10152034 [kcal/mol]      -0.42476110 [kJ/mol]
      Ind20,r                      -0.19467210 [mEh]      -0.12215859 [kcal/mol]      -0.51111152 [kJ/mol]
      Ind22                         0.02334802 [mEh]       0.01465110 [kcal/mol]       0.06130021 [kJ/mol]
      Exch-Ind20,r                  0.02353996 [mEh]       0.01477155 [kcal/mol]       0.06180416 [kJ/mol]
      Exch-Ind22                   -0.00282327 [mEh]      -0.00177163 [kcal/mol]      -0.00741249 [kJ/mol]
      delta HF,r (2)               -0.01117557 [mEh]      -0.00701278 [kcal/mol]      -0.02934147 [kJ/mol]

    Dispersion                     -0.84182907 [mEh]      -0.52825572 [kcal/mol]      -2.21022193 [kJ/mol]
      Disp20                       -0.85087560 [mEh]      -0.53393250 [kcal/mol]      -2.23397357 [kJ/mol]
      Disp21                        0.18197621 [mEh]       0.11419179 [kcal/mol]       0.47777847 [kJ/mol]
      Disp22 (SDQ)                 -0.00737693 [mEh]      -0.00462909 [kcal/mol]      -0.01936812 [kJ/mol]
      Disp22 (T)                   -0.17382955 [mEh]      -0.10907969 [kcal/mol]      -0.45638943 [kJ/mol]
      Est. Disp22 (T)              -0.18046988 [mEh]      -0.11324656 [kcal/mol]      -0.47382360 [kJ/mol]
      Exch-Disp20                   0.01491712 [mEh]       0.00936063 [kcal/mol]       0.03916489 [kJ/mol]

  Total HF                         -1.45785479 [mEh]      -0.91481769 [kcal/mol]      -3.82759721 [kJ/mol]
  Total SAPT0                      -2.29381326 [mEh]      -1.43938955 [kcal/mol]      -6.02240590 [kJ/mol]
  Total SAPT2                      -1.99677781 [mEh]      -1.25299699 [kcal/mol]      -5.24253941 [kJ/mol]
  Total SAPT2+                     -2.00264840 [mEh]      -1.25668084 [kcal/mol]      -5.25795265 [kJ/mol]

  Special recipe for scaled SAPT0 (see Manual):
    Electrostatics sSAPT0          -1.36164070 [mEh]      -0.85444244 [kcal/mol]      -3.57498716 [kJ/mol]
    Exchange sSAPT0                 0.08609362 [mEh]       0.05402456 [kcal/mol]       0.22603877 [kJ/mol]
    Induction sSAPT0               -0.18229971 [mEh]      -0.11439480 [kcal/mol]      -0.47862783 [kJ/mol]
    Dispersion sSAPT0              -0.83595341 [mEh]      -0.52456869 [kcal/mol]      -2.19479538 [kJ/mol]
  Total sSAPT0                     -2.29380020 [mEh]      -1.43938136 [kcal/mol]      -6.02237160 [kJ/mol]
  --------------------------------------------------------------------------------------------------------

*** Psi4 exiting successfully. Buy a developer a beer!
