                               Psi4 1.4a2.dev224

  ==> Input File <==

--------------------------------------------------------------------------
#Generated by lconvert.py for sapt job

memory 20 GB

molecule  {
0 1
  C       0.855560    0.358530    1.049750
  H       1.513830    0.902680    1.712770
  C       1.342900   -0.675380    0.251160
  H       2.392880   -0.933340    0.281960
  C       0.477810   -1.376700   -0.587820
  H       0.856080   -2.178910   -1.206820
  C      -0.874830   -1.042560   -0.630450
  H      -1.545410   -1.585700   -1.282420
  C      -1.362400   -0.007010    0.165850
  H      -2.411570    0.253470    0.130780
  C      -0.498440    0.693160    1.006990
  H      -0.866110    1.490340    1.638040
--
0 1
  C      -0.299900   -0.712920    6.959080
  O      -0.053410    0.330510    6.371840
  N      -0.603940   -1.867920    6.307920
  H      -0.578740   -1.874940    5.301280
  H      -0.759720   -2.723420    6.803620
  C      -0.277050   -0.807810    8.467500
  H       0.754660   -0.723600    8.802570
  H      -0.698960   -1.734450    8.848530
  H      -0.826520    0.036040    8.874270
units angstrom
no_reorient
symmetry c1
}

set {
scf_type DF
basis aug-cc-pvdz
freeze_core True
guess SAD
}
energy('sapt2+')
--------------------------------------------------------------------------

  //              Dimer HF             //
    Molecular point group: c1
  Charge       = 0
  Multiplicity = 1
  Basis Set: AUG-CC-PVDZ
    Blend: AUG-CC-PVDZ
  Basis Set: (AUG-CC-PVDZ AUX)
    Blend: AUG-CC-PVDZ-JKFIT
  @DF-RHF Final Energy:  -438.74067002669761
    Total Energy =                       -438.7406700266976713
  //            Monomer A HF           //
    Molecular point group: c1
  Multiplicity = 1
  Basis Set: AUG-CC-PVDZ
    Blend: AUG-CC-PVDZ
  Basis Set: (AUG-CC-PVDZ AUX)
    Blend: AUG-CC-PVDZ-JKFIT
  @DF-RHF Final Energy:  -230.72788081896962
    Total Energy =                       -230.7278808189696520
  //            Monomer B HF           //
    Molecular point group: c1

    Geometry (in Angstrom), charge = 0, multiplicity = 1:

       Center              X                  Y                   Z               Mass
    ------------   -----------------  -----------------  -----------------  -----------------
      Gh(C)           0.995139039183     0.890037733364    -2.091744711126    12.000000000000
      Gh(H)           1.653409039183     1.434187733364    -1.428724711126     1.007825032230
      Gh(C)           1.482479039183    -0.143872266636    -2.890334711126    12.000000000000
      Gh(H)           2.532459039183    -0.401832266636    -2.859534711126     1.007825032230
      Gh(C)           0.617389039183    -0.845192266636    -3.729314711126    12.000000000000
      Gh(H)           0.995659039183    -1.647402266636    -4.348314711126     1.007825032230
      Gh(C)          -0.735250960817    -0.511052266636    -3.771944711126    12.000000000000
      Gh(H)          -1.405830960817    -1.054192266636    -4.423914711126     1.007825032230
      Gh(C)          -1.222820960817     0.524497733364    -2.975644711126    12.000000000000
      Gh(H)          -2.271990960817     0.784977733364    -3.010714711126     1.007825032230
      Gh(C)          -0.358860960817     1.224667733364    -2.134504711126    12.000000000000
      Gh(H)          -0.726530960817     2.021847733364    -1.503454711126     1.007825032230
         C           -0.160320960817    -0.181412266636     3.817585288874    12.000000000000
         O            0.086169039183     0.862017733364     3.230345288874    15.994914619570
         N           -0.464360960817    -1.336412266636     3.166425288874    14.003074004430
         H           -0.439160960817    -1.343432266636     2.159785288874     1.007825032230
         H           -0.620140960817    -2.191912266636     3.662125288874     1.007825032230
         C           -0.137470960817    -0.276302266636     5.326005288874    12.000000000000
         H            0.894239039183    -0.192092266636     5.661075288874     1.007825032230
         H           -0.559380960817    -1.202942266636     5.707035288874     1.007825032230
         H           -0.686940960817     0.567547733364     5.732775288874     1.007825032230

  Charge       = 0
  Multiplicity = 1
  Basis Set: AUG-CC-PVDZ
    Blend: AUG-CC-PVDZ
  Basis Set: (AUG-CC-PVDZ AUX)
    Blend: AUG-CC-PVDZ-JKFIT

    Orbital Energies [Eh]
    ---------------------

    Doubly Occupied:

       1A    -20.526188     2A    -15.596531     3A    -11.362564
       4A    -11.244935     5A     -1.381369     6A     -1.218021
       7A     -1.007735     8A     -0.803722     9A     -0.730623
      10A     -0.665884    11A     -0.615729    12A     -0.586405
      13A     -0.562882    14A     -0.524334    15A     -0.423528
      16A     -0.414662

  @DF-RHF Final Energy:  -208.01203692554202

   => Energetics <=

    Nuclear Repulsion Energy =            121.8374798543331110
    One-Electron Energy =                -524.3688093898116449
    Two-Electron Energy =                 194.5192926099365422
    Total Energy =                       -208.0120369255420201

  Dipole Moment: [D]
     X:    -0.7728      Y:    -3.9450      Z:     1.5014     Total:     4.2912

    SAPT Results
  --------------------------------------------------------------------------------------------------------
    Electrostatics                 -0.55364461 [mEh]      -0.34741724 [kcal/mol]      -1.45359373 [kJ/mol]
      Elst10,r                     -0.68166554 [mEh]      -0.42775158 [kcal/mol]      -1.78971263 [kJ/mol]
      Elst12,r                      0.12802093 [mEh]       0.08033434 [kcal/mol]       0.33611890 [kJ/mol]

    Exchange                        0.01055172 [mEh]       0.00662130 [kcal/mol]       0.02770353 [kJ/mol]
      Exch10                        0.00791428 [mEh]       0.00496628 [kcal/mol]       0.02077893 [kJ/mol]
      Exch10(S^2)                   0.00791417 [mEh]       0.00496622 [kcal/mol]       0.02077866 [kJ/mol]
      Exch11(S^2)                  -0.00042272 [mEh]      -0.00026526 [kcal/mol]      -0.00110986 [kJ/mol]
      Exch12(S^2)                   0.00306016 [mEh]       0.00192028 [kcal/mol]       0.00803446 [kJ/mol]

    Induction                      -0.06499905 [mEh]      -0.04078752 [kcal/mol]      -0.17065498 [kJ/mol]
      Ind20,r                      -0.07848900 [mEh]      -0.04925259 [kcal/mol]      -0.20607283 [kJ/mol]
      Ind22                         0.01387364 [mEh]       0.00870584 [kcal/mol]       0.03642524 [kJ/mol]
      Exch-Ind20,r                  0.00193351 [mEh]       0.00121330 [kcal/mol]       0.00507643 [kJ/mol]
      Exch-Ind22                   -0.00034177 [mEh]      -0.00021446 [kcal/mol]      -0.00089731 [kJ/mol]
      delta HF,r (2)               -0.00197544 [mEh]      -0.00123961 [kcal/mol]      -0.00518651 [kJ/mol]

    Dispersion                     -0.35492574 [mEh]      -0.22271926 [kcal/mol]      -0.93185740 [kJ/mol]
      Disp20                       -0.36113635 [mEh]      -0.22661648 [kcal/mol]      -0.94816337 [kJ/mol]
      Disp21                        0.08678548 [mEh]       0.05445871 [kcal/mol]       0.22785525 [kJ/mol]
      Disp22 (SDQ)                 -0.00428040 [mEh]      -0.00268599 [kcal/mol]      -0.01123819 [kJ/mol]
      Disp22 (T)                   -0.07640586 [mEh]      -0.04794540 [kcal/mol]      -0.20060356 [kJ/mol]
      Est. Disp22 (T)              -0.07796069 [mEh]      -0.04892107 [kcal/mol]      -0.20468576 [kJ/mol]
      Exch-Disp20                   0.00166622 [mEh]       0.00104557 [kcal/mol]       0.00437467 [kJ/mol]

  Total HF                         -0.75228219 [mEh]      -0.47206420 [kcal/mol]      -1.97511661 [kJ/mol]
  Total SAPT0                      -1.11175232 [mEh]      -0.69763511 [kcal/mol]      -2.91890531 [kJ/mol]
  Total SAPT2                      -0.96756207 [mEh]      -0.60715437 [kcal/mol]      -2.54033387 [kJ/mol]
  Total SAPT2+                     -0.96301768 [mEh]      -0.60430272 [kcal/mol]      -2.52840257 [kJ/mol]

  Special recipe for scaled SAPT0 (see Manual):
    Electrostatics sSAPT0          -0.68166554 [mEh]      -0.42775158 [kcal/mol]      -1.78971263 [kJ/mol]
    Exchange sSAPT0                 0.00791428 [mEh]       0.00496628 [kcal/mol]       0.02077893 [kJ/mol]
    Induction sSAPT0               -0.07853092 [mEh]      -0.04927890 [kcal/mol]      -0.20618291 [kJ/mol]
    Dispersion sSAPT0              -0.35947013 [mEh]      -0.22557091 [kcal/mol]      -0.94378870 [kJ/mol]
  Total sSAPT0                     -1.11175232 [mEh]      -0.69763511 [kcal/mol]      -2.91890531 [kJ/mol]
  --------------------------------------------------------------------------------------------------------

*** Psi4 exiting successfully. Buy a developer a beer!
