                               Psi4 1.4a2.dev224

  ==> Input File <==

--------------------------------------------------------------------------
#Generated by lconvert.py for sapt job

memory 20 GB

molecule  {
0 1
  C       0.780150   -0.609910   -1.207560
  H       0.896190   -1.137640   -2.144140
  C       0.477940    0.750990   -1.207890
  H       0.356960    1.278170   -2.144050
  C       0.327290    1.431870   -0.000000
  H       0.091470    2.487140    0.000000
  C       0.477940    0.750990    1.207890
  H       0.356960    1.278170    2.144050
  C       0.780150   -0.609910    1.207560
  H       0.896190   -1.137640    2.144140
  C       0.931650   -1.289980    0.000000
  H       1.168490   -2.345210   -0.000000
--
0 1
  O      -4.618430   -0.479680    0.000000
  H      -4.453630   -1.424400    0.000000
  H      -3.731130   -0.108090    0.000000
units angstrom
no_reorient
symmetry c1
}

set {
scf_type DF
basis aug-cc-pvdz
freeze_core True
guess SAD
}
energy('sapt2+')
--------------------------------------------------------------------------

  //              Dimer HF             //
    Molecular point group: c1
  Charge       = 0
  Multiplicity = 1
  Basis Set: AUG-CC-PVDZ
    Blend: AUG-CC-PVDZ
  Basis Set: (AUG-CC-PVDZ AUX)
    Blend: AUG-CC-PVDZ-JKFIT
  @DF-RHF Final Energy:  -306.77025441939253
    Total Energy =                       -306.7702544193925291
  //            Monomer A HF           //
    Molecular point group: c1
  Multiplicity = 1
  Basis Set: AUG-CC-PVDZ
    Blend: AUG-CC-PVDZ
  Basis Set: (AUG-CC-PVDZ AUX)
    Blend: AUG-CC-PVDZ-JKFIT
  @DF-RHF Final Energy:  -230.72796077664080
    Total Energy =                       -230.7279607766407707
  //            Monomer B HF           //
    Molecular point group: c1

    Geometry (in Angstrom), charge = 0, multiplicity = 1:

       Center              X                  Y                   Z               Mass
    ------------   -----------------  -----------------  -----------------  -----------------
      Gh(C)           1.123933913976    -0.571370355052    -1.207560000000    12.000000000000
      Gh(H)           1.239973913976    -1.099100355052    -2.144140000000     1.007825032230
      Gh(C)           0.821723913976     0.789529644948    -1.207890000000    12.000000000000
      Gh(H)           0.700743913976     1.316709644948    -2.144050000000     1.007825032230
      Gh(C)           0.671073913976     1.470409644948     0.000000000000    12.000000000000
      Gh(H)           0.435253913976     2.525679644948     0.000000000000     1.007825032230
      Gh(C)           0.821723913976     0.789529644948     1.207890000000    12.000000000000
      Gh(H)           0.700743913976     1.316709644948     2.144050000000     1.007825032230
      Gh(C)           1.123933913976    -0.571370355052     1.207560000000    12.000000000000
      Gh(H)           1.239973913976    -1.099100355052     2.144140000000     1.007825032230
      Gh(C)           1.275433913976    -1.251440355052     0.000000000000    12.000000000000
      Gh(H)           1.512273913976    -2.306670355052     0.000000000000     1.007825032230
         O           -4.274646086024    -0.441140355052     0.000000000000    15.994914619570
         H           -4.109846086024    -1.385860355052     0.000000000000     1.007825032230
         H           -3.387346086024    -0.069550355052     0.000000000000     1.007825032230

  Charge       = 0
  Multiplicity = 1
  Basis Set: AUG-CC-PVDZ
    Blend: AUG-CC-PVDZ
  Basis Set: (AUG-CC-PVDZ AUX)
    Blend: AUG-CC-PVDZ-JKFIT

    Orbital Energies [Eh]
    ---------------------

    Doubly Occupied:

       1A    -20.578568     2A     -1.356230     3A     -0.714206
       4A     -0.588355     5A     -0.509662

  @DF-RHF Final Energy:   -76.04109190124582

   => Energetics <=

    Nuclear Repulsion Energy =              9.1676829088237657
    One-Electron Energy =                -122.9235054478602933
    Two-Electron Energy =                  37.7147306377907086
    Total Energy =                        -76.0410919012458208

  Dipole Moment: [D]
     X:     1.7832      Y:    -0.9728      Z:     0.0000     Total:     2.0313

    SAPT Results
  --------------------------------------------------------------------------------------------------------
    Electrostatics                 -0.91571427 [mEh]      -0.57461938 [kcal/mol]      -2.40420748 [kJ/mol]
      Elst10,r                     -1.14443526 [mEh]      -0.71814397 [kcal/mol]      -3.00471435 [kJ/mol]
      Elst12,r                      0.22872099 [mEh]       0.14352459 [kcal/mol]       0.60050687 [kJ/mol]

    Exchange                        0.01537244 [mEh]       0.00964635 [kcal/mol]       0.04036035 [kJ/mol]
      Exch10                        0.01194116 [mEh]       0.00749319 [kcal/mol]       0.03135151 [kJ/mol]
      Exch10(S^2)                   0.01194110 [mEh]       0.00749315 [kcal/mol]       0.03135135 [kJ/mol]
      Exch11(S^2)                   0.00037184 [mEh]       0.00023333 [kcal/mol]       0.00097627 [kJ/mol]
      Exch12(S^2)                   0.00305944 [mEh]       0.00191983 [kcal/mol]       0.00803256 [kJ/mol]

    Induction                      -0.06182073 [mEh]      -0.03879309 [kcal/mol]      -0.16231030 [kJ/mol]
      Ind20,r                      -0.06675608 [mEh]      -0.04189007 [kcal/mol]      -0.17526806 [kJ/mol]
      Ind22                         0.00767426 [mEh]       0.00481567 [kcal/mol]       0.02014877 [kJ/mol]
      Exch-Ind20,r                  0.00215360 [mEh]       0.00135140 [kcal/mol]       0.00565427 [kJ/mol]
      Exch-Ind22                   -0.00024758 [mEh]      -0.00015536 [kcal/mol]      -0.00065001 [kJ/mol]
      delta HF,r (2)               -0.00464493 [mEh]      -0.00291474 [kcal/mol]      -0.01219526 [kJ/mol]

    Dispersion                     -0.33072685 [mEh]      -0.20753423 [kcal/mol]      -0.86832323 [kJ/mol]
      Disp20                       -0.33462712 [mEh]      -0.20998169 [kcal/mol]      -0.87856339 [kJ/mol]
      Disp21                        0.07149067 [mEh]       0.04486108 [kcal/mol]       0.18769874 [kJ/mol]
      Disp22 (SDQ)                 -0.00369989 [mEh]      -0.00232171 [kcal/mol]      -0.00971405 [kJ/mol]
      Disp22 (T)                   -0.06402962 [mEh]      -0.04017919 [kcal/mol]      -0.16810975 [kJ/mol]
      Est. Disp22 (T)              -0.06592611 [mEh]      -0.04136926 [kcal/mol]      -0.17308898 [kJ/mol]
      Exch-Disp20                   0.00203559 [mEh]       0.00127735 [kcal/mol]       0.00534445 [kJ/mol]

  Total HF                         -1.20174151 [mEh]      -0.75410418 [kcal/mol]      -3.15517189 [kJ/mol]
  Total SAPT0                      -1.53433304 [mEh]      -0.96280852 [kcal/mol]      -4.02839083 [kJ/mol]
  Total SAPT2                      -1.29475408 [mEh]      -0.81247045 [kcal/mol]      -3.39937638 [kJ/mol]
  Total SAPT2+                     -1.29288940 [mEh]      -0.81130035 [kcal/mol]      -3.39448066 [kJ/mol]

  Special recipe for scaled SAPT0 (see Manual):
    Electrostatics sSAPT0          -1.14443526 [mEh]      -0.71814397 [kcal/mol]      -3.00471435 [kJ/mol]
    Exchange sSAPT0                 0.01194116 [mEh]       0.00749319 [kcal/mol]       0.03135151 [kJ/mol]
    Induction sSAPT0               -0.06924738 [mEh]      -0.04345339 [kcal/mol]      -0.18180896 [kJ/mol]
    Dispersion sSAPT0              -0.33259150 [mEh]      -0.20870432 [kcal/mol]      -0.87321886 [kJ/mol]
  Total sSAPT0                     -1.53433297 [mEh]      -0.96280848 [kcal/mol]      -4.02839066 [kJ/mol]
  --------------------------------------------------------------------------------------------------------

*** Psi4 exiting successfully. Buy a developer a beer!
