                               Psi4 1.4a2.dev224

  ==> Input File <==

--------------------------------------------------------------------------
#Generated by lconvert.py for sapt job

memory 20 GB

molecule  {
0 1
  C       0.780150   -0.609910   -1.207560
  H       0.896190   -1.137640   -2.144140
  C       0.477940    0.750990   -1.207890
  H       0.356960    1.278170   -2.144050
  C       0.327290    1.431870   -0.000000
  H       0.091470    2.487140    0.000000
  C       0.477940    0.750990    1.207890
  H       0.356960    1.278170    2.144050
  C       0.780150   -0.609910    1.207560
  H       0.896190   -1.137640    2.144140
  C       0.931650   -1.289980    0.000000
  H       1.168490   -2.345210   -0.000000
--
0 1
  O      -3.687900   -0.375230    0.000000
  H      -3.523100   -1.319950    0.000000
  H      -2.800600   -0.003640    0.000000
units angstrom
no_reorient
symmetry c1
}

set {
scf_type DF
basis aug-cc-pvdz
freeze_core True
guess SAD
}
energy('sapt2+')
--------------------------------------------------------------------------

  //              Dimer HF             //
    Molecular point group: c1
  Charge       = 0
  Multiplicity = 1
  Basis Set: AUG-CC-PVDZ
    Blend: AUG-CC-PVDZ
  Basis Set: (AUG-CC-PVDZ AUX)
    Blend: AUG-CC-PVDZ-JKFIT
  @DF-RHF Final Energy:  -306.77134851467480
    Total Energy =                       -306.7713485146747985
  //            Monomer A HF           //
    Molecular point group: c1
  Multiplicity = 1
  Basis Set: AUG-CC-PVDZ
    Blend: AUG-CC-PVDZ
  Basis Set: (AUG-CC-PVDZ AUX)
    Blend: AUG-CC-PVDZ-JKFIT
  @DF-RHF Final Energy:  -230.72804247679517
    Total Energy =                       -230.7280424767951672
  //            Monomer B HF           //
    Molecular point group: c1

    Geometry (in Angstrom), charge = 0, multiplicity = 1:

       Center              X                  Y                   Z               Mass
    ------------   -----------------  -----------------  -----------------  -----------------
      Gh(C)           0.949461663920    -0.590954491531    -1.207560000000    12.000000000000
      Gh(H)           1.065501663920    -1.118684491531    -2.144140000000     1.007825032230
      Gh(C)           0.647251663920     0.769945508469    -1.207890000000    12.000000000000
      Gh(H)           0.526271663920     1.297125508469    -2.144050000000     1.007825032230
      Gh(C)           0.496601663920     1.450825508469     0.000000000000    12.000000000000
      Gh(H)           0.260781663920     2.506095508469     0.000000000000     1.007825032230
      Gh(C)           0.647251663920     0.769945508469     1.207890000000    12.000000000000
      Gh(H)           0.526271663920     1.297125508469     2.144050000000     1.007825032230
      Gh(C)           0.949461663920    -0.590954491531     1.207560000000    12.000000000000
      Gh(H)           1.065501663920    -1.118684491531     2.144140000000     1.007825032230
      Gh(C)           1.100961663920    -1.271024491531     0.000000000000    12.000000000000
      Gh(H)           1.337801663920    -2.326254491531     0.000000000000     1.007825032230
         O           -3.518588336080    -0.356274491531     0.000000000000    15.994914619570
         H           -3.353788336080    -1.300994491531     0.000000000000     1.007825032230
         H           -2.631288336080     0.015315508469     0.000000000000     1.007825032230

  Charge       = 0
  Multiplicity = 1
  Basis Set: AUG-CC-PVDZ
    Blend: AUG-CC-PVDZ
  Basis Set: (AUG-CC-PVDZ AUX)
    Blend: AUG-CC-PVDZ-JKFIT

    Orbital Energies [Eh]
    ---------------------

    Doubly Occupied:

       1A    -20.578564     2A     -1.356205     3A     -0.714182
       4A     -0.588328     5A     -0.509633

  @DF-RHF Final Energy:   -76.04112420166598

   => Energetics <=

    Nuclear Repulsion Energy =              9.1676829088237657
    One-Electron Energy =                -122.9237875552763910
    Two-Electron Energy =                  37.7149804447866543
    Total Energy =                        -76.0411242016659799

  Dipole Moment: [D]
     X:     1.7814      Y:    -0.9719      Z:    -0.0000     Total:     2.0293

    SAPT Results
  --------------------------------------------------------------------------------------------------------
    Electrostatics                 -1.77145829 [mEh]      -1.11160686 [kcal/mol]      -4.65096310 [kJ/mol]
      Elst10,r                     -2.17756469 [mEh]      -1.36644247 [kcal/mol]      -5.71719531 [kJ/mol]
      Elst12,r                      0.40610640 [mEh]       0.25483562 [kcal/mol]       1.06623221 [kJ/mol]

    Exchange                        0.32235321 [mEh]       0.20227969 [kcal/mol]       0.84633823 [kJ/mol]
      Exch10                        0.26528617 [mEh]       0.16646959 [kcal/mol]       0.69650875 [kJ/mol]
      Exch10(S^2)                   0.26525277 [mEh]       0.16644863 [kcal/mol]       0.69642106 [kJ/mol]
      Exch11(S^2)                   0.00919591 [mEh]       0.00577052 [kcal/mol]       0.02414387 [kJ/mol]
      Exch12(S^2)                   0.04787112 [mEh]       0.03003958 [kcal/mol]       0.12568561 [kJ/mol]

    Induction                      -0.25786765 [mEh]      -0.16181440 [kcal/mol]      -0.67703143 [kJ/mol]
      Ind20,r                      -0.27311032 [mEh]      -0.17137931 [kcal/mol]      -0.71705104 [kJ/mol]
      Ind22                         0.01403101 [mEh]       0.00880459 [kcal/mol]       0.03683841 [kJ/mol]
      Exch-Ind20,r                  0.04556643 [mEh]       0.02859337 [kcal/mol]       0.11963465 [kJ/mol]
      Exch-Ind22                   -0.00234097 [mEh]      -0.00146898 [kcal/mol]      -0.00614621 [kJ/mol]
      delta HF,r (2)               -0.04201380 [mEh]      -0.02636406 [kcal/mol]      -0.11030723 [kJ/mol]

    Dispersion                     -1.13265745 [mEh]      -0.71075328 [kcal/mol]      -2.97379174 [kJ/mol]
      Disp20                       -1.14861554 [mEh]      -0.72076713 [kcal/mol]      -3.01568968 [kJ/mol]
      Disp21                        0.21755313 [mEh]       0.13651665 [kcal/mol]       0.57118567 [kJ/mol]
      Disp22 (SDQ)                 -0.01186275 [mEh]      -0.00744399 [kcal/mol]      -0.03114565 [kJ/mol]
      Disp22 (T)                   -0.21327199 [mEh]      -0.13383019 [kcal/mol]      -0.55994553 [kJ/mol]
      Est. Disp22 (T)              -0.22440596 [mEh]      -0.14081687 [kcal/mol]      -0.58917778 [kJ/mol]
      Exch-Disp20                   0.03467367 [mEh]       0.02175806 [kcal/mol]       0.09103570 [kJ/mol]

  Total HF                         -2.18183621 [mEh]      -1.36912289 [kcal/mol]      -5.72841019 [kJ/mol]
  Total SAPT0                      -3.29577809 [mEh]      -2.06813197 [kcal/mol]      -8.65306417 [kJ/mol]
  Total SAPT2                      -2.82091461 [mEh]      -1.77015064 [kcal/mol]      -7.40631029 [kJ/mol]
  Total SAPT2+                     -2.83963019 [mEh]      -1.78189485 [kcal/mol]      -7.45544804 [kJ/mol]

  Special recipe for scaled SAPT0 (see Manual):
    Electrostatics sSAPT0          -2.17756469 [mEh]      -1.36644247 [kcal/mol]      -5.71719531 [kJ/mol]
    Exchange sSAPT0                 0.26528617 [mEh]       0.16646959 [kcal/mol]       0.69650875 [kJ/mol]
    Induction sSAPT0               -0.26954048 [mEh]      -0.16913920 [kcal/mol]      -0.70767843 [kJ/mol]
    Dispersion sSAPT0              -1.11392877 [mEh]      -0.69900086 [kcal/mol]      -2.92461959 [kJ/mol]
  Total sSAPT0                     -3.29574777 [mEh]      -2.06811295 [kcal/mol]      -8.65298459 [kJ/mol]
  --------------------------------------------------------------------------------------------------------

*** Psi4 exiting successfully. Buy a developer a beer!
