                               Psi4 1.4a2.dev224

  ==> Input File <==

--------------------------------------------------------------------------
#Generated by lconvert.py for sapt job

memory 20 GB

molecule  {
0 1
  C       0.780150   -0.609910   -1.207560
  H       0.896190   -1.137640   -2.144140
  C       0.477940    0.750990   -1.207890
  H       0.356960    1.278170   -2.144050
  C       0.327290    1.431870   -0.000000
  H       0.091470    2.487140    0.000000
  C       0.477940    0.750990    1.207890
  H       0.356960    1.278170    2.144050
  C       0.780150   -0.609910    1.207560
  H       0.896190   -1.137640    2.144140
  C       0.931650   -1.289980    0.000000
  H       1.168490   -2.345210   -0.000000
--
0 1
  O      -5.548970   -0.584130    0.000000
  H      -5.384160   -1.528850    0.000000
  H      -4.661670   -0.212540    0.000000
units angstrom
no_reorient
symmetry c1
}

set {
scf_type DF
basis aug-cc-pvdz
freeze_core True
guess SAD
}
energy('sapt2+')
--------------------------------------------------------------------------

  //              Dimer HF             //
    Molecular point group: c1
  Charge       = 0
  Multiplicity = 1
  Basis Set: AUG-CC-PVDZ
    Blend: AUG-CC-PVDZ
  Basis Set: (AUG-CC-PVDZ AUX)
    Blend: AUG-CC-PVDZ-JKFIT
  @DF-RHF Final Energy:  -306.76962749667877
    Total Energy =                       -306.7696274966787655
  //            Monomer A HF           //
    Molecular point group: c1
  Multiplicity = 1
  Basis Set: AUG-CC-PVDZ
    Blend: AUG-CC-PVDZ
  Basis Set: (AUG-CC-PVDZ AUX)
    Blend: AUG-CC-PVDZ-JKFIT
  @DF-RHF Final Energy:  -230.72788866012212
    Total Energy =                       -230.7278886601221188
  //            Monomer B HF           //
    Molecular point group: c1

    Geometry (in Angstrom), charge = 0, multiplicity = 1:

       Center              X                  Y                   Z               Mass
    ------------   -----------------  -----------------  -----------------  -----------------
      Gh(C)           1.298407934090    -0.551786218572    -1.207560000000    12.000000000000
      Gh(H)           1.414447934090    -1.079516218572    -2.144140000000     1.007825032230
      Gh(C)           0.996197934090     0.809113781428    -1.207890000000    12.000000000000
      Gh(H)           0.875217934090     1.336293781428    -2.144050000000     1.007825032230
      Gh(C)           0.845547934090     1.489993781428     0.000000000000    12.000000000000
      Gh(H)           0.609727934090     2.545263781428     0.000000000000     1.007825032230
      Gh(C)           0.996197934090     0.809113781428     1.207890000000    12.000000000000
      Gh(H)           0.875217934090     1.336293781428     2.144050000000     1.007825032230
      Gh(C)           1.298407934090    -0.551786218572     1.207560000000    12.000000000000
      Gh(H)           1.414447934090    -1.079516218572     2.144140000000     1.007825032230
      Gh(C)           1.449907934090    -1.231856218572     0.000000000000    12.000000000000
      Gh(H)           1.686747934090    -2.287086218572     0.000000000000     1.007825032230
         O           -5.030712065910    -0.526006218572     0.000000000000    15.994914619570
         H           -4.865902065910    -1.470726218572     0.000000000000     1.007825032230
         H           -4.143412065910    -0.154416218572     0.000000000000     1.007825032230

  Charge       = 0
  Multiplicity = 1
  Basis Set: AUG-CC-PVDZ
    Blend: AUG-CC-PVDZ
  Basis Set: (AUG-CC-PVDZ AUX)
    Blend: AUG-CC-PVDZ-JKFIT

    Orbital Energies [Eh]
    ---------------------

    Doubly Occupied:

       1A    -20.578558     2A     -1.356212     3A     -0.714198
       4A     -0.588359     5A     -0.509659

  @DF-RHF Final Energy:   -76.04107067538305

   => Energetics <=

    Nuclear Repulsion Energy =              9.1676761272815579
    One-Electron Energy =                -122.9235218409667425
    Two-Electron Energy =                  37.7147750383021290
    Total Energy =                        -76.0410706753830539

  Dipole Moment: [D]
     X:     1.7824      Y:    -0.9725      Z:    -0.0000     Total:     2.0304

    SAPT Results
  --------------------------------------------------------------------------------------------------------
    Electrostatics                 -0.51664638 [mEh]      -0.32420050 [kcal/mol]      -1.35645488 [kJ/mol]
      Elst10,r                     -0.64584760 [mEh]      -0.40527549 [kcal/mol]      -1.69567265 [kJ/mol]
      Elst12,r                      0.12920122 [mEh]       0.08107499 [kcal/mol]       0.33921777 [kJ/mol]

    Exchange                        0.00069600 [mEh]       0.00043675 [kcal/mol]       0.00182734 [kJ/mol]
      Exch10                        0.00055970 [mEh]       0.00035122 [kcal/mol]       0.00146949 [kJ/mol]
      Exch10(S^2)                   0.00055970 [mEh]       0.00035122 [kcal/mol]       0.00146949 [kJ/mol]
      Exch11(S^2)                   0.00001023 [mEh]       0.00000642 [kcal/mol]       0.00002687 [kJ/mol]
      Exch12(S^2)                   0.00012606 [mEh]       0.00007911 [kcal/mol]       0.00033098 [kJ/mol]

    Induction                      -0.01980399 [mEh]      -0.01242719 [kcal/mol]      -0.05199536 [kJ/mol]
      Ind20,r                      -0.02288412 [mEh]      -0.01436000 [kcal/mol]      -0.06008225 [kJ/mol]
      Ind22                         0.00308356 [mEh]       0.00193496 [kcal/mol]       0.00809588 [kJ/mol]
      Exch-Ind20,r                  0.00010594 [mEh]       0.00006648 [kcal/mol]       0.00027815 [kJ/mol]
      Exch-Ind22                   -0.00001428 [mEh]      -0.00000896 [kcal/mol]      -0.00003748 [kJ/mol]
      delta HF,r (2)               -0.00009509 [mEh]      -0.00005967 [kcal/mol]      -0.00024966 [kJ/mol]

    Dispersion                     -0.11786287 [mEh]      -0.07396007 [kcal/mol]      -0.30944892 [kJ/mol]
      Disp20                       -0.12050512 [mEh]      -0.07561811 [kcal/mol]      -0.31638615 [kJ/mol]
      Disp21                        0.02767807 [mEh]       0.01736825 [kcal/mol]       0.07266876 [kJ/mol]
      Disp22 (SDQ)                 -0.00144144 [mEh]      -0.00090452 [kcal/mol]      -0.00378451 [kJ/mol]
      Disp22 (T)                   -0.02331123 [mEh]      -0.01462802 [kcal/mol]      -0.06120362 [kJ/mol]
      Est. Disp22 (T)              -0.02370681 [mEh]      -0.01487625 [kcal/mol]      -0.06224222 [kJ/mol]
      Exch-Disp20                   0.00011244 [mEh]       0.00007056 [kcal/mol]       0.00029521 [kJ/mol]

  Total HF                         -0.66816117 [mEh]      -0.41927747 [kcal/mol]      -1.75425692 [kJ/mol]
  Total SAPT0                      -0.78855386 [mEh]      -0.49482502 [kcal/mol]      -2.07034786 [kJ/mol]
  Total SAPT2                      -0.65614705 [mEh]      -0.41173849 [kcal/mol]      -1.72271385 [kJ/mol]
  Total SAPT2+                     -0.65361724 [mEh]      -0.41015101 [kcal/mol]      -1.71607182 [kJ/mol]

  Special recipe for scaled SAPT0 (see Manual):
    Electrostatics sSAPT0          -0.64584760 [mEh]      -0.40527549 [kcal/mol]      -1.69567265 [kJ/mol]
    Exchange sSAPT0                 0.00055970 [mEh]       0.00035122 [kcal/mol]       0.00146949 [kJ/mol]
    Induction sSAPT0               -0.02287327 [mEh]      -0.01435319 [kcal/mol]      -0.06005376 [kJ/mol]
    Dispersion sSAPT0              -0.12039268 [mEh]      -0.07554755 [kcal/mol]      -0.31609095 [kJ/mol]
  Total sSAPT0                     -0.78855386 [mEh]      -0.49482502 [kcal/mol]      -2.07034786 [kJ/mol]
  --------------------------------------------------------------------------------------------------------

*** Psi4 exiting successfully. Buy a developer a beer!
