                               Psi4 1.4a2.dev224

  ==> Input File <==

--------------------------------------------------------------------------
#Generated by lconvert.py for sapt job

memory 20 GB

molecule  {
0 1
  C       0.759750    1.031270    0.373770
  H       1.435020    1.875660    0.374710
  C       1.266620   -0.267360    0.421270
  H       2.334920   -0.429180    0.459430
  C       0.395320   -1.355990    0.424900
  H       0.788660   -2.362490    0.463030
  C      -0.982210   -1.146650    0.381270
  H      -1.657660   -1.991140    0.385120
  C      -1.489350    0.151150    0.337570
  H      -2.557950    0.313750    0.307720
  C      -0.618770    1.240330    0.333880
  H      -1.011760    2.247110    0.304370
--
0 1
  O      -0.020250    0.268660    4.500370
  H       0.065850    0.318540    3.543180
  C      -0.916400   -0.788950    4.783430
  H      -1.012120   -0.845680    5.864360
  H      -1.908550   -0.617250    4.359630
  H      -0.549940   -1.751990    4.420510
units angstrom
no_reorient
symmetry c1
}

set {
scf_type DF
basis aug-cc-pvdz
freeze_core True
guess SAD
}
energy('sapt2+')
--------------------------------------------------------------------------

  //              Dimer HF             //
    Molecular point group: c1
  Charge       = 0
  Multiplicity = 1
  Basis Set: AUG-CC-PVDZ
    Blend: AUG-CC-PVDZ
  Basis Set: (AUG-CC-PVDZ AUX)
    Blend: AUG-CC-PVDZ-JKFIT
  @DF-RHF Final Energy:  -345.79192839231553
    Total Energy =                       -345.7919283923155263
  //            Monomer A HF           //
    Molecular point group: c1
  Multiplicity = 1
  Basis Set: AUG-CC-PVDZ
    Blend: AUG-CC-PVDZ
  Basis Set: (AUG-CC-PVDZ AUX)
    Blend: AUG-CC-PVDZ-JKFIT
  @DF-RHF Final Energy:  -230.72825086052015
    Total Energy =                       -230.7282508605201201
  //            Monomer B HF           //
    Molecular point group: c1

    Geometry (in Angstrom), charge = 0, multiplicity = 1:

       Center              X                  Y                   Z               Mass
    ------------   -----------------  -----------------  -----------------  -----------------
      Gh(C)           0.972788141830     1.145787014590    -1.236962704740    12.000000000000
      Gh(H)           1.648058141830     1.990177014590    -1.236022704740     1.007825032230
      Gh(C)           1.479658141830    -0.152842985410    -1.189462704740    12.000000000000
      Gh(H)           2.547958141830    -0.314662985410    -1.151302704740     1.007825032230
      Gh(C)           0.608358141830    -1.241472985410    -1.185832704740    12.000000000000
      Gh(H)           1.001698141830    -2.247972985410    -1.147702704740     1.007825032230
      Gh(C)          -0.769171858170    -1.032132985410    -1.229462704740    12.000000000000
      Gh(H)          -1.444621858170    -1.876622985410    -1.225612704740     1.007825032230
      Gh(C)          -1.276311858170     0.265667014590    -1.273162704740    12.000000000000
      Gh(H)          -2.344911858170     0.428267014590    -1.303012704740     1.007825032230
      Gh(C)          -0.405731858170     1.354847014590    -1.276852704740    12.000000000000
      Gh(H)          -0.798721858170     2.361627014590    -1.306362704740     1.007825032230
         O            0.192788141830     0.383177014590     2.889637295260    15.994914619570
         H            0.278888141830     0.433057014590     1.932447295260     1.007825032230
         C           -0.703361858170    -0.674432985410     3.172697295260    12.000000000000
         H           -0.799081858170    -0.731162985410     4.253627295260     1.007825032230
         H           -1.695511858170    -0.502732985410     2.748897295260     1.007825032230
         H           -0.336901858170    -1.637472985410     2.809777295260     1.007825032230

  Charge       = 0
  Multiplicity = 1
  Basis Set: AUG-CC-PVDZ
    Blend: AUG-CC-PVDZ
  Basis Set: (AUG-CC-PVDZ AUX)
    Blend: AUG-CC-PVDZ-JKFIT

    Orbital Energies [Eh]
    ---------------------

    Doubly Occupied:

       1A    -20.569705     2A    -11.278260     3A     -1.363728
       4A     -0.927001     5A     -0.693587     6A     -0.620287
       7A     -0.595068     8A     -0.504896     9A     -0.450113

  @DF-RHF Final Energy:  -115.06149098380075

   => Energetics <=

    Nuclear Repulsion Energy =             40.4152797526102106
    One-Electron Energy =                -236.9482501116544313
    Two-Electron Energy =                  81.4714793752434616
    Total Energy =                       -115.0614909838007520

  Dipole Moment: [D]
     X:    -0.8362      Y:    -1.0689      Z:    -1.2065     Total:     1.8159

    SAPT Results
  --------------------------------------------------------------------------------------------------------
    Electrostatics                 -1.99418934 [mEh]      -1.25137270 [kcal/mol]      -5.23574339 [kJ/mol]
      Elst10,r                     -2.36774942 [mEh]      -1.48578519 [kcal/mol]      -6.21652523 [kJ/mol]
      Elst12,r                      0.37356008 [mEh]       0.23441249 [kcal/mol]       0.98078184 [kJ/mol]

    Exchange                        0.64841499 [mEh]       0.40688655 [kcal/mol]       1.70241333 [kJ/mol]
      Exch10                        0.55349465 [mEh]       0.34732314 [kcal/mol]       1.45320001 [kJ/mol]
      Exch10(S^2)                   0.55343381 [mEh]       0.34728496 [kcal/mol]       1.45304026 [kJ/mol]
      Exch11(S^2)                   0.01325735 [mEh]       0.00831911 [kcal/mol]       0.03480717 [kJ/mol]
      Exch12(S^2)                   0.08166299 [mEh]       0.05124430 [kcal/mol]       0.21440615 [kJ/mol]

    Induction                      -0.37014961 [mEh]      -0.23227239 [kcal/mol]      -0.97182768 [kJ/mol]
      Ind20,r                      -0.39083491 [mEh]      -0.24525261 [kcal/mol]      -1.02613693 [kJ/mol]
      Ind22                         0.00286727 [mEh]       0.00179924 [kcal/mol]       0.00752801 [kJ/mol]
      Exch-Ind20,r                  0.09864018 [mEh]       0.06189765 [kcal/mol]       0.25897976 [kJ/mol]
      Exch-Ind22                   -0.00072365 [mEh]      -0.00045410 [kcal/mol]      -0.00189994 [kJ/mol]
      delta HF,r (2)               -0.08009850 [mEh]      -0.05026257 [kcal/mol]      -0.21029858 [kJ/mol]

    Dispersion                     -2.22724661 [mEh]      -1.39761835 [kcal/mol]      -5.84763516 [kJ/mol]
      Disp20                       -2.34865404 [mEh]      -1.47380266 [kcal/mol]      -6.16639034 [kJ/mol]
      Disp21                        0.45066539 [mEh]       0.28279680 [kcal/mol]       1.18322182 [kJ/mol]
      Disp22 (SDQ)                  0.02759648 [mEh]       0.01731705 [kcal/mol]       0.07245454 [kJ/mol]
      Disp22 (T)                   -0.41600351 [mEh]      -0.26104615 [kcal/mol]      -1.09221707 [kJ/mol]
      Est. Disp22 (T)              -0.43799567 [mEh]      -0.27484643 [kcal/mol]      -1.14995747 [kJ/mol]
      Exch-Disp20                   0.08114123 [mEh]       0.05091689 [kcal/mol]       0.21303628 [kJ/mol]

  Total HF                         -2.18654799 [mEh]      -1.37207958 [kcal/mol]      -5.74078097 [kJ/mol]
  Total SAPT0                      -4.45406080 [mEh]      -2.79496535 [kcal/mol]     -11.69413503 [kJ/mol]
  Total SAPT2                      -3.98343677 [mEh]      -2.49964431 [kcal/mol]     -10.45851179 [kJ/mol]
  Total SAPT2+                     -3.94317057 [mEh]      -2.47437689 [kcal/mol]     -10.35279289 [kJ/mol]

  Special recipe for scaled SAPT0 (see Manual):
    Electrostatics sSAPT0          -2.36774942 [mEh]      -1.48578519 [kcal/mol]      -6.21652523 [kJ/mol]
    Exchange sSAPT0                 0.55349465 [mEh]       0.34732314 [kcal/mol]       1.45320001 [kJ/mol]
    Induction sSAPT0               -0.37226069 [mEh]      -0.23359711 [kcal/mol]      -0.97737032 [kJ/mol]
    Dispersion sSAPT0              -2.26748604 [mEh]      -1.42286897 [kcal/mol]      -5.95328378 [kJ/mol]
  Total sSAPT0                     -4.45400150 [mEh]      -2.79492814 [kcal/mol]     -11.69397932 [kJ/mol]
  --------------------------------------------------------------------------------------------------------

*** Psi4 exiting successfully. Buy a developer a beer!
