                               Psi4 1.4a2.dev224

  ==> Input File <==

--------------------------------------------------------------------------
#Generated by lconvert.py for sapt job

memory 20 GB

molecule  {
0 1
  C       0.759750    1.031270    0.373770
  H       1.435020    1.875660    0.374710
  C       1.266620   -0.267360    0.421270
  H       2.334920   -0.429180    0.459430
  C       0.395320   -1.355990    0.424900
  H       0.788660   -2.362490    0.463030
  C      -0.982210   -1.146650    0.381270
  H      -1.657660   -1.991140    0.385120
  C      -1.489350    0.151150    0.337570
  H      -2.557950    0.313750    0.307720
  C      -0.618770    1.240330    0.333880
  H      -1.011760    2.247110    0.304370
--
0 1
  O      -0.087650    0.231070    5.317220
  H      -0.001540    0.280950    4.360030
  C      -0.983800   -0.826540    5.600270
  H      -1.079520   -0.883280    6.681210
  H      -1.975950   -0.654840    5.176480
  H      -0.617330   -1.789580    5.237360
units angstrom
no_reorient
symmetry c1
}

set {
scf_type DF
basis aug-cc-pvdz
freeze_core True
guess SAD
}
energy('sapt2+')
--------------------------------------------------------------------------

  //              Dimer HF             //
    Molecular point group: c1
  Charge       = 0
  Multiplicity = 1
  Basis Set: AUG-CC-PVDZ
    Blend: AUG-CC-PVDZ
  Basis Set: (AUG-CC-PVDZ AUX)
    Blend: AUG-CC-PVDZ-JKFIT
  @DF-RHF Final Energy:  -345.79082208345875
    Total Energy =                       -345.7908220834587496
  //            Monomer A HF           //
    Molecular point group: c1
  Multiplicity = 1
  Basis Set: AUG-CC-PVDZ
    Blend: AUG-CC-PVDZ
  Basis Set: (AUG-CC-PVDZ AUX)
    Blend: AUG-CC-PVDZ-JKFIT
  @DF-RHF Final Energy:  -230.72801833535746
    Total Energy =                       -230.7280183353574898
  //            Monomer B HF           //
    Molecular point group: c1

    Geometry (in Angstrom), charge = 0, multiplicity = 1:

       Center              X                  Y                   Z               Mass
    ------------   -----------------  -----------------  -----------------  -----------------
      Gh(C)           0.992398250422     1.156724062609    -1.474627293844    12.000000000000
      Gh(H)           1.667668250422     2.001114062609    -1.473687293844     1.007825032230
      Gh(C)           1.499268250422    -0.141905937391    -1.427127293844    12.000000000000
      Gh(H)           2.567568250422    -0.303725937391    -1.388967293844     1.007825032230
      Gh(C)           0.627968250422    -1.230535937391    -1.423497293844    12.000000000000
      Gh(H)           1.021308250422    -2.237035937391    -1.385367293844     1.007825032230
      Gh(C)          -0.749561749578    -1.021195937391    -1.467127293844    12.000000000000
      Gh(H)          -1.425011749578    -1.865685937391    -1.463277293844     1.007825032230
      Gh(C)          -1.256701749578     0.276604062609    -1.510827293844    12.000000000000
      Gh(H)          -2.325301749578     0.439204062609    -1.540677293844     1.007825032230
      Gh(C)          -0.386121749578     1.365784062609    -1.514517293844    12.000000000000
      Gh(H)          -0.779111749578     2.372564062609    -1.544027293844     1.007825032230
         O            0.144998250422     0.356524062609     3.468822706156    15.994914619570
         H            0.231108250422     0.406404062609     2.511632706156     1.007825032230
         C           -0.751151749578    -0.701085937391     3.751872706156    12.000000000000
         H           -0.846871749578    -0.757825937391     4.832812706156     1.007825032230
         H           -1.743301749578    -0.529385937391     3.328082706156     1.007825032230
         H           -0.384681749578    -1.664125937391     3.388962706156     1.007825032230

  Charge       = 0
  Multiplicity = 1
  Basis Set: AUG-CC-PVDZ
    Blend: AUG-CC-PVDZ
  Basis Set: (AUG-CC-PVDZ AUX)
    Blend: AUG-CC-PVDZ-JKFIT

    Orbital Energies [Eh]
    ---------------------

    Doubly Occupied:

       1A    -20.569676     2A    -11.278309     3A     -1.363749
       4A     -0.927008     5A     -0.693598     6A     -0.620304
       7A     -0.595076     8A     -0.504903     9A     -0.450132

  @DF-RHF Final Energy:  -115.06142596901691

   => Energetics <=

    Nuclear Repulsion Energy =             40.4152785680142728
    One-Electron Energy =                -236.9478989647086280
    Two-Electron Energy =                  81.4711944276774602
    Total Energy =                       -115.0614259690169092

  Dipole Moment: [D]
     X:    -0.8363      Y:    -1.0690      Z:    -1.2063     Total:     1.8159

    SAPT Results
  --------------------------------------------------------------------------------------------------------
    Electrostatics                 -1.06984559 [mEh]      -0.67133825 [kcal/mol]      -2.80887922 [kJ/mol]
      Elst10,r                     -1.30660858 [mEh]      -0.81990926 [kcal/mol]      -3.43050035 [kJ/mol]
      Elst12,r                      0.23676298 [mEh]       0.14857102 [kcal/mol]       0.62162113 [kJ/mol]

    Exchange                        0.04254393 [mEh]       0.02669672 [kcal/mol]       0.11169907 [kJ/mol]
      Exch10                        0.03436721 [mEh]       0.02156575 [kcal/mol]       0.09023110 [kJ/mol]
      Exch10(S^2)                   0.03436718 [mEh]       0.02156573 [kcal/mol]       0.09023102 [kJ/mol]
      Exch11(S^2)                   0.00054663 [mEh]       0.00034302 [kcal/mol]       0.00143518 [kJ/mol]
      Exch12(S^2)                   0.00763009 [mEh]       0.00478795 [kcal/mol]       0.02003279 [kJ/mol]

    Induction                      -0.09820541 [mEh]      -0.06162483 [kcal/mol]      -0.25783827 [kJ/mol]
      Ind20,r                      -0.09833443 [mEh]      -0.06170579 [kcal/mol]      -0.25817700 [kJ/mol]
      Ind22                         0.00777308 [mEh]       0.00487768 [kcal/mol]       0.02040821 [kJ/mol]
      Exch-Ind20,r                  0.00557601 [mEh]       0.00349900 [kcal/mol]       0.01463980 [kJ/mol]
      Exch-Ind22                   -0.00044077 [mEh]      -0.00027659 [kcal/mol]      -0.00115724 [kJ/mol]
      delta HF,r (2)               -0.01277930 [mEh]      -0.00801913 [kcal/mol]      -0.03355204 [kJ/mol]

    Dispersion                     -0.75280575 [mEh]      -0.47239274 [kcal/mol]      -1.97649122 [kJ/mol]
      Disp20                       -0.79000731 [mEh]      -0.49573707 [kcal/mol]      -2.07416390 [kJ/mol]
      Disp21                        0.17077445 [mEh]       0.10716258 [kcal/mol]       0.44836825 [kJ/mol]
      Disp22 (SDQ)                  0.00857342 [mEh]       0.00537990 [kcal/mol]       0.02250951 [kJ/mol]
      Disp22 (T)                   -0.14432200 [mEh]      -0.09056342 [kcal/mol]      -0.37891737 [kJ/mol]
      Est. Disp22 (T)              -0.14878517 [mEh]      -0.09336411 [kcal/mol]      -0.39063542 [kJ/mol]
      Exch-Disp20                   0.00663887 [mEh]       0.00416595 [kcal/mol]       0.01743034 [kJ/mol]

  Total HF                         -1.37777908 [mEh]      -0.86456943 [kcal/mol]      -3.61735849 [kJ/mol]
  Total SAPT0                      -2.16114753 [mEh]      -1.35614055 [kcal/mol]      -5.67409205 [kJ/mol]
  Total SAPT2                      -1.90887552 [mEh]      -1.19783747 [kcal/mol]      -5.01175199 [kJ/mol]
  Total SAPT2+                     -1.87831282 [mEh]      -1.17865909 [kcal/mol]      -4.93150964 [kJ/mol]

  Special recipe for scaled SAPT0 (see Manual):
    Electrostatics sSAPT0          -1.30660858 [mEh]      -0.81990926 [kcal/mol]      -3.43050035 [kJ/mol]
    Exchange sSAPT0                 0.03436721 [mEh]       0.02156575 [kcal/mol]       0.09023110 [kJ/mol]
    Induction sSAPT0               -0.10553770 [mEh]      -0.06622591 [kcal/mol]      -0.27708920 [kJ/mol]
    Dispersion sSAPT0              -0.78336842 [mEh]      -0.49157111 [kcal/mol]      -2.05673351 [kJ/mol]
  Total sSAPT0                     -2.16114749 [mEh]      -1.35614053 [kcal/mol]      -5.67409196 [kJ/mol]
  --------------------------------------------------------------------------------------------------------

*** Psi4 exiting successfully. Buy a developer a beer!
