                               Psi4 1.4a2.dev224

  ==> Input File <==

--------------------------------------------------------------------------
#Generated by lconvert.py for sapt job

memory 20 GB

molecule  {
0 1
  C       0.759750    1.031270    0.373770
  H       1.435020    1.875660    0.374710
  C       1.266620   -0.267360    0.421270
  H       2.334920   -0.429180    0.459430
  C       0.395320   -1.355990    0.424900
  H       0.788660   -2.362490    0.463030
  C      -0.982210   -1.146650    0.381270
  H      -1.657660   -1.991140    0.385120
  C      -1.489350    0.151150    0.337570
  H      -2.557950    0.313750    0.307720
  C      -0.618770    1.240330    0.333880
  H      -1.011760    2.247110    0.304370
--
0 1
  O      -0.155040    0.193480    6.134070
  H      -0.068940    0.243350    5.176870
  C      -1.051190   -0.864130    6.417120
  H      -1.146910   -0.920870    7.498060
  H      -2.043340   -0.692440    5.993330
  H      -0.684730   -1.827180    6.054210
units angstrom
no_reorient
symmetry c1
}

set {
scf_type DF
basis aug-cc-pvdz
freeze_core True
guess SAD
}
energy('sapt2+')
--------------------------------------------------------------------------

  //              Dimer HF             //
    Molecular point group: c1
  Charge       = 0
  Multiplicity = 1
  Basis Set: AUG-CC-PVDZ
    Blend: AUG-CC-PVDZ
  Basis Set: (AUG-CC-PVDZ AUX)
    Blend: AUG-CC-PVDZ-JKFIT
  @DF-RHF Final Energy:  -345.79011846941228
    Total Energy =                       -345.7901184694122776
  //            Monomer A HF           //
    Molecular point group: c1
  Multiplicity = 1
  Basis Set: AUG-CC-PVDZ
    Blend: AUG-CC-PVDZ
  Basis Set: (AUG-CC-PVDZ AUX)
    Blend: AUG-CC-PVDZ-JKFIT
  @DF-RHF Final Energy:  -230.72793122531232
    Total Energy =                       -230.7279312253123180
  //            Monomer B HF           //
    Molecular point group: c1

    Geometry (in Angstrom), charge = 0, multiplicity = 1:

       Center              X                  Y                   Z               Mass
    ------------   -----------------  -----------------  -----------------  -----------------
      Gh(C)           1.012005815713     1.167661293748    -1.712292881573    12.000000000000
      Gh(H)           1.687275815713     2.012051293748    -1.711352881573     1.007825032230
      Gh(C)           1.518875815713    -0.130968706252    -1.664792881573    12.000000000000
      Gh(H)           2.587175815713    -0.292788706252    -1.626632881573     1.007825032230
      Gh(C)           0.647575815713    -1.219598706252    -1.661162881573    12.000000000000
      Gh(H)           1.040915815713    -2.226098706252    -1.623032881573     1.007825032230
      Gh(C)          -0.729954184287    -1.010258706252    -1.704792881573    12.000000000000
      Gh(H)          -1.405404184287    -1.854748706252    -1.700942881573     1.007825032230
      Gh(C)          -1.237094184287     0.287541293748    -1.748492881573    12.000000000000
      Gh(H)          -2.305694184287     0.450141293748    -1.778342881573     1.007825032230
      Gh(C)          -0.366514184287     1.376721293748    -1.752182881573    12.000000000000
      Gh(H)          -0.759504184287     2.383501293748    -1.781692881573     1.007825032230
         O            0.097215815713     0.329871293748     4.048007118427    15.994914619570
         H            0.183315815713     0.379741293748     3.090807118427     1.007825032230
         C           -0.798934184287    -0.727738706252     4.331057118427    12.000000000000
         H           -0.894654184287    -0.784478706252     5.411997118427     1.007825032230
         H           -1.791084184287    -0.556048706252     3.907267118427     1.007825032230
         H           -0.432474184287    -1.690788706252     3.968147118427     1.007825032230

  Charge       = 0
  Multiplicity = 1
  Basis Set: AUG-CC-PVDZ
    Blend: AUG-CC-PVDZ
  Basis Set: (AUG-CC-PVDZ AUX)
    Blend: AUG-CC-PVDZ-JKFIT

    Orbital Energies [Eh]
    ---------------------

    Doubly Occupied:

       1A    -20.569651     2A    -11.278337     3A     -1.363752
       4A     -0.927010     5A     -0.693603     6A     -0.620304
       7A     -0.595070     8A     -0.504907     9A     -0.450137

  @DF-RHF Final Energy:  -115.06139164818848

   => Energetics <=

    Nuclear Repulsion Energy =             40.4152182195360155
    One-Electron Energy =                -236.9476767895904459
    Two-Electron Energy =                  81.4710669218659405
    Total Energy =                       -115.0613916481884758

  Dipole Moment: [D]
     X:    -0.8360      Y:    -1.0687      Z:    -1.2064     Total:     1.8156

    SAPT Results
  --------------------------------------------------------------------------------------------------------
    Electrostatics                 -0.62304001 [mEh]      -0.39096351 [kcal/mol]      -1.63579133 [kJ/mol]
      Elst10,r                     -0.76166254 [mEh]      -0.47795046 [kcal/mol]      -1.99974472 [kJ/mol]
      Elst12,r                      0.13862252 [mEh]       0.08698695 [kcal/mol]       0.36395338 [kJ/mol]

    Exchange                        0.00274165 [mEh]       0.00172041 [kcal/mol]       0.00719819 [kJ/mol]
      Exch10                        0.00215380 [mEh]       0.00135153 [kcal/mol]       0.00565481 [kJ/mol]
      Exch10(S^2)                   0.00215380 [mEh]       0.00135153 [kcal/mol]       0.00565481 [kJ/mol]
      Exch11(S^2)                   0.00000614 [mEh]       0.00000385 [kcal/mol]       0.00001611 [kJ/mol]
      Exch12(S^2)                   0.00058171 [mEh]       0.00036503 [kcal/mol]       0.00152727 [kJ/mol]

    Induction                      -0.03242924 [mEh]      -0.02034966 [kcal/mol]      -0.08514297 [kJ/mol]
      Ind20,r                      -0.03525385 [mEh]      -0.02212213 [kcal/mol]      -0.09255898 [kJ/mol]
      Ind22                         0.00371065 [mEh]       0.00232847 [kcal/mol]       0.00974231 [kJ/mol]
      Exch-Ind20,r                  0.00050085 [mEh]       0.00031429 [kcal/mol]       0.00131498 [kJ/mol]
      Exch-Ind22                   -0.00005272 [mEh]      -0.00003308 [kcal/mol]      -0.00013841 [kJ/mol]
      delta HF,r (2)               -0.00133417 [mEh]      -0.00083721 [kcal/mol]      -0.00350287 [kJ/mol]

    Dispersion                     -0.29734233 [mEh]      -0.18658513 [kcal/mol]      -0.78067218 [kJ/mol]
      Disp20                       -0.31524981 [mEh]      -0.19782224 [kcal/mol]      -0.82768826 [kJ/mol]
      Disp21                        0.07354617 [mEh]       0.04615092 [kcal/mol]       0.19309544 [kJ/mol]
      Disp22 (SDQ)                  0.00320212 [mEh]       0.00200936 [kcal/mol]       0.00840716 [kJ/mol]
      Disp22 (T)                   -0.05841063 [mEh]      -0.03665322 [kcal/mol]      -0.15335709 [kJ/mol]
      Est. Disp22 (T)              -0.05937110 [mEh]      -0.03725593 [kcal/mol]      -0.15587880 [kJ/mol]
      Exch-Disp20                   0.00053029 [mEh]       0.00033276 [kcal/mol]       0.00139228 [kJ/mol]

  Total HF                         -0.79559591 [mEh]      -0.49924397 [kcal/mol]      -2.08883678 [kJ/mol]
  Total SAPT0                      -1.11031543 [mEh]      -0.69673345 [kcal/mol]      -2.91513276 [kJ/mol]
  Total SAPT2                      -0.96744713 [mEh]      -0.60708224 [kcal/mol]      -2.54003209 [kJ/mol]
  Total SAPT2+                     -0.95006994 [mEh]      -0.59617789 [kcal/mol]      -2.49440829 [kJ/mol]

  Special recipe for scaled SAPT0 (see Manual):
    Electrostatics sSAPT0          -0.76166254 [mEh]      -0.47795046 [kcal/mol]      -1.99974472 [kJ/mol]
    Exchange sSAPT0                 0.00215380 [mEh]       0.00135153 [kcal/mol]       0.00565481 [kJ/mol]
    Induction sSAPT0               -0.03608718 [mEh]      -0.02264504 [kcal/mol]      -0.09474687 [kJ/mol]
    Dispersion sSAPT0              -0.31471952 [mEh]      -0.19748948 [kcal/mol]      -0.82629598 [kJ/mol]
  Total sSAPT0                     -1.11031543 [mEh]      -0.69673345 [kcal/mol]      -2.91513276 [kJ/mol]
  --------------------------------------------------------------------------------------------------------

*** Psi4 exiting successfully. Buy a developer a beer!
