                               Psi4 1.4a2.dev224

  ==> Input File <==

--------------------------------------------------------------------------
#Generated by lconvert.py for sapt job

memory 20 GB

molecule  {
0 1
  C       0.692320    1.088290    0.324840
  H       1.281950    1.991950    0.252520
  C       1.318190   -0.156870    0.286900
  H       2.393140   -0.219480    0.188410
  C       0.558020   -1.321950    0.381400
  H       1.043920   -2.287570    0.357620
  C      -0.827550   -1.241420    0.511680
  H      -1.416700   -2.145250    0.585340
  C      -1.453410    0.003670    0.548380
  H      -2.528230    0.065700    0.649840
  C      -0.693460    1.168400    0.456230
  H      -1.178740    2.134410    0.485730
--
0 1
  N       0.103880   -0.381140    5.602480
  H       0.238500   -0.337100    4.599410
  H       0.245370    0.564010    5.934950
  C      -1.272220   -0.787520    5.879920
  H      -1.430090   -0.816070    6.956470
  H      -2.043520   -0.147140    5.439800
  H      -1.426910   -1.797090    5.504290
units angstrom
no_reorient
symmetry c1
}

set {
scf_type DF
basis aug-cc-pvdz
freeze_core True
guess SAD
}
energy('sapt2+')
--------------------------------------------------------------------------

  //              Dimer HF             //
    Molecular point group: c1
  Charge       = 0
  Multiplicity = 1
  Basis Set: AUG-CC-PVDZ
    Blend: AUG-CC-PVDZ
  Basis Set: (AUG-CC-PVDZ AUX)
    Blend: AUG-CC-PVDZ-JKFIT
  @DF-RHF Final Energy:  -325.95933909471933
    Total Energy =                       -325.9593390947193257
  //            Monomer A HF           //
    Molecular point group: c1
  Multiplicity = 1
  Basis Set: AUG-CC-PVDZ
    Blend: AUG-CC-PVDZ
  Basis Set: (AUG-CC-PVDZ AUX)
    Blend: AUG-CC-PVDZ-JKFIT
  @DF-RHF Final Energy:  -230.72805663580564
    Total Energy =                       -230.7280566358056717
  //            Monomer B HF           //
    Molecular point group: c1

    Geometry (in Angstrom), charge = 0, multiplicity = 1:

       Center              X                  Y                   Z               Mass
    ------------   -----------------  -----------------  -----------------  -----------------
      Gh(C)           0.908122558888     1.302087495116    -1.603131226336    12.000000000000
      Gh(H)           1.497752558888     2.205747495116    -1.675451226336     1.007825032230
      Gh(C)           1.533992558888     0.056927495116    -1.641071226336    12.000000000000
      Gh(H)           2.608942558888    -0.005682504884    -1.739561226336     1.007825032230
      Gh(C)           0.773822558888    -1.108152504884    -1.546571226336    12.000000000000
      Gh(H)           1.259722558888    -2.073772504884    -1.570351226336     1.007825032230
      Gh(C)          -0.611747441112    -1.027622504884    -1.416291226336    12.000000000000
      Gh(H)          -1.200897441112    -1.931452504884    -1.342631226336     1.007825032230
      Gh(C)          -1.237607441112     0.217467495116    -1.379591226336    12.000000000000
      Gh(H)          -2.312427441112     0.279497495116    -1.278131226336     1.007825032230
      Gh(C)          -0.477657441112     1.382197495116    -1.471741226336    12.000000000000
      Gh(H)          -0.962937441112     2.348207495116    -1.442241226336     1.007825032230
         N            0.319682558888    -0.167342504884     3.674508773664    14.003074004430
         H            0.454302558888    -0.123302504884     2.671438773664     1.007825032230
         H            0.461172558888     0.777807495116     4.006978773664     1.007825032230
         C           -1.056417441112    -0.573722504884     3.951948773664    12.000000000000
         H           -1.214287441112    -0.602272504884     5.028498773664     1.007825032230
         H           -1.827717441112     0.066657495116     3.511828773664     1.007825032230
         H           -1.211107441112    -1.583292504884     3.576318773664     1.007825032230

  Charge       = 0
  Multiplicity = 1
  Basis Set: AUG-CC-PVDZ
    Blend: AUG-CC-PVDZ
  Basis Set: (AUG-CC-PVDZ AUX)
    Blend: AUG-CC-PVDZ-JKFIT

    Orbital Energies [Eh]
    ---------------------

    Doubly Occupied:

       1A    -15.549120     2A    -11.247657     3A     -1.174255
       4A     -0.896820     5A     -0.662190     6A     -0.604493
       7A     -0.555082     8A     -0.515673     9A     -0.393431

  @DF-RHF Final Energy:   -95.23061440838967

   => Energetics <=

    Nuclear Repulsion Energy =             42.1072637075670144
    One-Electron Energy =                -211.4783120997254287
    Two-Electron Energy =                  74.1404339837687303
    Total Energy =                        -95.2306144083896697

  Dipole Moment: [D]
     X:    -0.9098      Y:     0.9553      Z:    -0.6444     Total:     1.4682

    SAPT Results
  --------------------------------------------------------------------------------------------------------
    Electrostatics                 -0.53547218 [mEh]      -0.33601387 [kcal/mol]      -1.40588201 [kJ/mol]
      Elst10,r                     -0.64263396 [mEh]      -0.40325890 [kcal/mol]      -1.68723522 [kJ/mol]
      Elst12,r                      0.10716178 [mEh]       0.06724503 [kcal/mol]       0.28135321 [kJ/mol]

    Exchange                        0.03030151 [mEh]       0.01901449 [kcal/mol]       0.07955661 [kJ/mol]
      Exch10                        0.02395363 [mEh]       0.01503113 [kcal/mol]       0.06289025 [kJ/mol]
      Exch10(S^2)                   0.02395355 [mEh]       0.01503108 [kcal/mol]       0.06289003 [kJ/mol]
      Exch11(S^2)                   0.00024251 [mEh]       0.00015218 [kcal/mol]       0.00063672 [kJ/mol]
      Exch12(S^2)                   0.00610537 [mEh]       0.00383118 [kcal/mol]       0.01602965 [kJ/mol]

    Induction                      -0.04726236 [mEh]      -0.02965758 [kcal/mol]      -0.12408730 [kJ/mol]
      Ind20,r                      -0.04774141 [mEh]      -0.02995818 [kcal/mol]      -0.12534504 [kJ/mol]
      Ind22                         0.00233198 [mEh]       0.00146334 [kcal/mol]       0.00612262 [kJ/mol]
      Exch-Ind20,r                  0.00458871 [mEh]       0.00287946 [kcal/mol]       0.01204765 [kJ/mol]
      Exch-Ind22                   -0.00022414 [mEh]      -0.00014065 [kcal/mol]      -0.00058848 [kJ/mol]
      delta HF,r (2)               -0.00621750 [mEh]      -0.00390154 [kcal/mol]      -0.01632404 [kJ/mol]

    Dispersion                     -0.67936215 [mEh]      -0.42630618 [kcal/mol]      -1.78366508 [kJ/mol]
      Disp20                       -0.73399706 [mEh]      -0.46059011 [kcal/mol]      -1.92710903 [kJ/mol]
      Disp21                        0.16501076 [mEh]       0.10354582 [kcal/mol]       0.43323570 [kJ/mol]
      Disp22 (SDQ)                  0.01759201 [mEh]       0.01103915 [kcal/mol]       0.04618781 [kJ/mol]
      Disp22 (T)                   -0.12975389 [mEh]      -0.08142179 [kcal/mol]      -0.34066879 [kJ/mol]
      Est. Disp22 (T)              -0.13401850 [mEh]      -0.08409788 [kcal/mol]      -0.35186552 [kJ/mol]
      Exch-Disp20                   0.00605064 [mEh]       0.00379684 [kcal/mol]       0.01588596 [kJ/mol]

  Total HF                         -0.66805052 [mEh]      -0.41920803 [kcal/mol]      -1.75396641 [kJ/mol]
  Total SAPT0                      -1.39599695 [mEh]      -0.87600131 [kcal/mol]      -3.66518948 [kJ/mol]
  Total SAPT2                      -1.28037944 [mEh]      -0.80345023 [kcal/mol]      -3.36163577 [kJ/mol]
  Total SAPT2+                     -1.23179517 [mEh]      -0.77296314 [kcal/mol]      -3.23407778 [kJ/mol]

  Special recipe for scaled SAPT0 (see Manual):
    Electrostatics sSAPT0          -0.64263396 [mEh]      -0.40325890 [kcal/mol]      -1.68723522 [kJ/mol]
    Exchange sSAPT0                 0.02395363 [mEh]       0.01503113 [kcal/mol]       0.06289025 [kJ/mol]
    Induction sSAPT0               -0.04937015 [mEh]      -0.03098024 [kcal/mol]      -0.12962131 [kJ/mol]
    Dispersion sSAPT0              -0.72794636 [mEh]      -0.45679324 [kcal/mol]      -1.91122290 [kJ/mol]
  Total sSAPT0                     -1.39599684 [mEh]      -0.87600124 [kcal/mol]      -3.66518919 [kJ/mol]
  --------------------------------------------------------------------------------------------------------

*** Psi4 exiting successfully. Buy a developer a beer!
