                               Psi4 1.4a2.dev224

  ==> Input File <==

--------------------------------------------------------------------------
#Generated by lconvert.py for sapt job

memory 20 GB

molecule  {
0 1
  C       0.692320    1.088290    0.324840
  H       1.281950    1.991950    0.252520
  C       1.318190   -0.156870    0.286900
  H       2.393140   -0.219480    0.188410
  C       0.558020   -1.321950    0.381400
  H       1.043920   -2.287570    0.357620
  C      -0.827550   -1.241420    0.511680
  H      -1.416700   -2.145250    0.585340
  C      -1.453410    0.003670    0.548380
  H      -2.528230    0.065700    0.649840
  C      -0.693460    1.168400    0.456230
  H      -1.178740    2.134410    0.485730
--
0 1
  N       0.019260   -0.459450    6.464380
  H       0.153880   -0.415410    5.461310
  H       0.160750    0.485700    6.796860
  C      -1.356840   -0.865830    6.741820
  H      -1.514720   -0.894380    7.818380
  H      -2.128140   -0.225450    6.301700
  H      -1.511530   -1.875400    6.366200
units angstrom
no_reorient
symmetry c1
}

set {
scf_type DF
basis aug-cc-pvdz
freeze_core True
guess SAD
}
energy('sapt2+')
--------------------------------------------------------------------------

  //              Dimer HF             //
    Molecular point group: c1
  Charge       = 0
  Multiplicity = 1
  Basis Set: AUG-CC-PVDZ
    Blend: AUG-CC-PVDZ
  Basis Set: (AUG-CC-PVDZ AUX)
    Blend: AUG-CC-PVDZ-JKFIT
  @DF-RHF Final Energy:  -325.95891421673502
    Total Energy =                       -325.9589142167350246
  //            Monomer A HF           //
    Molecular point group: c1
  Multiplicity = 1
  Basis Set: AUG-CC-PVDZ
    Blend: AUG-CC-PVDZ
  Basis Set: (AUG-CC-PVDZ AUX)
    Blend: AUG-CC-PVDZ-JKFIT
  @DF-RHF Final Energy:  -230.72794837693414
    Total Energy =                       -230.7279483769341368
  //            Monomer B HF           //
    Molecular point group: c1

    Geometry (in Angstrom), charge = 0, multiplicity = 1:

       Center              X                  Y                   Z               Mass
    ------------   -----------------  -----------------  -----------------  -----------------
      Gh(C)           0.932201956216     1.324371238558    -1.848392114818    12.000000000000
      Gh(H)           1.521831956216     2.228031238558    -1.920712114818     1.007825032230
      Gh(C)           1.558071956216     0.079211238558    -1.886332114818    12.000000000000
      Gh(H)           2.633021956216     0.016601238558    -1.984822114818     1.007825032230
      Gh(C)           0.797901956216    -1.085868761442    -1.791832114818    12.000000000000
      Gh(H)           1.283801956216    -2.051488761442    -1.815612114818     1.007825032230
      Gh(C)          -0.587668043784    -1.005338761442    -1.661552114818    12.000000000000
      Gh(H)          -1.176818043784    -1.909168761442    -1.587892114818     1.007825032230
      Gh(C)          -1.213528043784     0.239751238558    -1.624852114818    12.000000000000
      Gh(H)          -2.288348043784     0.301781238558    -1.523392114818     1.007825032230
      Gh(C)          -0.453578043784     1.404481238558    -1.717002114818    12.000000000000
      Gh(H)          -0.938858043784     2.370491238558    -1.687502114818     1.007825032230
         N            0.259141956216    -0.223368761442     4.291147885182    14.003074004430
         H            0.393761956216    -0.179328761442     3.288077885182     1.007825032230
         H            0.400631956216     0.721781238558     4.623627885182     1.007825032230
         C           -1.116958043784    -0.629748761442     4.568587885182    12.000000000000
         H           -1.274838043784    -0.658298761442     5.645147885182     1.007825032230
         H           -1.888258043784     0.010631238558     4.128467885182     1.007825032230
         H           -1.271648043784    -1.639318761442     4.192967885182     1.007825032230

  Charge       = 0
  Multiplicity = 1
  Basis Set: AUG-CC-PVDZ
    Blend: AUG-CC-PVDZ
  Basis Set: (AUG-CC-PVDZ AUX)
    Blend: AUG-CC-PVDZ-JKFIT

    Orbital Energies [Eh]
    ---------------------

    Doubly Occupied:

       1A    -15.549121     2A    -11.247690     3A     -1.174257
       4A     -0.896824     5A     -0.662190     6A     -0.604495
       7A     -0.555085     8A     -0.515673     9A     -0.393435

  @DF-RHF Final Energy:   -95.23058685030875

   => Energetics <=

    Nuclear Repulsion Energy =             42.1072145422692685
    One-Electron Energy =                -211.4780604742531409
    Two-Electron Energy =                  74.1402590816751115
    Total Energy =                        -95.2305868503087538

  Dipole Moment: [D]
     X:    -0.9096      Y:     0.9552      Z:    -0.6443     Total:     1.4680

    SAPT Results
  --------------------------------------------------------------------------------------------------------
    Electrostatics                 -0.30208759 [mEh]      -0.18956282 [kcal/mol]      -0.79313086 [kJ/mol]
      Elst10,r                     -0.36433759 [mEh]      -0.22862529 [kcal/mol]      -0.95656820 [kJ/mol]
      Elst12,r                      0.06225000 [mEh]       0.03906246 [kcal/mol]       0.16343734 [kJ/mol]

    Exchange                        0.00188452 [mEh]       0.00118256 [kcal/mol]       0.00494781 [kJ/mol]
      Exch10                        0.00147784 [mEh]       0.00092736 [kcal/mol]       0.00388008 [kJ/mol]
      Exch10(S^2)                   0.00147784 [mEh]       0.00092736 [kcal/mol]       0.00388008 [kJ/mol]
      Exch11(S^2)                  -0.00000974 [mEh]      -0.00000611 [kcal/mol]      -0.00002557 [kJ/mol]
      Exch12(S^2)                   0.00041642 [mEh]       0.00026131 [kcal/mol]       0.00109330 [kJ/mol]

    Induction                      -0.01488815 [mEh]      -0.00934245 [kcal/mol]      -0.03908882 [kJ/mol]
      Ind20,r                      -0.01629135 [mEh]      -0.01022297 [kcal/mol]      -0.04277292 [kJ/mol]
      Ind22                         0.00127494 [mEh]       0.00080004 [kcal/mol]       0.00334735 [kJ/mol]
      Exch-Ind20,r                  0.00042597 [mEh]       0.00026730 [kcal/mol]       0.00111838 [kJ/mol]
      Exch-Ind22                   -0.00003334 [mEh]      -0.00002092 [kcal/mol]      -0.00008752 [kJ/mol]
      delta HF,r (2)               -0.00026437 [mEh]      -0.00016590 [kcal/mol]      -0.00069411 [kJ/mol]

    Dispersion                     -0.26462759 [mEh]      -0.16605632 [kcal/mol]      -0.69477964 [kJ/mol]
      Disp20                       -0.28833461 [mEh]      -0.18093270 [kcal/mol]      -0.75702240 [kJ/mol]
      Disp21                        0.06953223 [mEh]       0.04363213 [kcal/mol]       0.18255683 [kJ/mol]
      Disp22 (SDQ)                  0.00666442 [mEh]       0.00418199 [kcal/mol]       0.01749743 [kJ/mol]
      Disp22 (T)                   -0.05210435 [mEh]      -0.03269597 [kcal/mol]      -0.13679994 [kJ/mol]
      Est. Disp22 (T)              -0.05295384 [mEh]      -0.03322904 [kcal/mol]      -0.13903029 [kJ/mol]
      Exch-Disp20                   0.00046421 [mEh]       0.00029130 [kcal/mol]       0.00121879 [kJ/mol]

  Total HF                         -0.37898949 [mEh]      -0.23781950 [kcal/mol]      -0.99503677 [kJ/mol]
  Total SAPT0                      -0.66685989 [mEh]      -0.41846090 [kcal/mol]      -1.75084039 [kJ/mol]
  Total SAPT2                      -0.60296161 [mEh]      -0.37836412 [kcal/mol]      -1.58307549 [kJ/mol]
  Total SAPT2+                     -0.57971881 [mEh]      -0.36377904 [kcal/mol]      -1.52205151 [kJ/mol]

  Special recipe for scaled SAPT0 (see Manual):
    Electrostatics sSAPT0          -0.36433759 [mEh]      -0.22862529 [kcal/mol]      -0.95656820 [kJ/mol]
    Exchange sSAPT0                 0.00147784 [mEh]       0.00092736 [kcal/mol]       0.00388008 [kJ/mol]
    Induction sSAPT0               -0.01612975 [mEh]      -0.01012157 [kcal/mol]      -0.04234865 [kJ/mol]
    Dispersion sSAPT0              -0.28787039 [mEh]      -0.18064140 [kcal/mol]      -0.75580362 [kJ/mol]
  Total sSAPT0                     -0.66685989 [mEh]      -0.41846090 [kcal/mol]      -1.75084039 [kJ/mol]
  --------------------------------------------------------------------------------------------------------

*** Psi4 exiting successfully. Buy a developer a beer!
