                               Psi4 1.4a2.dev224

  ==> Input File <==

--------------------------------------------------------------------------
#Generated by lconvert.py for sapt job

memory 20 GB

molecule  {
0 1
  C       0.692320    1.088290    0.324840
  H       1.281950    1.991950    0.252520
  C       1.318190   -0.156870    0.286900
  H       2.393140   -0.219480    0.188410
  C       0.558020   -1.321950    0.381400
  H       1.043920   -2.287570    0.357620
  C      -0.827550   -1.241420    0.511680
  H      -1.416700   -2.145250    0.585340
  C      -1.453410    0.003670    0.548380
  H      -2.528230    0.065700    0.649840
  C      -0.693460    1.168400    0.456230
  H      -1.178740    2.134410    0.485730
--
0 1
  N       0.188500   -0.302830    4.740580
  H       0.323120   -0.258780    3.737510
  H       0.329990    0.642320    5.073050
  C      -1.187600   -0.709210    5.018010
  H      -1.345470   -0.737760    6.094570
  H      -1.958900   -0.068830    4.577890
  H      -1.342290   -1.718780    4.642390
units angstrom
no_reorient
symmetry c1
}

set {
scf_type DF
basis aug-cc-pvdz
freeze_core True
guess SAD
}
energy('sapt2+')
--------------------------------------------------------------------------

  //              Dimer HF             //
    Molecular point group: c1
  Charge       = 0
  Multiplicity = 1
  Basis Set: AUG-CC-PVDZ
    Blend: AUG-CC-PVDZ
  Basis Set: (AUG-CC-PVDZ AUX)
    Blend: AUG-CC-PVDZ-JKFIT
  @DF-RHF Final Energy:  -325.95991882629050
    Total Energy =                       -325.9599188262905045
  //            Monomer A HF           //
    Molecular point group: c1
  Multiplicity = 1
  Basis Set: AUG-CC-PVDZ
    Blend: AUG-CC-PVDZ
  Basis Set: (AUG-CC-PVDZ AUX)
    Blend: AUG-CC-PVDZ-JKFIT
  @DF-RHF Final Energy:  -230.72823891461337
    Total Energy =                       -230.7282389146133710
  //            Monomer B HF           //
    Molecular point group: c1

    Geometry (in Angstrom), charge = 0, multiplicity = 1:

       Center              X                  Y                   Z               Mass
    ------------   -----------------  -----------------  -----------------  -----------------
      Gh(C)           0.884043253945     1.279803659288    -1.357869422606    12.000000000000
      Gh(H)           1.473673253945     2.183463659288    -1.430189422606     1.007825032230
      Gh(C)           1.509913253945     0.034643659288    -1.395809422606    12.000000000000
      Gh(H)           2.584863253945    -0.027966340712    -1.494299422606     1.007825032230
      Gh(C)           0.749743253945    -1.130436340712    -1.301309422606    12.000000000000
      Gh(H)           1.235643253945    -2.096056340712    -1.325089422606     1.007825032230
      Gh(C)          -0.635826746055    -1.049906340712    -1.171029422606    12.000000000000
      Gh(H)          -1.224976746055    -1.953736340712    -1.097369422606     1.007825032230
      Gh(C)          -1.261686746055     0.195183659288    -1.134329422606    12.000000000000
      Gh(H)          -2.336506746055     0.257213659288    -1.032869422606     1.007825032230
      Gh(C)          -0.501736746055     1.359913659288    -1.226479422606    12.000000000000
      Gh(H)          -0.987016746055     2.325923659288    -1.196979422606     1.007825032230
         N            0.380223253945    -0.111316340712     3.057870577394    14.003074004430
         H            0.514843253945    -0.067266340712     2.054800577394     1.007825032230
         H            0.521713253945     0.833833659288     3.390340577394     1.007825032230
         C           -0.995876746055    -0.517696340712     3.335300577394    12.000000000000
         H           -1.153746746055    -0.546246340712     4.411860577394     1.007825032230
         H           -1.767176746055     0.122683659288     2.895180577394     1.007825032230
         H           -1.150566746055    -1.527266340712     2.959680577394     1.007825032230

  Charge       = 0
  Multiplicity = 1
  Basis Set: AUG-CC-PVDZ
    Blend: AUG-CC-PVDZ
  Basis Set: (AUG-CC-PVDZ AUX)
    Blend: AUG-CC-PVDZ-JKFIT

    Orbital Energies [Eh]
    ---------------------

    Doubly Occupied:

       1A    -15.549117     2A    -11.247617     3A     -1.174248
       4A     -0.896813     5A     -0.662187     6A     -0.604487
       7A     -0.555075     8A     -0.515667     9A     -0.393421

  @DF-RHF Final Energy:   -95.23066773216216

   => Energetics <=

    Nuclear Repulsion Energy =             42.1072661412237252
    One-Electron Energy =                -211.4786020182831692
    Two-Electron Energy =                  74.1406681448972762
    Total Energy =                        -95.2306677321621606

  Dipole Moment: [D]
     X:    -0.9097      Y:     0.9554      Z:    -0.6444     Total:     1.4682

    SAPT Results
  --------------------------------------------------------------------------------------------------------
    Electrostatics                 -1.09259001 [mEh]      -0.68561058 [kcal/mol]      -2.86859467 [kJ/mol]
      Elst10,r                     -1.25095323 [mEh]      -0.78498500 [kcal/mol]      -3.28437725 [kJ/mol]
      Elst12,r                      0.15836322 [mEh]       0.09937442 [kcal/mol]       0.41578257 [kJ/mol]

    Exchange                        0.49519660 [mEh]       0.31074056 [kcal/mol]       1.30013850 [kJ/mol]
      Exch10                        0.41929060 [mEh]       0.26310882 [kcal/mol]       1.10084731 [kJ/mol]
      Exch10(S^2)                   0.41924216 [mEh]       0.26307843 [kcal/mol]       1.10072014 [kJ/mol]
      Exch11(S^2)                   0.00881284 [mEh]       0.00553014 [kcal/mol]       0.02313810 [kJ/mol]
      Exch12(S^2)                   0.06709317 [mEh]       0.04210160 [kcal/mol]       0.17615309 [kJ/mol]

    Induction                      -0.18593124 [mEh]      -0.11667361 [kcal/mol]      -0.48816239 [kJ/mol]
      Ind20,r                      -0.20459514 [mEh]      -0.12838539 [kcal/mol]      -0.53716446 [kJ/mol]
      Ind22                        -0.00837719 [mEh]      -0.00525677 [kcal/mol]      -0.02199431 [kJ/mol]
      Exch-Ind20,r                  0.07236102 [mEh]       0.04540723 [kcal/mol]       0.18998384 [kJ/mol]
      Exch-Ind22                    0.00296284 [mEh]       0.00185921 [kcal/mol]       0.00777893 [kJ/mol]
      delta HF,r (2)               -0.04828277 [mEh]      -0.03029790 [kcal/mol]      -0.12676639 [kJ/mol]

    Dispersion                     -2.05192702 [mEh]      -1.28760364 [kcal/mol]      -5.38733364 [kJ/mol]
      Disp20                       -2.22977437 [mEh]      -1.39920454 [kcal/mol]      -5.85427179 [kJ/mol]
      Disp21                        0.44894202 [mEh]       0.28171537 [kcal/mol]       1.17869710 [kJ/mol]
      Disp22 (SDQ)                  0.05552207 [mEh]       0.03484062 [kcal/mol]       0.14577317 [kJ/mol]
      Disp22 (T)                   -0.38278832 [mEh]      -0.24020330 [kcal/mol]      -1.00501060 [kJ/mol]
      Est. Disp22 (T)              -0.40279782 [mEh]      -0.25275945 [kcal/mol]      -1.05754554 [kJ/mol]
      Exch-Disp20                   0.07618109 [mEh]       0.04780435 [kcal/mol]       0.20001342 [kJ/mol]

  Total HF                         -1.01217951 [mEh]      -0.63515223 [kcal/mol]      -2.65747695 [kJ/mol]
  Total SAPT0                      -3.16577279 [mEh]      -1.98655242 [kcal/mol]      -8.31173532 [kJ/mol]
  Total SAPT2                      -2.93691792 [mEh]      -1.84294382 [kcal/mol]      -7.71087694 [kJ/mol]
  Total SAPT2+                     -2.83525166 [mEh]      -1.77914728 [kcal/mol]      -7.44395221 [kJ/mol]

  Special recipe for scaled SAPT0 (see Manual):
    Electrostatics sSAPT0          -1.25095323 [mEh]      -0.78498500 [kcal/mol]      -3.28437725 [kJ/mol]
    Exchange sSAPT0                 0.41929060 [mEh]       0.26310882 [kcal/mol]       1.10084731 [kJ/mol]
    Induction sSAPT0               -0.18049180 [mEh]      -0.11326031 [kcal/mol]      -0.47388115 [kJ/mol]
    Dispersion sSAPT0              -2.15356687 [mEh]      -1.35138361 [kcal/mol]      -5.65418904 [kJ/mol]
  Total sSAPT0                     -3.16572130 [mEh]      -1.98652011 [kcal/mol]      -8.31160014 [kJ/mol]
  --------------------------------------------------------------------------------------------------------

*** Psi4 exiting successfully. Buy a developer a beer!
