                               Psi4 1.4a2.dev224

  ==> Input File <==

--------------------------------------------------------------------------
#Generated by lconvert.py for sapt job

memory 20 GB

molecule  {
0 1
  C       0.408780    1.051030    0.375540
  H       1.011940    1.948550    0.368080
  C       1.019170   -0.199770    0.289050
  H       2.095570   -0.271830    0.217190
  C       0.241720   -1.356880    0.296690
  H       0.715220   -2.326590    0.228070
  C      -1.146180   -1.264260    0.393900
  H      -1.749180   -2.161930    0.399410
  C      -1.757280   -0.013960    0.482950
  H      -2.833510    0.058240    0.559040
  C      -0.979690    1.144210    0.472280
  H      -1.454050    2.114000    0.537140
--
0 1
  C       0.285460    2.049170    6.404660
  H      -0.072690    2.214900    5.391370
  H       1.310040    2.405880    6.486100
  H      -0.318640    2.622800    7.103010
  C       0.248610    0.596000    6.820370
  O       0.533240    0.243640    7.958910
  N      -0.123790   -0.269710    5.841130
  H      -0.284910    0.088280    4.915060
  C      -0.160580   -1.696590    6.059220
  H      -0.082490   -1.863500    7.129210
  H      -1.095820   -2.114940    5.692480
  H       0.668550   -2.200470    5.561880
units angstrom
no_reorient
symmetry c1
}

set {
scf_type DF
basis aug-cc-pvdz
freeze_core True
guess SAD
}
energy('sapt2+')
--------------------------------------------------------------------------

  //              Dimer HF             //
    Molecular point group: c1
  Charge       = 0
  Multiplicity = 1
  Basis Set: AUG-CC-PVDZ
    Blend: AUG-CC-PVDZ
  Basis Set: (AUG-CC-PVDZ AUX)
    Blend: AUG-CC-PVDZ-JKFIT
  @DF-RHF Final Energy:  -477.77093419335114
    Total Energy =                       -477.7709341933510814
  //            Monomer A HF           //
    Molecular point group: c1
  Multiplicity = 1
  Basis Set: AUG-CC-PVDZ
    Blend: AUG-CC-PVDZ
  Basis Set: (AUG-CC-PVDZ AUX)
    Blend: AUG-CC-PVDZ-JKFIT
  @DF-RHF Final Energy:  -230.72804020259545
    Total Energy =                       -230.7280402025954231
  //            Monomer B HF           //
    Molecular point group: c1

    Geometry (in Angstrom), charge = 0, multiplicity = 1:

       Center              X                  Y                   Z               Mass
    ------------   -----------------  -----------------  -----------------  -----------------
      Gh(C)           0.523872979838     1.022273895271    -3.020685649232    12.000000000000
      Gh(H)           1.127032979838     1.919793895271    -3.028145649232     1.007825032230
      Gh(C)           1.134262979838    -0.228526104729    -3.107175649232    12.000000000000
      Gh(H)           2.210662979838    -0.300586104729    -3.179035649232     1.007825032230
      Gh(C)           0.356812979838    -1.385636104729    -3.099535649232    12.000000000000
      Gh(H)           0.830312979838    -2.355346104729    -3.168155649232     1.007825032230
      Gh(C)          -1.031087020162    -1.293016104729    -3.002325649232    12.000000000000
      Gh(H)          -1.634087020162    -2.190686104729    -2.996815649232     1.007825032230
      Gh(C)          -1.642187020162    -0.042716104729    -2.913275649232    12.000000000000
      Gh(H)          -2.718417020162     0.029483895271    -2.837185649232     1.007825032230
      Gh(C)          -0.864597020162     1.115453895271    -2.923945649232    12.000000000000
      Gh(H)          -1.338957020162     2.085243895271    -2.859085649232     1.007825032230
         C            0.400552979838     2.020413895271     3.008434350768    12.000000000000
         H            0.042402979838     2.186143895271     1.995144350768     1.007825032230
         H            1.425132979838     2.377123895271     3.089874350768     1.007825032230
         H           -0.203547020162     2.594043895271     3.706784350768     1.007825032230
         C            0.363702979838     0.567243895271     3.424144350768    12.000000000000
         O            0.648332979838     0.214883895271     4.562684350768    15.994914619570
         N           -0.008697020162    -0.298466104729     2.444904350768    14.003074004430
         H           -0.169817020162     0.059523895271     1.518834350768     1.007825032230
         C           -0.045487020162    -1.725346104729     2.662994350768    12.000000000000
         H            0.032602979838    -1.892256104729     3.732984350768     1.007825032230
         H           -0.980727020162    -2.143696104729     2.296254350768     1.007825032230
         H            0.783642979838    -2.229226104729     2.165654350768     1.007825032230

  Charge       = 0
  Multiplicity = 1
  Basis Set: AUG-CC-PVDZ
    Blend: AUG-CC-PVDZ
  Basis Set: (AUG-CC-PVDZ AUX)
    Blend: AUG-CC-PVDZ-JKFIT

    Orbital Energies [Eh]
    ---------------------

    Doubly Occupied:

       1A    -20.521198     2A    -15.594486     3A    -11.355729
       4A    -11.263167     5A    -11.241724     6A     -1.377799
       7A     -1.234450     8A     -1.020005     9A     -0.933425
      10A     -0.792079    11A     -0.690843    12A     -0.653271
      13A     -0.633054    14A     -0.586159    15A     -0.580636
      16A     -0.554510    17A     -0.544879    18A     -0.503156
      19A     -0.419412    20A     -0.390539

  @DF-RHF Final Energy:  -247.04165628283042

   => Energetics <=

    Nuclear Repulsion Energy =            180.5517482354897254
    One-Electron Energy =                -693.4057681484781597
    Two-Electron Energy =                 265.8123636301579609
    Total Energy =                       -247.0416562828304450

  Dipole Moment: [D]
     X:    -0.9620      Y:     0.4017      Z:    -4.0366     Total:     4.1691

    SAPT Results
  --------------------------------------------------------------------------------------------------------
    Electrostatics                 -0.94404966 [mEh]      -0.59240010 [kcal/mol]      -2.47860203 [kJ/mol]
      Elst10,r                     -1.15315634 [mEh]      -0.72361653 [kcal/mol]      -3.02761156 [kJ/mol]
      Elst12,r                      0.20910669 [mEh]       0.13121643 [kcal/mol]       0.54900953 [kJ/mol]

    Exchange                        0.01218985 [mEh]       0.00764925 [kcal/mol]       0.03200446 [kJ/mol]
      Exch10                        0.01011220 [mEh]       0.00634550 [kcal/mol]       0.02654958 [kJ/mol]
      Exch10(S^2)                   0.01011219 [mEh]       0.00634549 [kcal/mol]       0.02654955 [kJ/mol]
      Exch11(S^2)                  -0.00007656 [mEh]      -0.00004804 [kcal/mol]      -0.00020102 [kJ/mol]
      Exch12(S^2)                   0.00215422 [mEh]       0.00135179 [kcal/mol]       0.00565590 [kJ/mol]

    Induction                      -0.08082645 [mEh]      -0.05071937 [kcal/mol]      -0.21220983 [kJ/mol]
      Ind20,r                      -0.09099490 [mEh]      -0.05710016 [kcal/mol]      -0.23890707 [kJ/mol]
      Ind22                         0.01418549 [mEh]       0.00890153 [kcal/mol]       0.03724399 [kJ/mol]
      Exch-Ind20,r                  0.00223331 [mEh]       0.00140143 [kcal/mol]       0.00586357 [kJ/mol]
      Exch-Ind22                   -0.00034816 [mEh]      -0.00021847 [kcal/mol]      -0.00091409 [kJ/mol]
      delta HF,r (2)               -0.00590220 [mEh]      -0.00370369 [kcal/mol]      -0.01549622 [kJ/mol]

    Dispersion                     -0.66303826 [mEh]      -0.41606279 [kcal/mol]      -1.74080672 [kJ/mol]
      Disp20                       -0.71522071 [mEh]      -0.44880777 [kcal/mol]      -1.87781171 [kJ/mol]
      Disp21                        0.19241606 [mEh]       0.12074290 [kcal/mol]       0.50518831 [kJ/mol]
      Disp22 (SDQ)                 -0.00040001 [mEh]      -0.00025101 [kcal/mol]      -0.00105021 [kJ/mol]
      Disp22 (T)                   -0.13935651 [mEh]      -0.08744753 [kcal/mol]      -0.36588048 [kJ/mol]
      Est. Disp22 (T)              -0.14217854 [mEh]      -0.08921838 [kcal/mol]      -0.37328969 [kJ/mol]
      Exch-Disp20                   0.00234492 [mEh]       0.00147146 [kcal/mol]       0.00615659 [kJ/mol]

  Total HF                         -1.23770793 [mEh]      -0.77667345 [kcal/mol]      -3.24960171 [kJ/mol]
  Total SAPT0                      -1.95058371 [mEh]      -1.22400976 [kcal/mol]      -5.12125683 [kJ/mol]
  Total SAPT2                      -1.72556204 [mEh]      -1.08280653 [kcal/mol]      -4.53046252 [kJ/mol]
  Total SAPT2+                     -1.67572452 [mEh]      -1.05153301 [kcal/mol]      -4.39961412 [kJ/mol]

  Special recipe for scaled SAPT0 (see Manual):
    Electrostatics sSAPT0          -1.15315634 [mEh]      -0.72361653 [kcal/mol]      -3.02761156 [kJ/mol]
    Exchange sSAPT0                 0.01011220 [mEh]       0.00634550 [kcal/mol]       0.02654958 [kJ/mol]
    Induction sSAPT0               -0.09466377 [mEh]      -0.05940242 [kcal/mol]      -0.24853971 [kJ/mol]
    Dispersion sSAPT0              -0.71287578 [mEh]      -0.44733630 [kcal/mol]      -1.87165510 [kJ/mol]
  Total sSAPT0                     -1.95058369 [mEh]      -1.22400975 [kcal/mol]      -5.12125679 [kJ/mol]
  --------------------------------------------------------------------------------------------------------

*** Psi4 exiting successfully. Buy a developer a beer!
