                               Psi4 1.4a2.dev224

  ==> Input File <==

--------------------------------------------------------------------------
#Generated by lconvert.py for sapt job

memory 20 GB

molecule  {
0 1
  C       0.408780    1.051030    0.375540
  H       1.011940    1.948550    0.368080
  C       1.019170   -0.199770    0.289050
  H       2.095570   -0.271830    0.217190
  C       0.241720   -1.356880    0.296690
  H       0.715220   -2.326590    0.228070
  C      -1.146180   -1.264260    0.393900
  H      -1.749180   -2.161930    0.399410
  C      -1.757280   -0.013960    0.482950
  H      -2.833510    0.058240    0.559040
  C      -0.979690    1.144210    0.472280
  H      -1.454050    2.114000    0.537140
--
0 1
  C       0.306120    2.097120    7.519300
  H      -0.052020    2.262850    6.506010
  H       1.330710    2.453830    7.600740
  H      -0.297970    2.670750    8.217650
  C       0.269280    0.643960    7.935010
  O       0.553910    0.291590    9.073540
  N      -0.103120   -0.221760    6.955770
  H      -0.264250    0.136230    6.029700
  C      -0.139910   -1.648640    7.173850
  H      -0.061820   -1.815550    8.243850
  H      -1.075150   -2.066990    6.807110
  H       0.689220   -2.152510    6.676520
units angstrom
no_reorient
symmetry c1
}

set {
scf_type DF
basis aug-cc-pvdz
freeze_core True
guess SAD
}
energy('sapt2+')
--------------------------------------------------------------------------

  //              Dimer HF             //
    Molecular point group: c1
  Charge       = 0
  Multiplicity = 1
  Basis Set: AUG-CC-PVDZ
    Blend: AUG-CC-PVDZ
  Basis Set: (AUG-CC-PVDZ AUX)
    Blend: AUG-CC-PVDZ-JKFIT
  @DF-RHF Final Energy:  -477.77018891287878
    Total Energy =                       -477.7701889128787798
  //            Monomer A HF           //
    Molecular point group: c1
  Multiplicity = 1
  Basis Set: AUG-CC-PVDZ
    Blend: AUG-CC-PVDZ
  Basis Set: (AUG-CC-PVDZ AUX)
    Blend: AUG-CC-PVDZ-JKFIT
  @DF-RHF Final Energy:  -230.72791597987680
    Total Energy =                       -230.7279159798767978
  //            Monomer B HF           //
    Molecular point group: c1

    Geometry (in Angstrom), charge = 0, multiplicity = 1:

       Center              X                  Y                   Z               Mass
    ------------   -----------------  -----------------  -----------------  -----------------
      Gh(C)           0.513880435775     0.999090462218    -3.559583046793    12.000000000000
      Gh(H)           1.117040435775     1.896610462218    -3.567043046793     1.007825032230
      Gh(C)           1.124270435775    -0.251709537782    -3.646073046793    12.000000000000
      Gh(H)           2.200670435775    -0.323769537782    -3.717933046793     1.007825032230
      Gh(C)           0.346820435775    -1.408819537782    -3.638433046793    12.000000000000
      Gh(H)           0.820320435775    -2.378529537782    -3.707053046793     1.007825032230
      Gh(C)          -1.041079564225    -1.316199537782    -3.541223046793    12.000000000000
      Gh(H)          -1.644079564225    -2.213869537782    -3.535713046793     1.007825032230
      Gh(C)          -1.652179564225    -0.065899537782    -3.452173046793    12.000000000000
      Gh(H)          -2.728409564225     0.006300462218    -3.376083046793     1.007825032230
      Gh(C)          -0.874589564225     1.092270462218    -3.462843046793    12.000000000000
      Gh(H)          -1.348949564225     2.062060462218    -3.397983046793     1.007825032230
         C            0.411220435775     2.045180462218     3.584176953207    12.000000000000
         H            0.053080435775     2.210910462218     2.570886953207     1.007825032230
         H            1.435810435775     2.401890462218     3.665616953207     1.007825032230
         H           -0.192869564225     2.618810462218     4.282526953207     1.007825032230
         C            0.374380435775     0.592020462218     3.999886953207    12.000000000000
         O            0.659010435775     0.239650462218     5.138416953207    15.994914619570
         N            0.001980435775    -0.273699537782     3.020646953207    14.003074004430
         H           -0.159149564225     0.084290462218     2.094576953207     1.007825032230
         C           -0.034809564225    -1.700579537782     3.238726953207    12.000000000000
         H            0.043280435775    -1.867489537782     4.308726953207     1.007825032230
         H           -0.970049564225    -2.118929537782     2.871986953207     1.007825032230
         H            0.794320435775    -2.204449537782     2.741396953207     1.007825032230

  Charge       = 0
  Multiplicity = 1
  Basis Set: AUG-CC-PVDZ
    Blend: AUG-CC-PVDZ
  Basis Set: (AUG-CC-PVDZ AUX)
    Blend: AUG-CC-PVDZ-JKFIT

    Orbital Energies [Eh]
    ---------------------

    Doubly Occupied:

       1A    -20.521197     2A    -15.594494     3A    -11.355745
       4A    -11.263217     5A    -11.241745     6A     -1.377805
       7A     -1.234450     8A     -1.020010     9A     -0.933428
      10A     -0.792075    11A     -0.690844    12A     -0.653273
      13A     -0.633059    14A     -0.586164    15A     -0.580640
      16A     -0.554513    17A     -0.544874    18A     -0.503158
      19A     -0.419414    20A     -0.390537

  @DF-RHF Final Energy:  -247.04160963511185

   => Energetics <=

    Nuclear Repulsion Energy =            180.5519500818223833
    One-Electron Energy =                -693.4058371083211796
    Two-Electron Energy =                 265.8122773913869423
    Total Energy =                       -247.0416096351118540

  Dipole Moment: [D]
     X:    -0.9618      Y:     0.4021      Z:    -4.0361     Total:     4.1685

    SAPT Results
  --------------------------------------------------------------------------------------------------------
    Electrostatics                 -0.51602008 [mEh]      -0.32380749 [kcal/mol]      -1.35481054 [kJ/mol]
      Elst10,r                     -0.63190206 [mEh]      -0.39652453 [kcal/mol]      -1.65905864 [kJ/mol]
      Elst12,r                      0.11588198 [mEh]       0.07271704 [kcal/mol]       0.30424810 [kJ/mol]

    Exchange                        0.00031074 [mEh]       0.00019499 [kcal/mol]       0.00081584 [kJ/mol]
      Exch10                        0.00029600 [mEh]       0.00018574 [kcal/mol]       0.00077714 [kJ/mol]
      Exch10(S^2)                   0.00029600 [mEh]       0.00018574 [kcal/mol]       0.00077714 [kJ/mol]
      Exch11(S^2)                  -0.00000601 [mEh]      -0.00000377 [kcal/mol]      -0.00001577 [kJ/mol]
      Exch12(S^2)                   0.00002074 [mEh]       0.00001302 [kcal/mol]       0.00005447 [kJ/mol]

    Induction                      -0.02615813 [mEh]      -0.01641447 [kcal/mol]      -0.06867815 [kJ/mol]
      Ind20,r                      -0.03127334 [mEh]      -0.01962432 [kcal/mol]      -0.08210814 [kJ/mol]
      Ind22                         0.00555355 [mEh]       0.00348490 [kcal/mol]       0.01458084 [kJ/mol]
      Exch-Ind20,r                  0.00011176 [mEh]       0.00007013 [kcal/mol]       0.00029343 [kJ/mol]
      Exch-Ind22                   -0.00001985 [mEh]      -0.00001245 [kcal/mol]      -0.00005211 [kJ/mol]
      delta HF,r (2)               -0.00053025 [mEh]      -0.00033273 [kcal/mol]      -0.00139216 [kJ/mol]

    Dispersion                     -0.22969714 [mEh]      -0.14413713 [kcal/mol]      -0.60306977 [kJ/mol]
      Disp20                       -0.25039077 [mEh]      -0.15712258 [kcal/mol]      -0.65740088 [kJ/mol]
      Disp21                        0.07210069 [mEh]       0.04524386 [kcal/mol]       0.18930032 [kJ/mol]
      Disp22 (SDQ)                 -0.00125169 [mEh]      -0.00078545 [kcal/mol]      -0.00328631 [kJ/mol]
      Disp22 (T)                   -0.04984941 [mEh]      -0.03128098 [kcal/mol]      -0.13087960 [kJ/mol]
      Est. Disp22 (T)              -0.05023653 [mEh]      -0.03152390 [kcal/mol]      -0.13189600 [kJ/mol]
      Exch-Disp20                   0.00008117 [mEh]       0.00005093 [kcal/mol]       0.00021310 [kJ/mol]

  Total HF                         -0.66329789 [mEh]      -0.41622571 [kcal/mol]      -1.74148837 [kJ/mol]
  Total SAPT0                      -0.91360750 [mEh]      -0.57329736 [kcal/mol]      -2.39867615 [kJ/mol]
  Total SAPT2                      -0.79217708 [mEh]      -0.49709862 [kcal/mol]      -2.07986064 [kJ/mol]
  Total SAPT2+                     -0.77156462 [mEh]      -0.48416411 [kcal/mol]      -2.02574263 [kJ/mol]

  Special recipe for scaled SAPT0 (see Manual):
    Electrostatics sSAPT0          -0.63190206 [mEh]      -0.39652453 [kcal/mol]      -1.65905864 [kJ/mol]
    Exchange sSAPT0                 0.00029600 [mEh]       0.00018574 [kcal/mol]       0.00077714 [kJ/mol]
    Induction sSAPT0               -0.03169183 [mEh]      -0.01988692 [kcal/mol]      -0.08320688 [kJ/mol]
    Dispersion sSAPT0              -0.25030961 [mEh]      -0.15707165 [kcal/mol]      -0.65718778 [kJ/mol]
  Total sSAPT0                     -0.91360750 [mEh]      -0.57329736 [kcal/mol]      -2.39867615 [kJ/mol]
  --------------------------------------------------------------------------------------------------------

*** Psi4 exiting successfully. Buy a developer a beer!
