                               Psi4 1.4a2.dev224

  ==> Input File <==

--------------------------------------------------------------------------
#Generated by lconvert.py for sapt job

memory 20 GB

molecule  {
0 1
  C       0.408780    1.051030    0.375540
  H       1.011940    1.948550    0.368080
  C       1.019170   -0.199770    0.289050
  H       2.095570   -0.271830    0.217190
  C       0.241720   -1.356880    0.296690
  H       0.715220   -2.326590    0.228070
  C      -1.146180   -1.264260    0.393900
  H      -1.749180   -2.161930    0.399410
  C      -1.757280   -0.013960    0.482950
  H      -2.833510    0.058240    0.559040
  C      -0.979690    1.144210    0.472280
  H      -1.454050    2.114000    0.537140
--
0 1
  C       0.264780    2.001210    5.290020
  H      -0.093360    2.166950    4.276730
  H       1.289370    2.357920    5.371460
  H      -0.339310    2.574850    5.988370
  C       0.227940    0.548050    5.705730
  O       0.512570    0.195690    6.844270
  N      -0.144460   -0.317670    4.726490
  H      -0.305580    0.040320    3.800420
  C      -0.181250   -1.744550    4.944580
  H      -0.103160   -1.911450    6.014570
  H      -1.116490   -2.162890    4.577840
  H       0.647880   -2.248420    4.447240
units angstrom
no_reorient
symmetry c1
}

set {
scf_type DF
basis aug-cc-pvdz
freeze_core True
guess SAD
}
energy('sapt2+')
--------------------------------------------------------------------------

  //              Dimer HF             //
    Molecular point group: c1
  Charge       = 0
  Multiplicity = 1
  Basis Set: AUG-CC-PVDZ
    Blend: AUG-CC-PVDZ
  Basis Set: (AUG-CC-PVDZ AUX)
    Blend: AUG-CC-PVDZ-JKFIT
  @DF-RHF Final Energy:  -477.77243600707527
    Total Energy =                       -477.7724360070752709
  //            Monomer A HF           //
    Molecular point group: c1
  Multiplicity = 1
  Basis Set: AUG-CC-PVDZ
    Blend: AUG-CC-PVDZ
  Basis Set: (AUG-CC-PVDZ AUX)
    Blend: AUG-CC-PVDZ-JKFIT
  @DF-RHF Final Energy:  -230.72836071567104
    Total Energy =                       -230.7283607156710445
  //            Monomer B HF           //
    Molecular point group: c1

    Geometry (in Angstrom), charge = 0, multiplicity = 1:

       Center              X                  Y                   Z               Mass
    ------------   -----------------  -----------------  -----------------  -----------------
      Gh(C)           0.533867178956     1.045459115945    -2.481786332228    12.000000000000
      Gh(H)           1.137027178956     1.942979115945    -2.489246332228     1.007825032230
      Gh(C)           1.144257178956    -0.205340884055    -2.568276332228    12.000000000000
      Gh(H)           2.220657178956    -0.277400884055    -2.640136332228     1.007825032230
      Gh(C)           0.366807178956    -1.362450884055    -2.560636332228    12.000000000000
      Gh(H)           0.840307178956    -2.332160884055    -2.629256332228     1.007825032230
      Gh(C)          -1.021092821044    -1.269830884055    -2.463426332228    12.000000000000
      Gh(H)          -1.624092821044    -2.167500884055    -2.457916332228     1.007825032230
      Gh(C)          -1.632192821044    -0.019530884055    -2.374376332228    12.000000000000
      Gh(H)          -2.708422821044     0.052669115945    -2.298286332228     1.007825032230
      Gh(C)          -0.854602821044     1.138639115945    -2.385046332228    12.000000000000
      Gh(H)          -1.328962821044     2.108429115945    -2.320186332228     1.007825032230
         C            0.389867178956     1.995639115945     2.432693667772    12.000000000000
         H            0.031727178956     2.161379115945     1.419403667772     1.007825032230
         H            1.414457178956     2.352349115945     2.514133667772     1.007825032230
         H           -0.214222821044     2.569279115945     3.131043667772     1.007825032230
         C            0.353027178956     0.542479115945     2.848403667772    12.000000000000
         O            0.637657178956     0.190119115945     3.986943667772    15.994914619570
         N           -0.019372821044    -0.323240884055     1.869163667772    14.003074004430
         H           -0.180492821044     0.034749115945     0.943093667772     1.007825032230
         C           -0.056162821044    -1.750120884055     2.087253667772    12.000000000000
         H            0.021927178956    -1.917020884055     3.157243667772     1.007825032230
         H           -0.991402821044    -2.168460884055     1.720513667772     1.007825032230
         H            0.772967178956    -2.253990884055     1.589913667772     1.007825032230

  Charge       = 0
  Multiplicity = 1
  Basis Set: AUG-CC-PVDZ
    Blend: AUG-CC-PVDZ
  Basis Set: (AUG-CC-PVDZ AUX)
    Blend: AUG-CC-PVDZ-JKFIT

    Orbital Energies [Eh]
    ---------------------

    Doubly Occupied:

       1A    -20.521201     2A    -15.594458     3A    -11.355707
       4A    -11.263104     5A    -11.241698     6A     -1.377795
       7A     -1.234437     8A     -1.020004     9A     -0.933417
      10A     -0.792077    11A     -0.690841    12A     -0.653269
      13A     -0.633050    14A     -0.586154    15A     -0.580634
      16A     -0.554508    17A     -0.544881    18A     -0.503153
      19A     -0.419412    20A     -0.390533

  @DF-RHF Final Energy:  -247.04175652161041

   => Energetics <=

    Nuclear Repulsion Energy =            180.5517580938571314
    One-Electron Energy =                -693.4063684034703101
    Two-Electron Energy =                 265.8128537880028261
    Total Energy =                       -247.0417565216104094

  Dipole Moment: [D]
     X:    -0.9623      Y:     0.4018      Z:    -4.0377     Total:     4.1701

    SAPT Results
  --------------------------------------------------------------------------------------------------------
    Electrostatics                 -1.95071444 [mEh]      -1.22409179 [kcal/mol]      -5.12160007 [kJ/mol]
      Elst10,r                     -2.32708002 [mEh]      -1.46026476 [kcal/mol]      -6.10974776 [kJ/mol]
      Elst12,r                      0.37636558 [mEh]       0.23617297 [kcal/mol]       0.98814769 [kJ/mol]

    Exchange                        0.44956099 [mEh]       0.28210378 [kcal/mol]       1.18032222 [kJ/mol]
      Exch10                        0.38810134 [mEh]       0.24353727 [kcal/mol]       1.01895992 [kJ/mol]
      Exch10(S^2)                   0.38806195 [mEh]       0.24351255 [kcal/mol]       1.01885652 [kJ/mol]
      Exch11(S^2)                   0.00477455 [mEh]       0.00299607 [kcal/mol]       0.01253557 [kJ/mol]
      Exch12(S^2)                   0.05668511 [mEh]       0.03557044 [kcal/mol]       0.14882673 [kJ/mol]

    Induction                      -0.35443892 [mEh]      -0.22241378 [kcal/mol]      -0.93057926 [kJ/mol]
      Ind20,r                      -0.37996903 [mEh]      -0.23843416 [kcal/mol]      -0.99760854 [kJ/mol]
      Ind22                         0.03086719 [mEh]       0.01936945 [kcal/mol]       0.08104179 [kJ/mol]
      Exch-Ind20,r                  0.06788856 [mEh]       0.04260071 [kcal/mol]       0.17824138 [kJ/mol]
      Exch-Ind22                   -0.00551500 [mEh]      -0.00346071 [kcal/mol]      -0.01447963 [kJ/mol]
      delta HF,r (2)               -0.06771064 [mEh]      -0.04248907 [kcal/mol]      -0.17777426 [kJ/mol]

    Dispersion                     -2.44945556 [mEh]      -1.53705657 [kcal/mol]      -6.43104467 [kJ/mol]
      Disp20                       -2.63315080 [mEh]      -1.65232707 [kcal/mol]      -6.91333648 [kJ/mol]
      Disp21                        0.61711063 [mEh]       0.38724277 [kcal/mol]       1.62022373 [kJ/mol]
      Disp22 (SDQ)                  0.01608739 [mEh]       0.01009499 [kcal/mol]       0.04223743 [kJ/mol]
      Disp22 (T)                   -0.49442298 [mEh]      -0.31025511 [kcal/mol]      -1.29810737 [kJ/mol]
      Est. Disp22 (T)              -0.51430421 [mEh]      -0.32273077 [kcal/mol]      -1.35030553 [kJ/mol]
      Exch-Disp20                   0.06480145 [mEh]       0.04066352 [kcal/mol]       0.17013617 [kJ/mol]

  Total HF                         -2.31876979 [mEh]      -1.45505001 [kcal/mol]      -6.08792925 [kJ/mol]
  Total SAPT0                      -4.88711915 [mEh]      -3.06671357 [kcal/mol]     -12.83112956 [kJ/mol]
  Total SAPT2                      -4.42394173 [mEh]      -2.77606535 [kcal/mol]     -11.61505741 [kJ/mol]
  Total SAPT2+                     -4.30504793 [mEh]      -2.70145836 [kcal/mol]     -11.30290178 [kJ/mol]

  Special recipe for scaled SAPT0 (see Manual):
    Electrostatics sSAPT0          -2.32708002 [mEh]      -1.46026476 [kcal/mol]      -6.10974776 [kJ/mol]
    Exchange sSAPT0                 0.38810134 [mEh]       0.24353727 [kcal/mol]       1.01895992 [kJ/mol]
    Induction sSAPT0               -0.37977044 [mEh]      -0.23830955 [kcal/mol]      -0.99708714 [kJ/mol]
    Dispersion sSAPT0              -2.56832963 [mEh]      -1.61165117 [kcal/mol]      -6.74314850 [kJ/mol]
  Total sSAPT0                     -4.88707875 [mEh]      -3.06668821 [kcal/mol]     -12.83102348 [kJ/mol]
  --------------------------------------------------------------------------------------------------------

*** Psi4 exiting successfully. Buy a developer a beer!
