                               Psi4 1.4a2.dev224

  ==> Input File <==

--------------------------------------------------------------------------
#Generated by lconvert.py for sapt job

memory 20 GB

molecule  {
0 1
  N      -0.941210    0.790040    0.011720
  C      -0.922750   -0.552380    0.035380
  H       0.057240   -1.015590    0.051350
  C      -2.076520   -1.333020    0.039290
  H      -1.996530   -2.410590    0.058880
  C      -3.316310   -0.703340    0.017600
  H      -4.231580   -1.279080    0.019790
  C      -3.348900    0.687020   -0.007090
  H      -4.285440    1.226110   -0.024660
  C      -2.143100    1.382630   -0.008890
  H      -2.138100    2.465650   -0.027780
--
0 1
  N       4.079710   -0.909060    0.037790
  C       5.281490   -1.502230    0.039870
  H       5.276260   -2.585200    0.061760
  C       6.487420   -0.807270    0.015870
  H       7.423860   -1.346810    0.018960
  C       6.455110    0.583030   -0.011880
  H       7.370480    1.158280   -0.031060
  C       5.215430    1.213320   -0.014360
  H       5.135650    2.290880   -0.035450
  C       4.061510    0.433310    0.010840
  H       3.081600    0.896970    0.009170
units angstrom
no_reorient
symmetry c1
}

set {
scf_type DF
basis aug-cc-pvdz
freeze_core True
guess SAD
}
energy('sapt2+')
--------------------------------------------------------------------------

  //              Dimer HF             //
    Molecular point group: c1
  Charge       = 0
  Multiplicity = 1
  Basis Set: AUG-CC-PVDZ
    Blend: AUG-CC-PVDZ
  Basis Set: (AUG-CC-PVDZ AUX)
    Blend: AUG-CC-PVDZ-JKFIT
  @DF-RHF Final Energy:  -493.44887951162900
    Total Energy =                       -493.4488795116290021
  //            Monomer A HF           //
    Molecular point group: c1
  Multiplicity = 1
  Basis Set: AUG-CC-PVDZ
    Blend: AUG-CC-PVDZ
  Basis Set: (AUG-CC-PVDZ AUX)
    Blend: AUG-CC-PVDZ-JKFIT
  @DF-RHF Final Energy:  -246.72389292512815
    Total Energy =                       -246.7238929251281547
  //            Monomer B HF           //
    Molecular point group: c1

    Geometry (in Angstrom), charge = 0, multiplicity = 1:

       Center              X                  Y                   Z               Mass
    ------------   -----------------  -----------------  -----------------  -----------------
      Gh(N)          -2.510532792481     0.849868016779    -0.002162471847    14.003074004430
      Gh(C)          -2.492072792481    -0.492551983221     0.021497528153    12.000000000000
      Gh(H)          -1.512082792481    -0.955761983221     0.037467528153     1.007825032230
      Gh(C)          -3.645842792481    -1.273191983221     0.025407528153    12.000000000000
      Gh(H)          -3.565852792481    -2.350761983221     0.044997528153     1.007825032230
      Gh(C)          -4.885632792481    -0.643511983221     0.003717528153    12.000000000000
      Gh(H)          -5.800902792481    -1.219251983221     0.005907528153     1.007825032230
      Gh(C)          -4.918222792481     0.746848016779    -0.020972471847    12.000000000000
      Gh(H)          -5.854762792481     1.285938016779    -0.038542471847     1.007825032230
      Gh(C)          -3.712422792481     1.442458016779    -0.022772471847    12.000000000000
      Gh(H)          -3.707422792481     2.525478016779    -0.041662471847     1.007825032230
         N            2.510387207519    -0.849231983221     0.023907528153    14.003074004430
         C            3.712167207519    -1.442401983221     0.025987528153    12.000000000000
         H            3.706937207519    -2.525371983221     0.047877528153     1.007825032230
         C            4.918097207519    -0.747441983221     0.001987528153    12.000000000000
         H            5.854537207519    -1.286981983221     0.005077528153     1.007825032230
         C            4.885787207519     0.642858016779    -0.025762471847    12.000000000000
         H            5.801157207519     1.218108016779    -0.044942471847     1.007825032230
         C            3.646107207519     1.273148016779    -0.028242471847    12.000000000000
         H            3.566327207519     2.350708016779    -0.049332471847     1.007825032230
         C            2.492187207519     0.493138016779    -0.003042471847    12.000000000000
         H            1.512277207519     0.956798016779    -0.004712471847     1.007825032230

  Charge       = 0
  Multiplicity = 1
  Basis Set: AUG-CC-PVDZ
    Blend: AUG-CC-PVDZ
  Basis Set: (AUG-CC-PVDZ AUX)
    Blend: AUG-CC-PVDZ-JKFIT

    Orbital Energies [Eh]
    ---------------------

    Doubly Occupied:

       1A    -15.575877     2A    -11.282574     3A    -11.281888
       4A    -11.266701     5A    -11.248883     6A    -11.248822
       7A     -1.259377     8A     -1.092681     9A     -1.036662
      10A     -0.861492    11A     -0.857910    12A     -0.722923
      13A     -0.661517    14A     -0.655334    15A     -0.599431
      16A     -0.577891    17A     -0.540676    18A     -0.520553
      19A     -0.418975    20A     -0.383520    21A     -0.347903

  @DF-RHF Final Energy:  -246.72389263405591

   => Energetics <=

    Nuclear Repulsion Energy =            206.1684955603329570
    One-Electron Energy =                -740.9015968988026088
    Two-Electron Energy =                 288.0092087044137088
    Total Energy =                       -246.7238926340559146

  Dipole Moment: [D]
     X:     1.9771      Y:     1.2487      Z:    -0.0418     Total:     2.3388

    SAPT Results
  --------------------------------------------------------------------------------------------------------
    Electrostatics                 -0.89369423 [mEh]      -0.56080159 [kcal/mol]      -2.34639387 [kJ/mol]
      Elst10,r                     -1.03253415 [mEh]      -0.64792496 [kcal/mol]      -2.71091804 [kJ/mol]
      Elst12,r                      0.13883992 [mEh]       0.08712337 [kcal/mol]       0.36452417 [kJ/mol]

    Exchange                        0.05063891 [mEh]       0.03177639 [kcal/mol]       0.13295243 [kJ/mol]
      Exch10                        0.03460942 [mEh]       0.02171774 [kcal/mol]       0.09086702 [kJ/mol]
      Exch10(S^2)                   0.03460935 [mEh]       0.02171770 [kcal/mol]       0.09086684 [kJ/mol]
      Exch11(S^2)                  -0.00320387 [mEh]      -0.00201046 [kcal/mol]      -0.00841177 [kJ/mol]
      Exch12(S^2)                   0.01923336 [mEh]       0.01206912 [kcal/mol]       0.05049718 [kJ/mol]

    Induction                      -0.09784246 [mEh]      -0.06139707 [kcal/mol]      -0.25688536 [kJ/mol]
      Ind20,r                      -0.09701827 [mEh]      -0.06087988 [kcal/mol]      -0.25472143 [kJ/mol]
      Ind22                        -0.00187478 [mEh]      -0.00117644 [kcal/mol]      -0.00492224 [kJ/mol]
      Exch-Ind20,r                  0.00310652 [mEh]       0.00194937 [kcal/mol]       0.00815616 [kJ/mol]
      Exch-Ind22                    0.00006003 [mEh]       0.00003767 [kcal/mol]       0.00015761 [kJ/mol]
      delta HF,r (2)               -0.00211596 [mEh]      -0.00132779 [kcal/mol]      -0.00555546 [kJ/mol]

    Dispersion                     -0.72781972 [mEh]      -0.45671377 [kcal/mol]      -1.91089041 [kJ/mol]
      Disp20                       -0.71251359 [mEh]      -0.44710903 [kcal/mol]      -1.87070417 [kJ/mol]
      Disp21                        0.17872884 [mEh]       0.11215404 [kcal/mol]       0.46925250 [kJ/mol]
      Disp22 (SDQ)                 -0.03015891 [mEh]      -0.01892500 [kcal/mol]      -0.07918221 [kJ/mol]
      Disp22 (T)                   -0.16529974 [mEh]      -0.10372715 [kcal/mol]      -0.43399440 [kJ/mol]
      Est. Disp22 (T)              -0.16950564 [mEh]      -0.10636640 [kcal/mol]      -0.44503701 [kJ/mol]
      Exch-Disp20                   0.00562959 [mEh]       0.00353262 [kcal/mol]       0.01478048 [kJ/mol]

  Total HF                         -1.09395244 [mEh]      -0.68646552 [kcal/mol]      -2.87217175 [kJ/mol]
  Total SAPT0                      -1.80083645 [mEh]      -1.13004193 [kcal/mol]      -4.72809544 [kJ/mol]
  Total SAPT2                      -1.64778179 [mEh]      -1.03399868 [kcal/mol]      -4.32625049 [kJ/mol]
  Total SAPT2+                     -1.66871751 [mEh]      -1.04713605 [kcal/mol]      -4.38121721 [kJ/mol]

  Special recipe for scaled SAPT0 (see Manual):
    Electrostatics sSAPT0          -1.03253415 [mEh]      -0.64792496 [kcal/mol]      -2.71091804 [kJ/mol]
    Exchange sSAPT0                 0.03460942 [mEh]       0.02171774 [kcal/mol]       0.09086702 [kJ/mol]
    Induction sSAPT0               -0.09602770 [mEh]      -0.06025829 [kcal/mol]      -0.25212068 [kJ/mol]
    Dispersion sSAPT0              -0.70688397 [mEh]      -0.44357639 [kcal/mol]      -1.85592361 [kJ/mol]
  Total sSAPT0                     -1.80083640 [mEh]      -1.13004190 [kcal/mol]      -4.72809531 [kJ/mol]
  --------------------------------------------------------------------------------------------------------

*** Psi4 exiting successfully. Buy a developer a beer!
