                               Psi4 1.4a2.dev224

  ==> Input File <==

--------------------------------------------------------------------------
#Generated by lconvert.py for sapt job

memory 20 GB

molecule  {
0 1
  N      -0.941210    0.790040    0.011720
  C      -0.922750   -0.552380    0.035380
  H       0.057240   -1.015590    0.051350
  C      -2.076520   -1.333020    0.039290
  H      -1.996530   -2.410590    0.058880
  C      -3.316310   -0.703340    0.017600
  H      -4.231580   -1.279080    0.019790
  C      -3.348900    0.687020   -0.007090
  H      -4.285440    1.226110   -0.024660
  C      -2.143100    1.382630   -0.008890
  H      -2.138100    2.465650   -0.027780
--
0 1
  N       3.363930   -0.928010    0.040340
  C       4.565710   -1.521180    0.042420
  H       4.560480   -2.604150    0.064310
  C       5.771640   -0.826220    0.018420
  H       6.708080   -1.365760    0.021510
  C       5.739320    0.564080   -0.009330
  H       6.654700    1.139330   -0.028510
  C       4.499640    1.194370   -0.011800
  H       4.419870    2.271920   -0.032890
  C       3.345730    0.414360    0.013390
  H       2.365820    0.878020    0.011730
units angstrom
no_reorient
symmetry c1
}

set {
scf_type DF
basis aug-cc-pvdz
freeze_core True
guess SAD
}
energy('sapt2+')
--------------------------------------------------------------------------

  //              Dimer HF             //
    Molecular point group: c1
  Charge       = 0
  Multiplicity = 1
  Basis Set: AUG-CC-PVDZ
    Blend: AUG-CC-PVDZ
  Basis Set: (AUG-CC-PVDZ AUX)
    Blend: AUG-CC-PVDZ-JKFIT
  @DF-RHF Final Energy:  -493.45004201381556
    Total Energy =                       -493.4500420138156187
  //            Monomer A HF           //
    Molecular point group: c1
  Multiplicity = 1
  Basis Set: AUG-CC-PVDZ
    Blend: AUG-CC-PVDZ
  Basis Set: (AUG-CC-PVDZ AUX)
    Blend: AUG-CC-PVDZ-JKFIT
  @DF-RHF Final Energy:  -246.72397184029705
    Total Energy =                       -246.7239718402970539
  //            Monomer B HF           //
    Molecular point group: c1

    Geometry (in Angstrom), charge = 0, multiplicity = 1:

       Center              X                  Y                   Z               Mass
    ------------   -----------------  -----------------  -----------------  -----------------
      Gh(N)          -2.152641274304     0.859343080531    -0.003438358439    14.003074004430
      Gh(C)          -2.134181274304    -0.483076919469     0.020221641561    12.000000000000
      Gh(H)          -1.154191274304    -0.946286919469     0.036191641561     1.007825032230
      Gh(C)          -3.287951274304    -1.263716919469     0.024131641561    12.000000000000
      Gh(H)          -3.207961274304    -2.341286919469     0.043721641561     1.007825032230
      Gh(C)          -4.527741274304    -0.634036919469     0.002441641561    12.000000000000
      Gh(H)          -5.443011274304    -1.209776919469     0.004631641561     1.007825032230
      Gh(C)          -4.560331274304     0.756323080531    -0.022248358439    12.000000000000
      Gh(H)          -5.496871274304     1.295413080531    -0.039818358439     1.007825032230
      Gh(C)          -3.354531274304     1.451933080531    -0.024048358439    12.000000000000
      Gh(H)          -3.349531274304     2.534953080531    -0.042938358439     1.007825032230
         N            2.152498725696    -0.858706919469     0.025181641561    14.003074004430
         C            3.354278725696    -1.451876919469     0.027261641561    12.000000000000
         H            3.349048725696    -2.534846919469     0.049151641561     1.007825032230
         C            4.560208725696    -0.756916919469     0.003261641561    12.000000000000
         H            5.496648725696    -1.296456919469     0.006351641561     1.007825032230
         C            4.527888725696     0.633383080531    -0.024488358439    12.000000000000
         H            5.443268725696     1.208633080531    -0.043668358439     1.007825032230
         C            3.288208725696     1.263673080531    -0.026958358439    12.000000000000
         H            3.208438725696     2.341223080531    -0.048048358439     1.007825032230
         C            2.134298725696     0.483663080531    -0.001768358439    12.000000000000
         H            1.154388725696     0.947323080531    -0.003428358439     1.007825032230

  Charge       = 0
  Multiplicity = 1
  Basis Set: AUG-CC-PVDZ
    Blend: AUG-CC-PVDZ
  Basis Set: (AUG-CC-PVDZ AUX)
    Blend: AUG-CC-PVDZ-JKFIT

    Orbital Energies [Eh]
    ---------------------

    Doubly Occupied:

       1A    -15.575877     2A    -11.282519     3A    -11.281854
       4A    -11.266701     5A    -11.248863     6A    -11.248805
       7A     -1.259372     8A     -1.092682     9A     -1.036661
      10A     -0.861494    11A     -0.857908    12A     -0.722924
      13A     -0.661518    14A     -0.655336    15A     -0.599434
      16A     -0.577885    17A     -0.540677    18A     -0.520550
      19A     -0.418972    20A     -0.383519    21A     -0.347904

  @DF-RHF Final Energy:  -246.72397171118934

   => Energetics <=

    Nuclear Repulsion Energy =            206.1686813779653562
    One-Electron Energy =                -740.9023956807504874
    Two-Electron Energy =                 288.0097425915957388
    Total Energy =                       -246.7239717111893356

  Dipole Moment: [D]
     X:     1.9768      Y:     1.2486      Z:    -0.0418     Total:     2.3385

    SAPT Results
  --------------------------------------------------------------------------------------------------------
    Electrostatics                 -2.03070645 [mEh]      -1.27428753 [kcal/mol]      -5.33161904 [kJ/mol]
      Elst10,r                     -2.22806748 [mEh]      -1.39813345 [kcal/mol]      -5.84979037 [kJ/mol]
      Elst12,r                      0.19736103 [mEh]       0.12384592 [kcal/mol]       0.51817132 [kJ/mol]

    Exchange                        0.58816134 [mEh]       0.36907681 [kcal/mol]       1.54421738 [kJ/mol]
      Exch10                        0.44333119 [mEh]       0.27819452 [kcal/mol]       1.16396588 [kJ/mol]
      Exch10(S^2)                   0.44328796 [mEh]       0.27816739 [kcal/mol]       1.16385237 [kJ/mol]
      Exch11(S^2)                  -0.02435871 [mEh]      -0.01528532 [kcal/mol]      -0.06395380 [kJ/mol]
      Exch12(S^2)                   0.16918886 [mEh]       0.10616761 [kcal/mol]       0.44420530 [kJ/mol]

    Induction                      -0.33419133 [mEh]      -0.20970822 [kcal/mol]      -0.87741921 [kJ/mol]
      Ind20,r                      -0.31716365 [mEh]      -0.19902319 [kcal/mol]      -0.83271305 [kJ/mol]
      Ind22                        -0.02377985 [mEh]      -0.01492208 [kcal/mol]      -0.06243398 [kJ/mol]
      Exch-Ind20,r                  0.04420794 [mEh]       0.02774090 [kcal/mol]       0.11606792 [kJ/mol]
      Exch-Ind22                    0.00331456 [mEh]       0.00207992 [kcal/mol]       0.00870238 [kJ/mol]
      delta HF,r (2)               -0.04077033 [mEh]      -0.02558377 [kcal/mol]      -0.10704248 [kJ/mol]

    Dispersion                     -1.82378239 [mEh]      -1.14444072 [kcal/mol]      -4.78833999 [kJ/mol]
      Disp20                       -1.76983791 [mEh]      -1.11059006 [kcal/mol]      -4.64670880 [kJ/mol]
      Disp21                        0.35666856 [mEh]       0.22381290 [kcal/mol]       0.93643317 [kJ/mol]
      Disp22 (SDQ)                 -0.06815123 [mEh]      -0.04276554 [kcal/mol]      -0.17893103 [kJ/mol]
      Disp22 (T)                   -0.38194135 [mEh]      -0.23967181 [kcal/mol]      -1.00278687 [kJ/mol]
      Est. Disp22 (T)              -0.39890670 [mEh]      -0.25031774 [kcal/mol]      -1.04732941 [kJ/mol]
      Exch-Disp20                   0.05644490 [mEh]       0.03541971 [kcal/mol]       0.14819608 [kJ/mol]

  Total HF                         -2.09846233 [mEh]      -1.31680499 [kcal/mol]      -5.50951209 [kJ/mol]
  Total SAPT0                      -3.81185534 [mEh]      -2.39197534 [kcal/mol]     -10.00802481 [kJ/mol]
  Total SAPT2                      -3.49012944 [mEh]      -2.19008929 [kcal/mol]      -9.16333359 [kJ/mol]
  Total SAPT2+                     -3.60051882 [mEh]      -2.25935967 [kcal/mol]      -9.45316086 [kJ/mol]

  Special recipe for scaled SAPT0 (see Manual):
    Electrostatics sSAPT0          -2.22806748 [mEh]      -1.39813345 [kcal/mol]      -5.84979037 [kJ/mol]
    Exchange sSAPT0                 0.44333119 [mEh]       0.27819452 [kcal/mol]       1.16396588 [kJ/mol]
    Induction sSAPT0               -0.31371310 [mEh]      -0.19685794 [kcal/mol]      -0.82365363 [kJ/mol]
    Dispersion sSAPT0              -1.71337649 [mEh]      -1.07515998 [kcal/mol]      -4.49846936 [kJ/mol]
  Total sSAPT0                     -3.81182588 [mEh]      -2.39195685 [kcal/mol]     -10.00794748 [kJ/mol]
  --------------------------------------------------------------------------------------------------------

*** Psi4 exiting successfully. Buy a developer a beer!
