                               Psi4 1.4a2.dev224

  ==> Input File <==

--------------------------------------------------------------------------
#Generated by lconvert.py for sapt job

memory 20 GB

molecule  {
0 1
  N      -0.941210    0.790040    0.011720
  C      -0.922750   -0.552380    0.035380
  H       0.057240   -1.015590    0.051350
  C      -2.076520   -1.333020    0.039290
  H      -1.996530   -2.410590    0.058880
  C      -3.316310   -0.703340    0.017600
  H      -4.231580   -1.279080    0.019790
  C      -3.348900    0.687020   -0.007090
  H      -4.285440    1.226110   -0.024660
  C      -2.143100    1.382630   -0.008890
  H      -2.138100    2.465650   -0.027780
--
0 1
  N       4.795490   -0.890110    0.035240
  C       5.997270   -1.483280    0.037320
  H       5.992050   -2.566240    0.059200
  C       7.203200   -0.788320    0.013310
  H       8.139640   -1.327860    0.016410
  C       7.170890    0.601980   -0.014430
  H       8.086260    1.177230   -0.033610
  C       5.931210    1.232270   -0.016910
  H       5.851440    2.309830   -0.038000
  C       4.777290    0.452260    0.008280
  H       3.797380    0.915920    0.006620
units angstrom
no_reorient
symmetry c1
}

set {
scf_type DF
basis aug-cc-pvdz
freeze_core True
guess SAD
}
energy('sapt2+')
--------------------------------------------------------------------------

  //              Dimer HF             //
    Molecular point group: c1
  Charge       = 0
  Multiplicity = 1
  Basis Set: AUG-CC-PVDZ
    Blend: AUG-CC-PVDZ
  Basis Set: (AUG-CC-PVDZ AUX)
    Blend: AUG-CC-PVDZ-JKFIT
  @DF-RHF Final Energy:  -493.44826127526028
    Total Energy =                       -493.4482612752602790
  //            Monomer A HF           //
    Molecular point group: c1
  Multiplicity = 1
  Basis Set: AUG-CC-PVDZ
    Blend: AUG-CC-PVDZ
  Basis Set: (AUG-CC-PVDZ AUX)
    Blend: AUG-CC-PVDZ-JKFIT
  @DF-RHF Final Energy:  -246.72385026319603
    Total Energy =                       -246.7238502631960273
  //            Monomer B HF           //
    Molecular point group: c1

    Geometry (in Angstrom), charge = 0, multiplicity = 1:

       Center              X                  Y                   Z               Mass
    ------------   -----------------  -----------------  -----------------  -----------------
      Gh(N)          -2.868422919985     0.840392953026    -0.000885889918    14.003074004430
      Gh(C)          -2.849962919985    -0.502027046974     0.022774110082    12.000000000000
      Gh(H)          -1.869972919985    -0.965237046974     0.038744110082     1.007825032230
      Gh(C)          -4.003732919985    -1.282667046974     0.026684110082    12.000000000000
      Gh(H)          -3.923742919985    -2.360237046974     0.046274110082     1.007825032230
      Gh(C)          -5.243522919985    -0.652987046974     0.004994110082    12.000000000000
      Gh(H)          -6.158792919985    -1.228727046974     0.007184110082     1.007825032230
      Gh(C)          -5.276112919985     0.737372953026    -0.019695889918    12.000000000000
      Gh(H)          -6.212652919985     1.276462953026    -0.037265889918     1.007825032230
      Gh(C)          -4.070312919985     1.432982953026    -0.021495889918    12.000000000000
      Gh(H)          -4.065312919985     2.516002953026    -0.040385889918     1.007825032230
         N            2.868277080015    -0.839757046974     0.022634110082    14.003074004430
         C            4.070057080015    -1.432927046974     0.024714110082    12.000000000000
         H            4.064837080015    -2.515887046974     0.046594110082     1.007825032230
         C            5.275987080015    -0.737967046974     0.000704110082    12.000000000000
         H            6.212427080015    -1.277507046974     0.003804110082     1.007825032230
         C            5.243677080015     0.652332953026    -0.027035889918    12.000000000000
         H            6.159047080015     1.227582953026    -0.046215889918     1.007825032230
         C            4.003997080015     1.282622953026    -0.029515889918    12.000000000000
         H            3.924227080015     2.360182953026    -0.050605889918     1.007825032230
         C            2.850077080015     0.502612953026    -0.004325889918    12.000000000000
         H            1.870167080015     0.966272953026    -0.005985889918     1.007825032230

  Charge       = 0
  Multiplicity = 1
  Basis Set: AUG-CC-PVDZ
    Blend: AUG-CC-PVDZ
  Basis Set: (AUG-CC-PVDZ AUX)
    Blend: AUG-CC-PVDZ-JKFIT

    Orbital Energies [Eh]
    ---------------------

    Doubly Occupied:

       1A    -15.575876     2A    -11.282599     3A    -11.281889
       4A    -11.266702     5A    -11.248892     6A    -11.248828
       7A     -1.259378     8A     -1.092681     9A     -1.036663
      10A     -0.861491    11A     -0.857911    12A     -0.722923
      13A     -0.661514    14A     -0.655333    15A     -0.599433
      16A     -0.577892    17A     -0.540676    18A     -0.520555
      19A     -0.418975    20A     -0.383519    21A     -0.347903

  @DF-RHF Final Energy:  -246.72384999110784

   => Energetics <=

    Nuclear Repulsion Energy =            206.1685472948651636
    One-Electron Energy =                -740.9015274237310678
    Two-Electron Energy =                 288.0091301377580066
    Total Energy =                       -246.7238499911078407

  Dipole Moment: [D]
     X:     1.9773      Y:     1.2488      Z:    -0.0418     Total:     2.3391

    SAPT Results
  --------------------------------------------------------------------------------------------------------
    Electrostatics                 -0.43775833 [mEh]      -0.27469750 [kcal/mol]      -1.14933434 [kJ/mol]
      Elst10,r                     -0.52408484 [mEh]      -0.32886820 [kcal/mol]      -1.37598455 [kJ/mol]
      Elst12,r                      0.08632651 [mEh]       0.05417070 [kcal/mol]       0.22665021 [kJ/mol]

    Exchange                        0.00425898 [mEh]       0.00267255 [kcal/mol]       0.01118195 [kJ/mol]
      Exch10                        0.00265722 [mEh]       0.00166743 [kcal/mol]       0.00697652 [kJ/mol]
      Exch10(S^2)                   0.00265722 [mEh]       0.00166743 [kcal/mol]       0.00697653 [kJ/mol]
      Exch11(S^2)                  -0.00034218 [mEh]      -0.00021472 [kcal/mol]      -0.00089840 [kJ/mol]
      Exch12(S^2)                   0.00194395 [mEh]       0.00121984 [kcal/mol]       0.00510383 [kJ/mol]

    Induction                      -0.03948987 [mEh]      -0.02478027 [kcal/mol]      -0.10368063 [kJ/mol]
      Ind20,r                      -0.03997651 [mEh]      -0.02508564 [kcal/mol]      -0.10495832 [kJ/mol]
      Ind22                         0.00010415 [mEh]       0.00006535 [kcal/mol]       0.00027344 [kJ/mol]
      Exch-Ind20,r                  0.00026043 [mEh]       0.00016342 [kcal/mol]       0.00068376 [kJ/mol]
      Exch-Ind22                   -0.00000068 [mEh]      -0.00000043 [kcal/mol]      -0.00000178 [kJ/mol]
      delta HF,r (2)                0.00012275 [mEh]       0.00007703 [kcal/mol]       0.00032227 [kJ/mol]

    Dispersion                     -0.33736205 [mEh]      -0.21169788 [kcal/mol]      -0.88574394 [kJ/mol]
      Disp20                       -0.33668456 [mEh]      -0.21127275 [kcal/mol]      -0.88396520 [kJ/mol]
      Disp21                        0.09670888 [mEh]       0.06068574 [kcal/mol]       0.25390914 [kJ/mol]
      Disp22 (SDQ)                 -0.01509980 [mEh]      -0.00947527 [kcal/mol]      -0.03964451 [kJ/mol]
      Disp22 (T)                   -0.08162022 [mEh]      -0.05121746 [kcal/mol]      -0.21429387 [kJ/mol]
      Est. Disp22 (T)              -0.08281046 [mEh]      -0.05196435 [kcal/mol]      -0.21741884 [kJ/mol]
      Exch-Disp20                   0.00052389 [mEh]       0.00032875 [kcal/mol]       0.00137548 [kJ/mol]

  Total HF                         -0.56102096 [mEh]      -0.35204597 [kcal/mol]      -1.47296032 [kJ/mol]
  Total SAPT0                      -0.89718163 [mEh]      -0.56298997 [kcal/mol]      -2.35555004 [kJ/mol]
  Total SAPT2                      -0.80914989 [mEh]      -0.50774922 [kcal/mol]      -2.12442274 [kJ/mol]
  Total SAPT2+                     -0.81035127 [mEh]      -0.50850310 [kcal/mol]      -2.12757696 [kJ/mol]

  Special recipe for scaled SAPT0 (see Manual):
    Electrostatics sSAPT0          -0.52408484 [mEh]      -0.32886820 [kcal/mol]      -1.37598455 [kJ/mol]
    Exchange sSAPT0                 0.00265722 [mEh]       0.00166743 [kcal/mol]       0.00697652 [kJ/mol]
    Induction sSAPT0               -0.03959334 [mEh]      -0.02484519 [kcal/mol]      -0.10395229 [kJ/mol]
    Dispersion sSAPT0              -0.33616067 [mEh]      -0.21094401 [kcal/mol]      -0.88258972 [kJ/mol]
  Total sSAPT0                     -0.89718163 [mEh]      -0.56298997 [kcal/mol]      -2.35555004 [kJ/mol]
  --------------------------------------------------------------------------------------------------------

*** Psi4 exiting successfully. Buy a developer a beer!
