                               Psi4 1.4a2.dev224

  ==> Input File <==

--------------------------------------------------------------------------
#Generated by lconvert.py for sapt job

memory 20 GB

molecule  {
0 1
  C      -2.275350   -0.135080    0.831330
  H      -2.490720   -0.727930   -0.057570
  H      -2.226320   -0.818450    1.678820
  H      -3.112030    0.544940    0.987400
  C      -0.961700    0.619280    0.669400
  H      -0.788700    1.250430    1.544700
  H      -1.026180    1.295440   -0.186460
  C       0.226500   -0.314710    0.479990
  H       0.309440   -0.975140    1.348040
  H       0.039150   -0.966000   -0.378790
  C       1.543000    0.421180    0.269000
  H       1.711640    1.107770    1.102450
  H       1.466090    1.043740   -0.625290
  C       2.727580   -0.526860    0.137460
  H       2.588740   -1.203210   -0.705760
  H       3.661500    0.011690   -0.015970
  H       2.835190   -1.137410    1.034080
--
0 1
  C      -0.917420   -0.400410    6.342990
  O      -1.340040   -1.515590    6.145840
  O      -1.731120    0.658550    6.575580
  H      -2.631880    0.304170    6.535040
  C       0.522840    0.009250    6.360190
  H       1.148670   -0.860930    6.202040
  H       0.698880    0.743530    5.577070
  H       0.760150    0.478560    7.312000
units angstrom
no_reorient
symmetry c1
}

set {
scf_type DF
basis aug-cc-pvdz
freeze_core True
guess SAD
}
energy('sapt2+')
--------------------------------------------------------------------------

  //              Dimer HF             //
    Molecular point group: c1
  Charge       = 0
  Multiplicity = 1
  Basis Set: AUG-CC-PVDZ
    Blend: AUG-CC-PVDZ
  Basis Set: (AUG-CC-PVDZ AUX)
    Blend: AUG-CC-PVDZ-JKFIT
  @DF-RHF Final Energy:  -424.20274784931757
    Total Energy =                       -424.2027478493175749
  //            Monomer A HF           //
    Molecular point group: c1
  Multiplicity = 1
  Basis Set: AUG-CC-PVDZ
    Blend: AUG-CC-PVDZ
  Basis Set: (AUG-CC-PVDZ AUX)
    Blend: AUG-CC-PVDZ-JKFIT
  @DF-RHF Final Energy:  -196.35376792886223
    Total Energy =                       -196.3537679288622257
  //            Monomer B HF           //
    Molecular point group: c1

    Geometry (in Angstrom), charge = 0, multiplicity = 1:

       Center              X                  Y                   Z               Mass
    ------------   -----------------  -----------------  -----------------  -----------------
      Gh(C)          -2.004594370394    -0.002282331066    -2.318648290566    12.000000000000
      Gh(H)          -2.219964370394    -0.595132331066    -3.207548290566     1.007825032230
      Gh(H)          -1.955564370394    -0.685652331066    -1.471158290566     1.007825032230
      Gh(H)          -2.841274370394     0.677737668934    -2.162578290566     1.007825032230
      Gh(C)          -0.690944370394     0.752077668934    -2.480578290566    12.000000000000
      Gh(H)          -0.517944370394     1.383227668934    -1.605278290566     1.007825032230
      Gh(H)          -0.755424370394     1.428237668934    -3.336438290566     1.007825032230
      Gh(C)           0.497255629606    -0.181912331066    -2.669988290566    12.000000000000
      Gh(H)           0.580195629606    -0.842342331066    -1.801938290566     1.007825032230
      Gh(H)           0.309905629606    -0.833202331066    -3.528768290566     1.007825032230
      Gh(C)           1.813755629606     0.553977668934    -2.880978290566    12.000000000000
      Gh(H)           1.982395629606     1.240567668934    -2.047528290566     1.007825032230
      Gh(H)           1.736845629606     1.176537668934    -3.775268290566     1.007825032230
      Gh(C)           2.998335629606    -0.394062331066    -3.012518290566    12.000000000000
      Gh(H)           2.859495629606    -1.070412331066    -3.855738290566     1.007825032230
      Gh(H)           3.932255629606     0.144487668934    -3.165948290566     1.007825032230
      Gh(H)           3.105945629606    -1.004612331066    -2.115898290566     1.007825032230
         C           -0.646664370394    -0.267612331066     3.193011709434    12.000000000000
         O           -1.069284370394    -1.382792331066     2.995861709434    15.994914619570
         O           -1.460364370394     0.791347668934     3.425601709434    15.994914619570
         H           -2.361124370394     0.436967668934     3.385061709434     1.007825032230
         C            0.793595629606     0.142047668934     3.210211709434    12.000000000000
         H            1.419425629606    -0.728132331066     3.052061709434     1.007825032230
         H            0.969635629606     0.876327668934     2.427091709434     1.007825032230
         H            1.030905629606     0.611357668934     4.162021709434     1.007825032230

  Charge       = 0
  Multiplicity = 1
  Basis Set: AUG-CC-PVDZ
    Blend: AUG-CC-PVDZ
  Basis Set: (AUG-CC-PVDZ AUX)
    Blend: AUG-CC-PVDZ-JKFIT

    Orbital Energies [Eh]
    ---------------------

    Doubly Occupied:

       1A    -20.624891     2A    -20.563659     3A    -11.400431
       4A    -11.253495     5A     -1.471830     6A     -1.367742
       7A     -1.032711     8A     -0.825581     9A     -0.710407
      10A     -0.683325    11A     -0.652736    12A     -0.587553
      13A     -0.575522    14A     -0.562919    15A     -0.485289
      16A     -0.456737

  @DF-RHF Final Energy:  -227.84896361311547

   => Energetics <=

    Nuclear Repulsion Energy =            121.2397630685754706
    One-Electron Energy =                -551.6678006371428182
    Two-Electron Energy =                 202.5790739554518609
    Total Energy =                       -227.8489636131154725

  Dipole Moment: [D]
     X:     0.7920      Y:     1.8149      Z:     0.2967     Total:     2.0023

    SAPT Results
  --------------------------------------------------------------------------------------------------------
    Electrostatics                 -0.00316658 [mEh]      -0.00198706 [kcal/mol]      -0.00831385 [kJ/mol]
      Elst10,r                     -0.00374872 [mEh]      -0.00235236 [kcal/mol]      -0.00984227 [kJ/mol]
      Elst12,r                      0.00058214 [mEh]       0.00036530 [kcal/mol]       0.00152841 [kJ/mol]

    Exchange                        0.00540169 [mEh]       0.00338961 [kcal/mol]       0.01418213 [kJ/mol]
      Exch10                        0.00427451 [mEh]       0.00268229 [kcal/mol]       0.01122272 [kJ/mol]
      Exch10(S^2)                   0.00427451 [mEh]       0.00268229 [kcal/mol]       0.01122271 [kJ/mol]
      Exch11(S^2)                  -0.00011510 [mEh]      -0.00007223 [kcal/mol]      -0.00030219 [kJ/mol]
      Exch12(S^2)                   0.00124228 [mEh]       0.00077954 [kcal/mol]       0.00326161 [kJ/mol]

    Induction                      -0.01300295 [mEh]      -0.00815948 [kcal/mol]      -0.03413925 [kJ/mol]
      Ind20,r                      -0.01709749 [mEh]      -0.01072884 [kcal/mol]      -0.04488945 [kJ/mol]
      Ind22                         0.00394841 [mEh]       0.00247766 [kcal/mol]       0.01036654 [kJ/mol]
      Exch-Ind20,r                  0.00051198 [mEh]       0.00032127 [kcal/mol]       0.00134420 [kJ/mol]
      Exch-Ind22                   -0.00011823 [mEh]      -0.00007419 [kcal/mol]      -0.00031042 [kJ/mol]
      delta HF,r (2)               -0.00024761 [mEh]      -0.00015538 [kcal/mol]      -0.00065011 [kJ/mol]

    Dispersion                     -0.47894620 [mEh]      -0.30054328 [kcal/mol]      -1.25747306 [kJ/mol]
      Disp20                       -0.47905763 [mEh]      -0.30061320 [kcal/mol]      -1.25776563 [kJ/mol]
      Disp21                        0.08191729 [mEh]       0.05140388 [kcal/mol]       0.21507382 [kJ/mol]
      Disp22 (SDQ)                 -0.00401414 [mEh]      -0.00251891 [kcal/mol]      -0.01053913 [kJ/mol]
      Disp22 (T)                   -0.07735925 [mEh]      -0.04854366 [kcal/mol]      -0.20310669 [kJ/mol]
      Est. Disp22 (T)              -0.07859930 [mEh]      -0.04932181 [kcal/mol]      -0.20636244 [kJ/mol]
      Exch-Disp20                   0.00080758 [mEh]       0.00050677 [kcal/mol]       0.00212031 [kJ/mol]

  Total HF                         -0.01630734 [mEh]      -0.01023301 [kcal/mol]      -0.04281491 [kJ/mol]
  Total SAPT0                      -0.49455738 [mEh]      -0.31033944 [kcal/mol]      -1.29846023 [kJ/mol]
  Total SAPT2                      -0.48901789 [mEh]      -0.30686336 [kcal/mol]      -1.28391628 [kJ/mol]
  Total SAPT2+                     -0.48971404 [mEh]      -0.30730020 [kcal/mol]      -1.28574403 [kJ/mol]

  Special recipe for scaled SAPT0 (see Manual):
    Electrostatics sSAPT0          -0.00374872 [mEh]      -0.00235236 [kcal/mol]      -0.00984227 [kJ/mol]
    Exchange sSAPT0                 0.00427451 [mEh]       0.00268229 [kcal/mol]       0.01122272 [kJ/mol]
    Induction sSAPT0               -0.01683313 [mEh]      -0.01056295 [kcal/mol]      -0.04419537 [kJ/mol]
    Dispersion sSAPT0              -0.47825004 [mEh]      -0.30010643 [kcal/mol]      -1.25564531 [kJ/mol]
  Total sSAPT0                     -0.49455738 [mEh]      -0.31033944 [kcal/mol]      -1.29846023 [kJ/mol]
  --------------------------------------------------------------------------------------------------------

*** Psi4 exiting successfully. Buy a developer a beer!
