                               Psi4 1.4a2.dev224

  ==> Input File <==

--------------------------------------------------------------------------
#Generated by lconvert.py for sapt job

memory 20 GB

molecule  {
0 1
  C      -2.275350   -0.135080    0.831330
  H      -2.490720   -0.727930   -0.057570
  H      -2.226320   -0.818450    1.678820
  H      -3.112030    0.544940    0.987400
  C      -0.961700    0.619280    0.669400
  H      -0.788700    1.250430    1.544700
  H      -1.026180    1.295440   -0.186460
  C       0.226500   -0.314710    0.479990
  H       0.309440   -0.975140    1.348040
  H       0.039150   -0.966000   -0.378790
  C       1.543000    0.421180    0.269000
  H       1.711640    1.107770    1.102450
  H       1.466090    1.043740   -0.625290
  C       2.727580   -0.526860    0.137460
  H       2.588740   -1.203210   -0.705760
  H       3.661500    0.011690   -0.015970
  H       2.835190   -1.137410    1.034080
--
0 1
  C      -0.638140   -0.327960    4.912800
  O      -1.060750   -1.443140    4.715660
  O      -1.451830    0.731000    5.145390
  H      -2.352590    0.376620    5.104860
  C       0.802130    0.081700    4.930010
  H       1.427950   -0.788480    4.771860
  H       0.978170    0.815980    4.146890
  H       1.039440    0.551010    5.881810
units angstrom
no_reorient
symmetry c1
}

set {
scf_type DF
basis aug-cc-pvdz
freeze_core True
guess SAD
}
energy('sapt2+')
--------------------------------------------------------------------------

  //              Dimer HF             //
    Molecular point group: c1
  Charge       = 0
  Multiplicity = 1
  Basis Set: AUG-CC-PVDZ
    Blend: AUG-CC-PVDZ
  Basis Set: (AUG-CC-PVDZ AUX)
    Blend: AUG-CC-PVDZ-JKFIT
  @DF-RHF Final Energy:  -424.20308031442914
    Total Energy =                       -424.2030803144291440
  //            Monomer A HF           //
    Molecular point group: c1
  Multiplicity = 1
  Basis Set: AUG-CC-PVDZ
    Blend: AUG-CC-PVDZ
  Basis Set: (AUG-CC-PVDZ AUX)
    Blend: AUG-CC-PVDZ-JKFIT
  @DF-RHF Final Energy:  -196.35389374021008
    Total Energy =                       -196.3538937402100828
  //            Monomer B HF           //
    Molecular point group: c1

    Geometry (in Angstrom), charge = 0, multiplicity = 1:

       Center              X                  Y                   Z               Mass
    ------------   -----------------  -----------------  -----------------  -----------------
      Gh(C)          -2.131477520434    -0.035197063256    -1.668901558598    12.000000000000
      Gh(H)          -2.346847520434    -0.628047063256    -2.557801558598     1.007825032230
      Gh(H)          -2.082447520434    -0.718567063256    -0.821411558598     1.007825032230
      Gh(H)          -2.968157520434     0.644822936744    -1.512831558598     1.007825032230
      Gh(C)          -0.817827520434     0.719162936744    -1.830831558598    12.000000000000
      Gh(H)          -0.644827520434     1.350312936744    -0.955531558598     1.007825032230
      Gh(H)          -0.882307520434     1.395322936744    -2.686691558598     1.007825032230
      Gh(C)           0.370372479566    -0.214827063256    -2.020241558598    12.000000000000
      Gh(H)           0.453312479566    -0.875257063256    -1.152191558598     1.007825032230
      Gh(H)           0.183022479566    -0.866117063256    -2.879021558598     1.007825032230
      Gh(C)           1.686872479566     0.521062936744    -2.231231558598    12.000000000000
      Gh(H)           1.855512479566     1.207652936744    -1.397781558598     1.007825032230
      Gh(H)           1.609962479566     1.143622936744    -3.125521558598     1.007825032230
      Gh(C)           2.871452479566    -0.426977063256    -2.362771558598    12.000000000000
      Gh(H)           2.732612479566    -1.103327063256    -3.205991558598     1.007825032230
      Gh(H)           3.805372479566     0.111572936744    -2.516201558598     1.007825032230
      Gh(H)           2.979062479566    -1.037527063256    -1.466151558598     1.007825032230
         C           -0.494267520434    -0.228077063256     2.412568441402    12.000000000000
         O           -0.916877520434    -1.343257063256     2.215428441402    15.994914619570
         O           -1.307957520434     0.830882936744     2.645158441402    15.994914619570
         H           -2.208717520434     0.476502936744     2.604628441402     1.007825032230
         C            0.946002479566     0.181582936744     2.429778441402    12.000000000000
         H            1.571822479566    -0.688597063256     2.271628441402     1.007825032230
         H            1.122042479566     0.915862936744     1.646658441402     1.007825032230
         H            1.183312479566     0.650892936744     3.381578441402     1.007825032230

  Charge       = 0
  Multiplicity = 1
  Basis Set: AUG-CC-PVDZ
    Blend: AUG-CC-PVDZ
  Basis Set: (AUG-CC-PVDZ AUX)
    Blend: AUG-CC-PVDZ-JKFIT

    Orbital Energies [Eh]
    ---------------------

    Doubly Occupied:

       1A    -20.624956     2A    -20.563759     3A    -11.400376
       4A    -11.253336     5A     -1.471750     6A     -1.367672
       7A     -1.032675     8A     -0.825516     9A     -0.710336
      10A     -0.683268    11A     -0.652708    12A     -0.587496
      13A     -0.575497    14A     -0.562896    15A     -0.485251
      16A     -0.456687

  @DF-RHF Final Energy:  -227.84928883324901

   => Energetics <=

    Nuclear Repulsion Energy =            121.2399280203376719
    One-Electron Energy =                -551.6700804838238810
    Two-Electron Energy =                 202.5808636302371895
    Total Energy =                       -227.8492888332490054

  Dipole Moment: [D]
     X:     0.7898      Y:     1.8146      Z:     0.3018     Total:     2.0019

    SAPT Results
  --------------------------------------------------------------------------------------------------------
    Electrostatics                 -0.31028810 [mEh]      -0.19470872 [kcal/mol]      -0.81466130 [kJ/mol]
      Elst10,r                     -0.28398479 [mEh]      -0.17820315 [kcal/mol]      -0.74560197 [kJ/mol]
      Elst12,r                     -0.02630331 [mEh]      -0.01650558 [kcal/mol]      -0.06905933 [kJ/mol]

    Exchange                        0.63156102 [mEh]       0.39631052 [kcal/mol]       1.65816324 [kJ/mol]
      Exch10                        0.52504702 [mEh]       0.32947198 [kcal/mol]       1.37851076 [kJ/mol]
      Exch10(S^2)                   0.52498690 [mEh]       0.32943425 [kcal/mol]       1.37835292 [kJ/mol]
      Exch11(S^2)                  -0.00110301 [mEh]      -0.00069215 [kcal/mol]      -0.00289595 [kJ/mol]
      Exch12(S^2)                   0.10761701 [mEh]       0.06753069 [kcal/mol]       0.28254842 [kJ/mol]

    Induction                      -0.13741556 [mEh]      -0.08622957 [kcal/mol]      -0.36078451 [kJ/mol]
      Ind20,r                      -0.18543236 [mEh]      -0.11636056 [kcal/mol]      -0.48685258 [kJ/mol]
      Ind22                         0.00236012 [mEh]       0.00148100 [kcal/mol]       0.00619649 [kJ/mol]
      Exch-Ind20,r                  0.07640728 [mEh]       0.04794629 [kcal/mol]       0.20060729 [kJ/mol]
      Exch-Ind22                   -0.00097249 [mEh]      -0.00061024 [kcal/mol]      -0.00255326 [kJ/mol]
      delta HF,r (2)               -0.02977812 [mEh]      -0.01868606 [kcal/mol]      -0.07818246 [kJ/mol]

    Dispersion                     -2.68401308 [mEh]      -1.68424363 [kcal/mol]      -7.04687537 [kJ/mol]
      Disp20                       -2.65106165 [mEh]      -1.66356630 [kcal/mol]      -6.96036141 [kJ/mol]
      Disp21                        0.35820945 [mEh]       0.22477982 [kcal/mol]       0.94047879 [kJ/mol]
      Disp22 (SDQ)                 -0.03193765 [mEh]      -0.02004118 [kcal/mol]      -0.08385229 [kJ/mol]
      Disp22 (T)                   -0.41079551 [mEh]      -0.25777807 [kcal/mol]      -1.07854345 [kJ/mol]
      Est. Disp22 (T)              -0.43071858 [mEh]      -0.27027999 [kcal/mol]      -1.13085147 [kJ/mol]
      Exch-Disp20                   0.07149535 [mEh]       0.04486401 [kcal/mol]       0.18771102 [kJ/mol]

  Total HF                          0.10225903 [mEh]       0.06416851 [kcal/mol]       0.26848105 [kJ/mol]
  Total SAPT0                      -2.47730727 [mEh]      -1.55453378 [kcal/mol]      -6.50416934 [kJ/mol]
  Total SAPT2                      -2.39570894 [mEh]      -1.50333006 [kcal/mol]      -6.28993297 [kJ/mol]
  Total SAPT2+                     -2.50015572 [mEh]      -1.56887140 [kcal/mol]      -6.56415794 [kJ/mol]

  Special recipe for scaled SAPT0 (see Manual):
    Electrostatics sSAPT0          -0.28398479 [mEh]      -0.17820315 [kcal/mol]      -0.74560197 [kJ/mol]
    Exchange sSAPT0                 0.52504702 [mEh]       0.32947198 [kcal/mol]       1.37851076 [kJ/mol]
    Induction sSAPT0               -0.13877695 [mEh]      -0.08708385 [kcal/mol]      -0.36435882 [kJ/mol]
    Dispersion sSAPT0              -2.57954174 [mEh]      -1.61868688 [kcal/mol]      -6.77258590 [kJ/mol]
  Total sSAPT0                     -2.47725645 [mEh]      -1.55450189 [kcal/mol]      -6.50403592 [kJ/mol]
  --------------------------------------------------------------------------------------------------------

*** Psi4 exiting successfully. Buy a developer a beer!
