                               Psi4 1.4a2.dev224

  ==> Input File <==

--------------------------------------------------------------------------
#Generated by lconvert.py for sapt job

memory 20 GB

molecule  {
0 1
  C      -2.275350   -0.135080    0.831330
  H      -2.490720   -0.727930   -0.057570
  H      -2.226320   -0.818450    1.678820
  H      -3.112030    0.544940    0.987400
  C      -0.961700    0.619280    0.669400
  H      -0.788700    1.250430    1.544700
  H      -1.026180    1.295440   -0.186460
  C       0.226500   -0.314710    0.479990
  H       0.309440   -0.975140    1.348040
  H       0.039150   -0.966000   -0.378790
  C       1.543000    0.421180    0.269000
  H       1.711640    1.107770    1.102450
  H       1.466090    1.043740   -0.625290
  C       2.727580   -0.526860    0.137460
  H       2.588740   -1.203210   -0.705760
  H       3.661500    0.011690   -0.015970
  H       2.835190   -1.137410    1.034080
--
0 1
  C      -0.777780   -0.364190    5.627900
  O      -1.200390   -1.479370    5.430750
  O      -1.591470    0.694780    5.860490
  H      -2.492230    0.340400    5.819950
  C       0.662490    0.045480    5.645100
  H       1.288310   -0.824700    5.486950
  H       0.838520    0.779750    4.861980
  H       0.899800    0.514780    6.596900
units angstrom
no_reorient
symmetry c1
}

set {
scf_type DF
basis aug-cc-pvdz
freeze_core True
guess SAD
}
energy('sapt2+')
--------------------------------------------------------------------------

  //              Dimer HF             //
    Molecular point group: c1
  Charge       = 0
  Multiplicity = 1
  Basis Set: AUG-CC-PVDZ
    Blend: AUG-CC-PVDZ
  Basis Set: (AUG-CC-PVDZ AUX)
    Blend: AUG-CC-PVDZ-JKFIT
  @DF-RHF Final Energy:  -424.20289350395046
    Total Energy =                       -424.2028935039504631
  //            Monomer A HF           //
    Molecular point group: c1
  Multiplicity = 1
  Basis Set: AUG-CC-PVDZ
    Blend: AUG-CC-PVDZ
  Basis Set: (AUG-CC-PVDZ AUX)
    Blend: AUG-CC-PVDZ-JKFIT
  @DF-RHF Final Energy:  -196.35380686987000
    Total Energy =                       -196.3538068698699988
  //            Monomer B HF           //
    Molecular point group: c1

    Geometry (in Angstrom), charge = 0, multiplicity = 1:

       Center              X                  Y                   Z               Mass
    ------------   -----------------  -----------------  -----------------  -----------------
      Gh(C)          -2.068037648387    -0.018739697161    -1.993775945930    12.000000000000
      Gh(H)          -2.283407648387    -0.611589697161    -2.882675945930     1.007825032230
      Gh(H)          -2.019007648387    -0.702109697161    -1.146285945930     1.007825032230
      Gh(H)          -2.904717648387     0.661280302839    -1.837705945930     1.007825032230
      Gh(C)          -0.754387648387     0.735620302839    -2.155705945930    12.000000000000
      Gh(H)          -0.581387648387     1.366770302839    -1.280405945930     1.007825032230
      Gh(H)          -0.818867648387     1.411780302839    -3.011565945930     1.007825032230
      Gh(C)           0.433812351613    -0.198369697161    -2.345115945930    12.000000000000
      Gh(H)           0.516752351613    -0.858799697161    -1.477065945930     1.007825032230
      Gh(H)           0.246462351613    -0.849659697161    -3.203895945930     1.007825032230
      Gh(C)           1.750312351613     0.537520302839    -2.556105945930    12.000000000000
      Gh(H)           1.918952351613     1.224110302839    -1.722655945930     1.007825032230
      Gh(H)           1.673402351613     1.160080302839    -3.450395945930     1.007825032230
      Gh(C)           2.934892351613    -0.410519697161    -2.687645945930    12.000000000000
      Gh(H)           2.796052351613    -1.086869697161    -3.530865945930     1.007825032230
      Gh(H)           3.868812351613     0.128030302839    -2.841075945930     1.007825032230
      Gh(H)           3.042502351613    -1.021069697161    -1.791025945930     1.007825032230
         C           -0.570467648387    -0.247849697161     2.802794054070    12.000000000000
         O           -0.993077648387    -1.363029697161     2.605644054070    15.994914619570
         O           -1.384157648387     0.811120302839     3.035384054070    15.994914619570
         H           -2.284917648387     0.456740302839     2.994844054070     1.007825032230
         C            0.869802351613     0.161820302839     2.819994054070    12.000000000000
         H            1.495622351613    -0.708359697161     2.661844054070     1.007825032230
         H            1.045832351613     0.896090302839     2.036874054070     1.007825032230
         H            1.107112351613     0.631120302839     3.771794054070     1.007825032230

  Charge       = 0
  Multiplicity = 1
  Basis Set: AUG-CC-PVDZ
    Blend: AUG-CC-PVDZ
  Basis Set: (AUG-CC-PVDZ AUX)
    Blend: AUG-CC-PVDZ-JKFIT

    Orbital Energies [Eh]
    ---------------------

    Doubly Occupied:

       1A    -20.624898     2A    -20.563682     3A    -11.400424
       4A    -11.253446     5A     -1.471812     6A     -1.367728
       7A     -1.032703     8A     -0.825569     9A     -0.710392
      10A     -0.683312    11A     -0.652732    12A     -0.587543
      13A     -0.575516    14A     -0.562915    15A     -0.485282
      16A     -0.456726

  @DF-RHF Final Energy:  -227.84904576354600

   => Energetics <=

    Nuclear Repulsion Energy =            121.2396989862093193
    One-Electron Energy =                -551.6681322366637232
    Two-Electron Energy =                 202.5793874869084163
    Total Energy =                       -227.8490457635460018

  Dipole Moment: [D]
     X:     0.7914      Y:     1.8144      Z:     0.2981     Total:     2.0018

    SAPT Results
  --------------------------------------------------------------------------------------------------------
    Electrostatics                 -0.04672618 [mEh]      -0.02932112 [kcal/mol]      -0.12267957 [kJ/mol]
      Elst10,r                     -0.04797915 [mEh]      -0.03010737 [kcal/mol]      -0.12596923 [kJ/mol]
      Elst12,r                      0.00125297 [mEh]       0.00078625 [kcal/mol]       0.00328966 [kJ/mol]

    Exchange                        0.06018072 [mEh]       0.03776397 [kcal/mol]       0.15800445 [kJ/mol]
      Exch10                        0.04850669 [mEh]       0.03043841 [kcal/mol]       0.12735431 [kJ/mol]
      Exch10(S^2)                   0.04850617 [mEh]       0.03043808 [kcal/mol]       0.12735294 [kJ/mol]
      Exch11(S^2)                  -0.00064903 [mEh]      -0.00040727 [kcal/mol]      -0.00170403 [kJ/mol]
      Exch12(S^2)                   0.01232305 [mEh]       0.00773283 [kcal/mol]       0.03235417 [kJ/mol]

    Induction                      -0.03484613 [mEh]      -0.02186628 [kcal/mol]      -0.09148850 [kJ/mol]
      Ind20,r                      -0.04507141 [mEh]      -0.02828274 [kcal/mol]      -0.11833496 [kJ/mol]
      Ind22                         0.00752422 [mEh]       0.00472152 [kcal/mol]       0.01975483 [kJ/mol]
      Exch-Ind20,r                  0.00582403 [mEh]       0.00365463 [kcal/mol]       0.01529098 [kJ/mol]
      Exch-Ind22                   -0.00097226 [mEh]      -0.00061010 [kcal/mol]      -0.00255267 [kJ/mol]
      delta HF,r (2)               -0.00215070 [mEh]      -0.00134958 [kcal/mol]      -0.00564666 [kJ/mol]

    Dispersion                     -1.06979543 [mEh]      -0.67130677 [kcal/mol]      -2.80874751 [kJ/mol]
      Disp20                       -1.05828068 [mEh]      -0.66408115 [kcal/mol]      -2.77851553 [kJ/mol]
      Disp21                        0.16453836 [mEh]       0.10324938 [kcal/mol]       0.43199540 [kJ/mol]
      Disp22 (SDQ)                 -0.01083812 [mEh]      -0.00680102 [kcal/mol]      -0.02845547 [kJ/mol]
      Disp22 (T)                   -0.16823343 [mEh]      -0.10556807 [kcal/mol]      -0.44169680 [kJ/mol]
      Est. Disp22 (T)              -0.17318082 [mEh]      -0.10867261 [kcal/mol]      -0.45468618 [kJ/mol]
      Exch-Disp20                   0.00796582 [mEh]       0.00499863 [kcal/mol]       0.02091427 [kJ/mol]

  Total HF                         -0.04087053 [mEh]      -0.02564665 [kcal/mol]      -0.10730557 [kJ/mol]
  Total SAPT0                      -1.09118539 [mEh]      -0.68472917 [kcal/mol]      -2.86490684 [kJ/mol]
  Total SAPT2                      -1.07170644 [mEh]      -0.67250595 [kcal/mol]      -2.81376488 [kJ/mol]
  Total SAPT2+                     -1.09118702 [mEh]      -0.68473019 [kcal/mol]      -2.86491113 [kJ/mol]

  Special recipe for scaled SAPT0 (see Manual):
    Electrostatics sSAPT0          -0.04797915 [mEh]      -0.03010737 [kcal/mol]      -0.12596923 [kJ/mol]
    Exchange sSAPT0                 0.04850669 [mEh]       0.03043841 [kcal/mol]       0.12735431 [kJ/mol]
    Induction sSAPT0               -0.04139789 [mEh]      -0.02597757 [kcal/mol]      -0.10869016 [kJ/mol]
    Dispersion sSAPT0              -1.05031460 [mEh]      -0.65908236 [kcal/mol]      -2.75760059 [kJ/mol]
  Total sSAPT0                     -1.09118494 [mEh]      -0.68472889 [kcal/mol]      -2.86490567 [kJ/mol]
  --------------------------------------------------------------------------------------------------------

*** Psi4 exiting successfully. Buy a developer a beer!
