                               Psi4 1.4a2.dev224

  ==> Input File <==

--------------------------------------------------------------------------
#Generated by lconvert.py for sapt job

memory 20 GB

molecule  {
0 1
  C      -2.587780   -0.323110    0.469460
  H      -2.610390   -0.876370   -0.469620
  H      -2.659740   -1.051890    1.277710
  H      -3.476030    0.305620    0.508960
  C      -1.309560    0.497390    0.585060
  H      -1.317250    1.083260    1.506340
  H      -1.262380    1.215570   -0.236780
  C      -0.056830   -0.368260    0.558440
  H      -0.086180   -1.073360    1.395870
  H      -0.053810   -0.976840   -0.351470
  C       1.231600    0.440070    0.632030
  H       1.213280    1.053560    1.534590
  H       1.266300    1.131380   -0.213110
  C       2.472570   -0.443140    0.619220
  H       2.520720   -1.035260   -0.294900
  H       3.387730    0.144090    0.683910
  H       2.459300   -1.139360    1.458620
--
0 1
  C       0.060920    0.241370    4.998930
  O       0.087840    1.426440    4.707090
  N       1.193510   -0.510510    5.101750
  H       2.064450   -0.087930    4.833090
  H       1.154570   -1.502390    5.233180
  C      -1.229300   -0.497570    5.263390
  H      -1.082050   -1.458290    5.750510
  H      -1.735520   -0.655880    4.312570
  H      -1.867240    0.129670    5.878660
units angstrom
no_reorient
symmetry c1
}

set {
scf_type DF
basis aug-cc-pvdz
freeze_core True
guess SAD
}
energy('sapt2+')
--------------------------------------------------------------------------

  //              Dimer HF             //
    Molecular point group: c1
  Charge       = 0
  Multiplicity = 1
  Basis Set: AUG-CC-PVDZ
    Blend: AUG-CC-PVDZ
  Basis Set: (AUG-CC-PVDZ AUX)
    Blend: AUG-CC-PVDZ-JKFIT
  @DF-RHF Final Energy:  -404.36655902686840
    Total Energy =                       -404.3665590268684582
  //            Monomer A HF           //
    Molecular point group: c1
  Multiplicity = 1
  Basis Set: AUG-CC-PVDZ
    Blend: AUG-CC-PVDZ
  Basis Set: (AUG-CC-PVDZ AUX)
    Blend: AUG-CC-PVDZ-JKFIT
  @DF-RHF Final Energy:  -196.35387278132603
    Total Energy =                       -196.3538727813260323
  //            Monomer B HF           //
    Molecular point group: c1

    Geometry (in Angstrom), charge = 0, multiplicity = 1:

       Center              X                  Y                   Z               Mass
    ------------   -----------------  -----------------  -----------------  -----------------
      Gh(C)          -2.580128819261    -0.364260754785    -2.102875021303    12.000000000000
      Gh(H)          -2.602738819261    -0.917520754785    -3.041955021303     1.007825032230
      Gh(H)          -2.652088819261    -1.093040754785    -1.294625021303     1.007825032230
      Gh(H)          -3.468378819261     0.264469245215    -2.063375021303     1.007825032230
      Gh(C)          -1.301908819261     0.456239245215    -1.987275021303    12.000000000000
      Gh(H)          -1.309598819261     1.042109245215    -1.065995021303     1.007825032230
      Gh(H)          -1.254728819261     1.174419245215    -2.809115021303     1.007825032230
      Gh(C)          -0.049178819261    -0.409410754785    -2.013895021303    12.000000000000
      Gh(H)          -0.078528819261    -1.114510754785    -1.176465021303     1.007825032230
      Gh(H)          -0.046158819261    -1.017990754785    -2.923805021303     1.007825032230
      Gh(C)           1.239251180739     0.398919245215    -1.940305021303    12.000000000000
      Gh(H)           1.220931180739     1.012409245215    -1.037745021303     1.007825032230
      Gh(H)           1.273951180739     1.090229245215    -2.785445021303     1.007825032230
      Gh(C)           2.480221180739    -0.484290754785    -1.953115021303    12.000000000000
      Gh(H)           2.528371180739    -1.076410754785    -2.867235021303     1.007825032230
      Gh(H)           3.395381180739     0.102939245215    -1.888425021303     1.007825032230
      Gh(H)           2.466951180739    -1.180510754785    -1.113715021303     1.007825032230
         C            0.068571180739     0.200219245215     2.426594978697    12.000000000000
         O            0.095491180739     1.385289245215     2.134754978697    15.994914619570
         N            1.201161180739    -0.551660754785     2.529414978697    14.003074004430
         H            2.072101180739    -0.129080754785     2.260754978697     1.007825032230
         H            1.162221180739    -1.543540754785     2.660844978697     1.007825032230
         C           -1.221648819261    -0.538720754785     2.691054978697    12.000000000000
         H           -1.074398819261    -1.499440754785     3.178174978697     1.007825032230
         H           -1.727868819261    -0.697030754785     1.740234978697     1.007825032230
         H           -1.859588819261     0.088519245215     3.306324978697     1.007825032230

  Charge       = 0
  Multiplicity = 1
  Basis Set: AUG-CC-PVDZ
    Blend: AUG-CC-PVDZ
  Basis Set: (AUG-CC-PVDZ AUX)
    Blend: AUG-CC-PVDZ-JKFIT

    Orbital Energies [Eh]
    ---------------------

    Doubly Occupied:

       1A    -20.527446     2A    -15.595382     3A    -11.362681
       4A    -11.245057     5A     -1.382980     6A     -1.217146
       7A     -1.008471     8A     -0.802537     9A     -0.729425
      10A     -0.666282    11A     -0.616256    12A     -0.587406
      13A     -0.562879    14A     -0.524602    15A     -0.424722
      16A     -0.414923

  @DF-RHF Final Energy:  -208.01247616796002

   => Energetics <=

    Nuclear Repulsion Energy =            121.8658786055157179
    One-Electron Energy =                -524.4203181391879980
    Two-Electron Energy =                 194.5419633657122631
    Total Energy =                       -208.0124761679600169

  Dipole Moment: [D]
     X:     0.4548      Y:    -4.1817      Z:     0.6256     Total:     4.2527

    SAPT Results
  --------------------------------------------------------------------------------------------------------
    Electrostatics                 -0.40387434 [mEh]      -0.25343498 [kcal/mol]      -1.06037194 [kJ/mol]
      Elst10,r                     -0.39056890 [mEh]      -0.24508568 [kcal/mol]      -1.02543850 [kJ/mol]
      Elst12,r                     -0.01330545 [mEh]      -0.00834929 [kcal/mol]      -0.03493345 [kJ/mol]

    Exchange                        0.59226243 [mEh]       0.37165028 [kcal/mol]       1.55498479 [kJ/mol]
      Exch10                        0.47687720 [mEh]       0.29924496 [kcal/mol]       1.25204091 [kJ/mol]
      Exch10(S^2)                   0.47685749 [mEh]       0.29923259 [kcal/mol]       1.25198916 [kJ/mol]
      Exch11(S^2)                  -0.00386736 [mEh]      -0.00242680 [kcal/mol]      -0.01015375 [kJ/mol]
      Exch12(S^2)                   0.11925259 [mEh]       0.07483213 [kcal/mol]       0.31309763 [kJ/mol]

    Induction                      -0.27664051 [mEh]      -0.17359454 [kcal/mol]      -0.72631956 [kJ/mol]
      Ind20,r                      -0.32649406 [mEh]      -0.20487812 [kcal/mol]      -0.85721003 [kJ/mol]
      Ind22                         0.02434567 [mEh]       0.01527714 [kcal/mol]       0.06391955 [kJ/mol]
      Exch-Ind20,r                  0.06169353 [mEh]       0.03871327 [kcal/mol]       0.16197634 [kJ/mol]
      Exch-Ind22                   -0.00460030 [mEh]      -0.00288673 [kcal/mol]      -0.01207808 [kJ/mol]
      delta HF,r (2)               -0.03158535 [mEh]      -0.01982011 [kcal/mol]      -0.08292733 [kJ/mol]

    Dispersion                     -2.73404005 [mEh]      -1.71563603 [kcal/mol]      -7.17822117 [kJ/mol]
      Disp20                       -2.68570883 [mEh]      -1.68530774 [kcal/mol]      -7.05132756 [kJ/mol]
      Disp21                        0.36373480 [mEh]       0.22824703 [kcal/mol]       0.95498558 [kJ/mol]
      Disp22 (SDQ)                 -0.03442731 [mEh]      -0.02160347 [kcal/mol]      -0.09038890 [kJ/mol]
      Disp22 (T)                   -0.42945930 [mEh]      -0.26948978 [kcal/mol]      -1.12754523 [kJ/mol]
      Est. Disp22 (T)              -0.45017417 [mEh]      -0.28248856 [kcal/mol]      -1.18193213 [kJ/mol]
      Exch-Disp20                   0.07253547 [mEh]       0.04551669 [kcal/mol]       0.19044184 [kJ/mol]

  Total HF                         -0.21007758 [mEh]      -0.13182567 [kcal/mol]      -0.55155862 [kJ/mol]
  Total SAPT0                      -2.82325095 [mEh]      -1.77161672 [kcal/mol]      -7.41244434 [kJ/mol]
  Total SAPT2                      -2.70142579 [mEh]      -1.69517028 [kcal/mol]      -7.09259244 [kJ/mol]
  Total SAPT2+                     -2.82229248 [mEh]      -1.77101527 [kcal/mol]      -7.40992788 [kJ/mol]

  Special recipe for scaled SAPT0 (see Manual):
    Electrostatics sSAPT0          -0.39056890 [mEh]      -0.24508568 [kcal/mol]      -1.02543850 [kJ/mol]
    Exchange sSAPT0                 0.47687720 [mEh]       0.29924496 [kcal/mol]       1.25204091 [kJ/mol]
    Induction sSAPT0               -0.29637823 [mEh]      -0.18598015 [kcal/mol]      -0.77814094 [kJ/mol]
    Dispersion sSAPT0              -2.61316437 [mEh]      -1.63978540 [kcal/mol]      -6.86086211 [kJ/mol]
  Total sSAPT0                     -2.82323430 [mEh]      -1.77160627 [kcal/mol]      -7.41240064 [kJ/mol]
  --------------------------------------------------------------------------------------------------------

*** Psi4 exiting successfully. Buy a developer a beer!
