                               Psi4 1.4a2.dev224

  ==> Input File <==

--------------------------------------------------------------------------
#Generated by lconvert.py for sapt job

memory 20 GB

molecule  {
0 1
  C      -2.587780   -0.323110    0.469460
  H      -2.610390   -0.876370   -0.469620
  H      -2.659740   -1.051890    1.277710
  H      -3.476030    0.305620    0.508960
  C      -1.309560    0.497390    0.585060
  H      -1.317250    1.083260    1.506340
  H      -1.262380    1.215570   -0.236780
  C      -0.056830   -0.368260    0.558440
  H      -0.086180   -1.073360    1.395870
  H      -0.053810   -0.976840   -0.351470
  C       1.231600    0.440070    0.632030
  H       1.213280    1.053560    1.534590
  H       1.266300    1.131380   -0.213110
  C       2.472570   -0.443140    0.619220
  H       2.520720   -1.035260   -0.294900
  H       3.387730    0.144090    0.683910
  H       2.459300   -1.139360    1.458620
--
0 1
  C       0.096460    0.317370    6.670270
  O       0.123370    1.502450    6.378430
  N       1.229040   -0.434510    6.773090
  H       2.099980   -0.011930    6.504430
  H       1.190100   -1.426390    6.904520
  C      -1.193760   -0.421570    6.934730
  H      -1.046510   -1.382290    7.421850
  H      -1.699990   -0.579880    5.983910
  H      -1.831700    0.205670    7.550000
units angstrom
no_reorient
symmetry c1
}

set {
scf_type DF
basis aug-cc-pvdz
freeze_core True
guess SAD
}
energy('sapt2+')
--------------------------------------------------------------------------

  //              Dimer HF             //
    Molecular point group: c1
  Charge       = 0
  Multiplicity = 1
  Basis Set: AUG-CC-PVDZ
    Blend: AUG-CC-PVDZ
  Basis Set: (AUG-CC-PVDZ AUX)
    Blend: AUG-CC-PVDZ-JKFIT
  @DF-RHF Final Energy:  -404.36605852780610
    Total Energy =                       -404.3660585278061035
  //            Monomer A HF           //
    Molecular point group: c1
  Multiplicity = 1
  Basis Set: AUG-CC-PVDZ
    Blend: AUG-CC-PVDZ
  Basis Set: (AUG-CC-PVDZ AUX)
    Blend: AUG-CC-PVDZ-JKFIT
  @DF-RHF Final Energy:  -196.35373600793943
    Total Energy =                       -196.3537360079394318
  //            Monomer B HF           //
    Molecular point group: c1

    Geometry (in Angstrom), charge = 0, multiplicity = 1:

       Center              X                  Y                   Z               Mass
    ------------   -----------------  -----------------  -----------------  -----------------
      Gh(C)          -2.596126932465    -0.398478293825    -2.855336903618    12.000000000000
      Gh(H)          -2.618736932465    -0.951738293825    -3.794416903618     1.007825032230
      Gh(H)          -2.668086932465    -1.127258293825    -2.047086903618     1.007825032230
      Gh(H)          -3.484376932465     0.230251706175    -2.815836903618     1.007825032230
      Gh(C)          -1.317906932465     0.422021706175    -2.739736903618    12.000000000000
      Gh(H)          -1.325596932465     1.007891706175    -1.818456903618     1.007825032230
      Gh(H)          -1.270726932465     1.140201706175    -3.561576903618     1.007825032230
      Gh(C)          -0.065176932465    -0.443628293825    -2.766356903618    12.000000000000
      Gh(H)          -0.094526932465    -1.148728293825    -1.928926903618     1.007825032230
      Gh(H)          -0.062156932465    -1.052208293825    -3.676266903618     1.007825032230
      Gh(C)           1.223253067535     0.364701706175    -2.692766903618    12.000000000000
      Gh(H)           1.204933067535     0.978191706175    -1.790206903618     1.007825032230
      Gh(H)           1.257953067535     1.056011706175    -3.537906903618     1.007825032230
      Gh(C)           2.464223067535    -0.518508293825    -2.705576903618    12.000000000000
      Gh(H)           2.512373067535    -1.110628293825    -3.619696903618     1.007825032230
      Gh(H)           3.379383067535     0.068721706175    -2.640886903618     1.007825032230
      Gh(H)           2.450953067535    -1.214728293825    -1.866176903618     1.007825032230
         C            0.088113067535     0.242001706175     3.345473096382    12.000000000000
         O            0.115023067535     1.427081706175     3.053633096382    15.994914619570
         N            1.220693067535    -0.509878293825     3.448293096382    14.003074004430
         H            2.091633067535    -0.087298293825     3.179633096382     1.007825032230
         H            1.181753067535    -1.501758293825     3.579723096382     1.007825032230
         C           -1.202106932465    -0.496938293825     3.609933096382    12.000000000000
         H           -1.054856932465    -1.457658293825     4.097053096382     1.007825032230
         H           -1.708336932465    -0.655248293825     2.659113096382     1.007825032230
         H           -1.840046932465     0.130301706175     4.225203096382     1.007825032230

  Charge       = 0
  Multiplicity = 1
  Basis Set: AUG-CC-PVDZ
    Blend: AUG-CC-PVDZ
  Basis Set: (AUG-CC-PVDZ AUX)
    Blend: AUG-CC-PVDZ-JKFIT

    Orbital Energies [Eh]
    ---------------------

    Doubly Occupied:

       1A    -20.527315     2A    -15.595380     3A    -11.362682
       4A    -11.245152     5A     -1.383028     6A     -1.217184
       7A     -1.008486     8A     -0.802564     9A     -0.729454
      10A     -0.666314    11A     -0.616268    12A     -0.587439
      13A     -0.562890    14A     -0.524625    15A     -0.424760
      16A     -0.414954

  @DF-RHF Final Energy:  -208.01222501947635

   => Energetics <=

    Nuclear Repulsion Energy =            121.8657908515689599
    One-Electron Energy =                -524.4190381608026428
    Two-Electron Energy =                 194.5410222897573647
    Total Energy =                       -208.0122250194763467

  Dipole Moment: [D]
     X:     0.4543      Y:    -4.1856      Z:     0.6223     Total:     4.2559

    SAPT Results
  --------------------------------------------------------------------------------------------------------
    Electrostatics                 -0.05039933 [mEh]      -0.03162606 [kcal/mol]      -0.13232342 [kJ/mol]
      Elst10,r                     -0.06028303 [mEh]      -0.03782817 [kcal/mol]      -0.15827307 [kJ/mol]
      Elst12,r                      0.00988370 [mEh]       0.00620212 [kcal/mol]       0.02594965 [kJ/mol]

    Exchange                        0.00203175 [mEh]       0.00127494 [kcal/mol]       0.00533435 [kJ/mol]
      Exch10                        0.00149310 [mEh]       0.00093694 [kcal/mol]       0.00392014 [kJ/mol]
      Exch10(S^2)                   0.00149310 [mEh]       0.00093694 [kcal/mol]       0.00392014 [kJ/mol]
      Exch11(S^2)                  -0.00008020 [mEh]      -0.00005033 [kcal/mol]      -0.00021056 [kJ/mol]
      Exch12(S^2)                   0.00061884 [mEh]       0.00038833 [kcal/mol]       0.00162478 [kJ/mol]

    Induction                      -0.03180022 [mEh]      -0.01995494 [kcal/mol]      -0.08349146 [kJ/mol]
      Ind20,r                      -0.03905085 [mEh]      -0.02450478 [kcal/mol]      -0.10252800 [kJ/mol]
      Ind22                         0.00694393 [mEh]       0.00435738 [kcal/mol]       0.01823128 [kJ/mol]
      Exch-Ind20,r                  0.00018941 [mEh]       0.00011886 [kcal/mol]       0.00049731 [kJ/mol]
      Exch-Ind22                   -0.00003368 [mEh]      -0.00002114 [kcal/mol]      -0.00008843 [kJ/mol]
      delta HF,r (2)                0.00015098 [mEh]       0.00009474 [kcal/mol]       0.00039639 [kJ/mol]

    Dispersion                     -0.38891138 [mEh]      -0.24404558 [kcal/mol]      -1.02108669 [kJ/mol]
      Disp20                       -0.38994698 [mEh]      -0.24469542 [kcal/mol]      -1.02380565 [kJ/mol]
      Disp21                        0.07045409 [mEh]       0.04421061 [kcal/mol]       0.18497719 [kJ/mol]
      Disp22 (SDQ)                 -0.00389862 [mEh]      -0.00244642 [kcal/mol]      -0.01023581 [kJ/mol]
      Disp22 (T)                   -0.06502975 [mEh]      -0.04080679 [kcal/mol]      -0.17073560 [kJ/mol]
      Est. Disp22 (T)              -0.06588067 [mEh]      -0.04134074 [kcal/mol]      -0.17296967 [kJ/mol]
      Exch-Disp20                   0.00036078 [mEh]       0.00022640 [kcal/mol]       0.00094724 [kJ/mol]

  Total HF                         -0.09750039 [mEh]      -0.06118242 [kcal/mol]      -0.25598724 [kJ/mol]
  Total SAPT0                      -0.48708658 [mEh]      -0.30565145 [kcal/mol]      -1.27884565 [kJ/mol]
  Total SAPT2                      -0.46975399 [mEh]      -0.29477508 [kcal/mol]      -1.23333893 [kJ/mol]
  Total SAPT2+                     -0.46907918 [mEh]      -0.29435163 [kcal/mol]      -1.23156722 [kJ/mol]

  Special recipe for scaled SAPT0 (see Manual):
    Electrostatics sSAPT0          -0.06028303 [mEh]      -0.03782817 [kcal/mol]      -0.15827307 [kJ/mol]
    Exchange sSAPT0                 0.00149310 [mEh]       0.00093694 [kcal/mol]       0.00392014 [kJ/mol]
    Induction sSAPT0               -0.03871046 [mEh]      -0.02429118 [kcal/mol]      -0.10163430 [kJ/mol]
    Dispersion sSAPT0              -0.38958619 [mEh]      -0.24446903 [kcal/mol]      -1.02285841 [kJ/mol]
  Total sSAPT0                     -0.48708658 [mEh]      -0.30565145 [kcal/mol]      -1.27884565 [kJ/mol]
  --------------------------------------------------------------------------------------------------------

*** Psi4 exiting successfully. Buy a developer a beer!
