                               Psi4 1.4a2.dev224

  ==> Input File <==

--------------------------------------------------------------------------
#Generated by lconvert.py for sapt job

memory 20 GB

molecule  {
0 1
  C      -2.587780   -0.323110    0.469460
  H      -2.610390   -0.876370   -0.469620
  H      -2.659740   -1.051890    1.277710
  H      -3.476030    0.305620    0.508960
  C      -1.309560    0.497390    0.585060
  H      -1.317250    1.083260    1.506340
  H      -1.262380    1.215570   -0.236780
  C      -0.056830   -0.368260    0.558440
  H      -0.086180   -1.073360    1.395870
  H      -0.053810   -0.976840   -0.351470
  C       1.231600    0.440070    0.632030
  H       1.213280    1.053560    1.534590
  H       1.266300    1.131380   -0.213110
  C       2.472570   -0.443140    0.619220
  H       2.520720   -1.035260   -0.294900
  H       3.387730    0.144090    0.683910
  H       2.459300   -1.139360    1.458620
--
0 1
  C       0.078690    0.279370    5.834600
  O       0.105610    1.464440    5.542760
  N       1.211270   -0.472510    5.937420
  H       2.082210   -0.049930    5.668760
  H       1.172340   -1.464390    6.068850
  C      -1.211530   -0.459570    6.099060
  H      -1.064280   -1.420290    6.586180
  H      -1.717750   -0.617880    5.148240
  H      -1.849470    0.167670    6.714330
units angstrom
no_reorient
symmetry c1
}

set {
scf_type DF
basis aug-cc-pvdz
freeze_core True
guess SAD
}
energy('sapt2+')
--------------------------------------------------------------------------

  //              Dimer HF             //
    Molecular point group: c1
  Charge       = 0
  Multiplicity = 1
  Basis Set: AUG-CC-PVDZ
    Blend: AUG-CC-PVDZ
  Basis Set: (AUG-CC-PVDZ AUX)
    Blend: AUG-CC-PVDZ-JKFIT
  @DF-RHF Final Energy:  -404.36624897109323
    Total Energy =                       -404.3662489710932277
  //            Monomer A HF           //
    Molecular point group: c1
  Multiplicity = 1
  Basis Set: AUG-CC-PVDZ
    Blend: AUG-CC-PVDZ
  Basis Set: (AUG-CC-PVDZ AUX)
    Blend: AUG-CC-PVDZ-JKFIT
  @DF-RHF Final Energy:  -196.35377137558478
    Total Energy =                       -196.3537713755847847
  //            Monomer B HF           //
    Molecular point group: c1

    Geometry (in Angstrom), charge = 0, multiplicity = 1:

       Center              X                  Y                   Z               Mass
    ------------   -----------------  -----------------  -----------------  -----------------
      Gh(C)          -2.588127990239    -0.381368914422    -2.479105962461    12.000000000000
      Gh(H)          -2.610737990239    -0.934628914422    -3.418185962461     1.007825032230
      Gh(H)          -2.660087990239    -1.110148914422    -1.670855962461     1.007825032230
      Gh(H)          -3.476377990239     0.247361085578    -2.439605962461     1.007825032230
      Gh(C)          -1.309907990239     0.439131085578    -2.363505962461    12.000000000000
      Gh(H)          -1.317597990239     1.025001085578    -1.442225962461     1.007825032230
      Gh(H)          -1.262727990239     1.157311085578    -3.185345962461     1.007825032230
      Gh(C)          -0.057177990239    -0.426518914422    -2.390125962461    12.000000000000
      Gh(H)          -0.086527990239    -1.131618914422    -1.552695962461     1.007825032230
      Gh(H)          -0.054157990239    -1.035098914422    -3.300035962461     1.007825032230
      Gh(C)           1.231252009761     0.381811085578    -2.316535962461    12.000000000000
      Gh(H)           1.212932009761     0.995301085578    -1.413975962461     1.007825032230
      Gh(H)           1.265952009761     1.073121085578    -3.161675962461     1.007825032230
      Gh(C)           2.472222009761    -0.501398914422    -2.329345962461    12.000000000000
      Gh(H)           2.520372009761    -1.093518914422    -3.243465962461     1.007825032230
      Gh(H)           3.387382009761     0.085831085578    -2.264655962461     1.007825032230
      Gh(H)           2.458952009761    -1.197618914422    -1.489945962461     1.007825032230
         C            0.078342009761     0.221111085578     2.886034037539    12.000000000000
         O            0.105262009761     1.406181085578     2.594194037539    15.994914619570
         N            1.210922009761    -0.530768914422     2.988854037539    14.003074004430
         H            2.081862009761    -0.108188914422     2.720194037539     1.007825032230
         H            1.171992009761    -1.522648914422     3.120284037539     1.007825032230
         C           -1.211877990239    -0.517828914422     3.150494037539    12.000000000000
         H           -1.064627990239    -1.478548914422     3.637614037539     1.007825032230
         H           -1.718097990239    -0.676138914422     2.199674037539     1.007825032230
         H           -1.849817990239     0.109411085578     3.765764037539     1.007825032230

  Charge       = 0
  Multiplicity = 1
  Basis Set: AUG-CC-PVDZ
    Blend: AUG-CC-PVDZ
  Basis Set: (AUG-CC-PVDZ AUX)
    Blend: AUG-CC-PVDZ-JKFIT

    Orbital Energies [Eh]
    ---------------------

    Doubly Occupied:

       1A    -20.527340     2A    -15.595388     3A    -11.362681
       4A    -11.245123     5A     -1.383026     6A     -1.217178
       7A     -1.008485     8A     -0.802561     9A     -0.729449
      10A     -0.666312    11A     -0.616268    12A     -0.587438
      13A     -0.562890    14A     -0.524623    15A     -0.424753
      16A     -0.414947

  @DF-RHF Final Energy:  -208.01228977191059

   => Energetics <=

    Nuclear Repulsion Energy =            121.8660752130245015
    One-Electron Energy =                -524.4198042759599048
    Two-Electron Energy =                 194.5414392910248296
    Total Energy =                       -208.0122897719105879

  Dipole Moment: [D]
     X:     0.4545      Y:    -4.1847      Z:     0.6227     Total:     4.2551

    SAPT Results
  --------------------------------------------------------------------------------------------------------
    Electrostatics                 -0.10433777 [mEh]      -0.06547294 [kcal/mol]      -0.27393879 [kJ/mol]
      Elst10,r                     -0.11967787 [mEh]      -0.07509900 [kcal/mol]      -0.31421421 [kJ/mol]
      Elst12,r                      0.01534010 [mEh]       0.00962606 [kcal/mol]       0.04027542 [kJ/mol]

    Exchange                        0.03647865 [mEh]       0.02289070 [kcal/mol]       0.09577468 [kJ/mol]
      Exch10                        0.02776416 [mEh]       0.01742227 [kcal/mol]       0.07289479 [kJ/mol]
      Exch10(S^2)                   0.02776420 [mEh]       0.01742230 [kcal/mol]       0.07289491 [kJ/mol]
      Exch11(S^2)                  -0.00076169 [mEh]      -0.00047797 [kcal/mol]      -0.00199981 [kJ/mol]
      Exch12(S^2)                   0.00947618 [mEh]       0.00594639 [kcal/mol]       0.02487970 [kJ/mol]

    Induction                      -0.08081690 [mEh]      -0.05071337 [kcal/mol]      -0.21218474 [kJ/mol]
      Ind20,r                      -0.09675299 [mEh]      -0.06071342 [kcal/mol]      -0.25402495 [kJ/mol]
      Ind22                         0.01556320 [mEh]       0.00976606 [kcal/mol]       0.04086118 [kJ/mol]
      Exch-Ind20,r                  0.00292321 [mEh]       0.00183435 [kcal/mol]       0.00767490 [kJ/mol]
      Exch-Ind22                   -0.00047021 [mEh]      -0.00029506 [kcal/mol]      -0.00123455 [kJ/mol]
      delta HF,r (2)               -0.00208011 [mEh]      -0.00130529 [kcal/mol]      -0.00546132 [kJ/mol]

    Dispersion                     -0.95038465 [mEh]      -0.59637537 [kcal/mol]      -2.49523455 [kJ/mol]
      Disp20                       -0.93876246 [mEh]      -0.58908234 [kcal/mol]      -2.46472049 [kJ/mol]
      Disp21                        0.15217532 [mEh]       0.09549145 [kcal/mol]       0.39953624 [kJ/mol]
      Disp22 (SDQ)                 -0.01086361 [mEh]      -0.00681702 [kcal/mol]      -0.02852241 [kJ/mol]
      Disp22 (T)                   -0.15404288 [mEh]      -0.09666337 [kcal/mol]      -0.40443952 [kJ/mol]
      Est. Disp22 (T)              -0.15825691 [mEh]      -0.09930771 [kcal/mol]      -0.41550347 [kJ/mol]
      Exch-Disp20                   0.00532302 [mEh]       0.00334024 [kcal/mol]       0.01397558 [kJ/mol]

  Total HF                         -0.18782360 [mEh]      -0.11786109 [kcal/mol]      -0.49313079 [kJ/mol]
  Total SAPT0                      -1.12126304 [mEh]      -0.70360318 [kcal/mol]      -2.94387570 [kJ/mol]
  Total SAPT2                      -1.08211547 [mEh]      -0.67903771 [kcal/mol]      -2.84109376 [kJ/mol]
  Total SAPT2+                     -1.09906067 [mEh]      -0.68967098 [kcal/mol]      -2.88558340 [kJ/mol]

  Special recipe for scaled SAPT0 (see Manual):
    Electrostatics sSAPT0          -0.11967787 [mEh]      -0.07509900 [kcal/mol]      -0.31421421 [kJ/mol]
    Exchange sSAPT0                 0.02776416 [mEh]       0.01742227 [kcal/mol]       0.07289479 [kJ/mol]
    Induction sSAPT0               -0.09590990 [mEh]      -0.06018437 [kcal/mol]      -0.25181141 [kJ/mol]
    Dispersion sSAPT0              -0.93343947 [mEh]      -0.58574211 [kcal/mol]      -2.45074498 [kJ/mol]
  Total sSAPT0                     -1.12126308 [mEh]      -0.70360320 [kcal/mol]      -2.94387581 [kJ/mol]
  --------------------------------------------------------------------------------------------------------

*** Psi4 exiting successfully. Buy a developer a beer!
