                               Psi4 1.4a2.dev224

  ==> Input File <==

--------------------------------------------------------------------------
#Generated by lconvert.py for sapt job

memory 20 GB

molecule  {
0 1
  C       0.606790    1.330420    0.316440
  H       1.246500    2.202260    0.330350
  C       1.118080    0.087250    0.685120
  H       2.150060   -0.003890    0.993760
  C       0.292900   -1.036090    0.669110
  H       0.688500   -2.000960    0.955380
  C      -1.042830   -0.916710    0.288190
  H      -1.682710   -1.788490    0.279350
  C      -1.553590    0.327350   -0.079940
  H      -2.589230    0.420290   -0.377350
  C      -0.728040    1.450840   -0.066850
  H      -1.123620    2.415660   -0.353860
--
0 1
  C       0.107840    0.184910    6.773980
  O       1.303340    0.348860    6.850490
  O      -0.471660   -1.026500    6.973410
  H       0.262790   -1.627610    7.166450
  C      -0.914040    1.228840    6.453290
  H      -0.435740    2.199780    6.406470
  H      -1.366840    0.995640    5.490590
  H      -1.698890    1.223300    7.205790
units angstrom
no_reorient
symmetry c1
}

set {
scf_type DF
basis aug-cc-pvdz
freeze_core True
guess SAD
}
energy('sapt2+')
--------------------------------------------------------------------------

  //              Dimer HF             //
    Molecular point group: c1
  Charge       = 0
  Multiplicity = 1
  Basis Set: AUG-CC-PVDZ
    Blend: AUG-CC-PVDZ
  Basis Set: (AUG-CC-PVDZ AUX)
    Blend: AUG-CC-PVDZ-JKFIT
  @DF-RHF Final Energy:  -458.57707080077802
    Total Energy =                       -458.5770708007780740
  //            Monomer A HF           //
    Molecular point group: c1
  Multiplicity = 1
  Basis Set: AUG-CC-PVDZ
    Blend: AUG-CC-PVDZ
  Basis Set: (AUG-CC-PVDZ AUX)
    Blend: AUG-CC-PVDZ-JKFIT
  @DF-RHF Final Energy:  -230.72795440695967
    Total Energy =                       -230.7279544069596682
  //            Monomer B HF           //
    Molecular point group: c1

    Geometry (in Angstrom), charge = 0, multiplicity = 1:

       Center              X                  Y                   Z               Mass
    ------------   -----------------  -----------------  -----------------  -----------------
      Gh(C)           0.727287126795     1.148549666100    -2.797248340982    12.000000000000
      Gh(H)           1.366997126795     2.020389666100    -2.783338340982     1.007825032230
      Gh(C)           1.238577126795    -0.094620333900    -2.428568340982    12.000000000000
      Gh(H)           2.270557126795    -0.185760333900    -2.119928340982     1.007825032230
      Gh(C)           0.413397126795    -1.217960333900    -2.444578340982    12.000000000000
      Gh(H)           0.808997126795    -2.182830333900    -2.158308340982     1.007825032230
      Gh(C)          -0.922332873205    -1.098580333900    -2.825498340982    12.000000000000
      Gh(H)          -1.562212873205    -1.970360333900    -2.834338340982     1.007825032230
      Gh(C)          -1.433092873205     0.145479666100    -3.193628340982    12.000000000000
      Gh(H)          -2.468732873205     0.238419666100    -3.491038340982     1.007825032230
      Gh(C)          -0.607542873205     1.268969666100    -3.180538340982    12.000000000000
      Gh(H)          -1.003122873205     2.233789666100    -3.467548340982     1.007825032230
         C            0.228337126795     0.003039666100     3.660291659018    12.000000000000
         O            1.423837126795     0.166989666100     3.736801659018    15.994914619570
         O           -0.351162873205    -1.208370333900     3.859721659018    15.994914619570
         H            0.383287126795    -1.809480333900     4.052761659018     1.007825032230
         C           -0.793542873205     1.046969666100     3.339601659018    12.000000000000
         H           -0.315242873205     2.017909666100     3.292781659018     1.007825032230
         H           -1.246342873205     0.813769666100     2.376901659018     1.007825032230
         H           -1.578392873205     1.041429666100     4.092101659018     1.007825032230

  Charge       = 0
  Multiplicity = 1
  Basis Set: AUG-CC-PVDZ
    Blend: AUG-CC-PVDZ
  Basis Set: (AUG-CC-PVDZ AUX)
    Blend: AUG-CC-PVDZ-JKFIT

    Orbital Energies [Eh]
    ---------------------

    Doubly Occupied:

       1A    -20.624300     2A    -20.563778     3A    -11.400545
       4A    -11.254071     5A     -1.471350     6A     -1.367106
       7A     -1.033588     8A     -0.824422     9A     -0.710356
      10A     -0.682992    11A     -0.652722    12A     -0.587742
      13A     -0.575871    14A     -0.563341    15A     -0.485093
      16A     -0.456905

  @DF-RHF Final Energy:  -227.84877466335507

   => Energetics <=

    Nuclear Repulsion Energy =            121.2354922442568181
    One-Electron Energy =                -551.6601725095067650
    Two-Electron Energy =                 202.5759056018948741
    Total Energy =                       -227.8487746633550728

  Dipole Moment: [D]
     X:    -1.9842      Y:    -0.1463      Z:    -0.1740     Total:     1.9972

    SAPT Results
  --------------------------------------------------------------------------------------------------------
    Electrostatics                 -0.22698390 [mEh]      -0.14243455 [kcal/mol]      -0.59594614 [kJ/mol]
      Elst10,r                     -0.32581079 [mEh]      -0.20444936 [kcal/mol]      -0.85541612 [kJ/mol]
      Elst12,r                      0.09882690 [mEh]       0.06201481 [kcal/mol]       0.25946998 [kJ/mol]

    Exchange                        0.00116033 [mEh]       0.00072812 [kcal/mol]       0.00304644 [kJ/mol]
      Exch10                        0.00106011 [mEh]       0.00066523 [kcal/mol]       0.00278333 [kJ/mol]
      Exch10(S^2)                   0.00106011 [mEh]       0.00066523 [kcal/mol]       0.00278333 [kJ/mol]
      Exch11(S^2)                  -0.00002648 [mEh]      -0.00001662 [kcal/mol]      -0.00006953 [kJ/mol]
      Exch12(S^2)                   0.00012670 [mEh]       0.00007951 [kcal/mol]       0.00033265 [kJ/mol]

    Induction                      -0.01333899 [mEh]      -0.00837034 [kcal/mol]      -0.03502152 [kJ/mol]
      Ind20,r                      -0.01723389 [mEh]      -0.01081443 [kcal/mol]      -0.04524757 [kJ/mol]
      Ind22                         0.00376070 [mEh]       0.00235987 [kcal/mol]       0.00987371 [kJ/mol]
      Exch-Ind20,r                  0.00054950 [mEh]       0.00034481 [kcal/mol]       0.00144270 [kJ/mol]
      Exch-Ind22                   -0.00011991 [mEh]      -0.00007524 [kcal/mol]      -0.00031482 [kJ/mol]
      delta HF,r (2)               -0.00029539 [mEh]      -0.00018536 [kcal/mol]      -0.00077554 [kJ/mol]

    Dispersion                     -0.28370708 [mEh]      -0.17802888 [kcal/mol]      -0.74487284 [kJ/mol]
      Disp20                       -0.31017865 [mEh]      -0.19464004 [kcal/mol]      -0.81437394 [kJ/mol]
      Disp21                        0.08936430 [mEh]       0.05607694 [kcal/mol]       0.23462593 [kJ/mol]
      Disp22 (SDQ)                 -0.00207437 [mEh]      -0.00130169 [kcal/mol]      -0.00544626 [kJ/mol]
      Disp22 (T)                   -0.06040305 [mEh]      -0.03790348 [kcal/mol]      -0.15858818 [kJ/mol]
      Est. Disp22 (T)              -0.06113759 [mEh]      -0.03836442 [kcal/mol]      -0.16051672 [kJ/mol]
      Exch-Disp20                   0.00031923 [mEh]       0.00020032 [kcal/mol]       0.00083814 [kJ/mol]

  Total HF                         -0.34173046 [mEh]      -0.21443910 [kcal/mol]      -0.89721321 [kJ/mol]
  Total SAPT0                      -0.65158988 [mEh]      -0.40887882 [kcal/mol]      -1.71074900 [kJ/mol]
  Total SAPT2                      -0.54902198 [mEh]      -0.34451649 [kcal/mol]      -1.44145701 [kJ/mol]
  Total SAPT2+                     -0.52286964 [mEh]      -0.32810565 [kcal/mol]      -1.37279405 [kJ/mol]

  Special recipe for scaled SAPT0 (see Manual):
    Electrostatics sSAPT0          -0.32581079 [mEh]      -0.20444936 [kcal/mol]      -0.85541612 [kJ/mol]
    Exchange sSAPT0                 0.00106011 [mEh]       0.00066523 [kcal/mol]       0.00278333 [kJ/mol]
    Induction sSAPT0               -0.01697978 [mEh]      -0.01065497 [kcal/mol]      -0.04458041 [kJ/mol]
    Dispersion sSAPT0              -0.30985942 [mEh]      -0.19443972 [kcal/mol]      -0.81353579 [kJ/mol]
  Total sSAPT0                     -0.65158988 [mEh]      -0.40887882 [kcal/mol]      -1.71074900 [kJ/mol]
  --------------------------------------------------------------------------------------------------------

*** Psi4 exiting successfully. Buy a developer a beer!
