                               Psi4 1.4a2.dev224

  ==> Input File <==

--------------------------------------------------------------------------
#Generated by lconvert.py for sapt job

memory 20 GB

molecule  {
0 1
  C       0.606790    1.330420    0.316440
  H       1.246500    2.202260    0.330350
  C       1.118080    0.087250    0.685120
  H       2.150060   -0.003890    0.993760
  C       0.292900   -1.036090    0.669110
  H       0.688500   -2.000960    0.955380
  C      -1.042830   -0.916710    0.288190
  H      -1.682710   -1.788490    0.279350
  C      -1.553590    0.327350   -0.079940
  H      -2.589230    0.420290   -0.377350
  C      -0.728040    1.450840   -0.066850
  H      -1.123620    2.415660   -0.353860
--
0 1
  C       0.315140   -0.119290    4.942490
  O       1.510630    0.044660    5.019010
  O      -0.264360   -1.330690    5.141930
  H       0.470090   -1.931800    5.334970
  C      -0.706750    0.924640    4.621810
  H      -0.228450    1.895590    4.574990
  H      -1.159550    0.691450    3.659100
  H      -1.491600    0.919110    5.374310
units angstrom
no_reorient
symmetry c1
}

set {
scf_type DF
basis aug-cc-pvdz
freeze_core True
guess SAD
}
energy('sapt2+')
--------------------------------------------------------------------------

  //              Dimer HF             //
    Molecular point group: c1
  Charge       = 0
  Multiplicity = 1
  Basis Set: AUG-CC-PVDZ
    Blend: AUG-CC-PVDZ
  Basis Set: (AUG-CC-PVDZ AUX)
    Blend: AUG-CC-PVDZ-JKFIT
  @DF-RHF Final Energy:  -458.57832955660149
    Total Energy =                       -458.5783295566014885
  //            Monomer A HF           //
    Molecular point group: c1
  Multiplicity = 1
  Basis Set: AUG-CC-PVDZ
    Blend: AUG-CC-PVDZ
  Basis Set: (AUG-CC-PVDZ AUX)
    Blend: AUG-CC-PVDZ-JKFIT
  @DF-RHF Final Energy:  -230.72828850732037
    Total Energy =                       -230.7282885073203715
  //            Monomer B HF           //
    Molecular point group: c1

    Geometry (in Angstrom), charge = 0, multiplicity = 1:

       Center              X                  Y                   Z               Mass
    ------------   -----------------  -----------------  -----------------  -----------------
      Gh(C)           0.637171656416     1.280790422614    -2.001064107505    12.000000000000
      Gh(H)           1.276881656416     2.152630422614    -1.987154107505     1.007825032230
      Gh(C)           1.148461656416     0.037620422614    -1.632384107505    12.000000000000
      Gh(H)           2.180441656416    -0.053519577386    -1.323744107505     1.007825032230
      Gh(C)           0.323281656416    -1.085719577386    -1.648394107505    12.000000000000
      Gh(H)           0.718881656416    -2.050589577386    -1.362124107505     1.007825032230
      Gh(C)          -1.012448343584    -0.966339577386    -2.029314107505    12.000000000000
      Gh(H)          -1.652328343584    -1.838119577386    -2.038154107505     1.007825032230
      Gh(C)          -1.523208343584     0.277720422614    -2.397444107505    12.000000000000
      Gh(H)          -2.558848343584     0.370660422614    -2.694854107505     1.007825032230
      Gh(C)          -0.697658343584     1.401210422614    -2.384354107505    12.000000000000
      Gh(H)          -1.093238343584     2.366030422614    -2.671364107505     1.007825032230
         C            0.345521656416    -0.168919577386     2.624985892495    12.000000000000
         O            1.541011656416    -0.004969577386     2.701505892495    15.994914619570
         O           -0.233978343584    -1.380319577386     2.824425892495    15.994914619570
         H            0.500471656416    -1.981429577386     3.017465892495     1.007825032230
         C           -0.676368343584     0.875010422614     2.304305892495    12.000000000000
         H           -0.198068343584     1.845960422614     2.257485892495     1.007825032230
         H           -1.129168343584     0.641820422614     1.341595892495     1.007825032230
         H           -1.461218343584     0.869480422614     3.056805892495     1.007825032230

  Charge       = 0
  Multiplicity = 1
  Basis Set: AUG-CC-PVDZ
    Blend: AUG-CC-PVDZ
  Basis Set: (AUG-CC-PVDZ AUX)
    Blend: AUG-CC-PVDZ-JKFIT

    Orbital Energies [Eh]
    ---------------------

    Doubly Occupied:

       1A    -20.624330     2A    -20.563812     3A    -11.400534
       4A    -11.253996     5A     -1.471335     6A     -1.367092
       7A     -1.033582     8A     -0.824409     9A     -0.710340
      10A     -0.682982    11A     -0.652713    12A     -0.587734
      13A     -0.575865    14A     -0.563337    15A     -0.485089
      16A     -0.456894

  @DF-RHF Final Energy:  -227.84892460695400

   => Energetics <=

    Nuclear Repulsion Energy =            121.2357765558105598
    One-Electron Energy =                -551.6613169480408487
    Two-Electron Energy =                 202.5766157852762888
    Total Energy =                       -227.8489246069540002

  Dipole Moment: [D]
     X:    -1.9845      Y:    -0.1464      Z:    -0.1724     Total:     1.9973

    SAPT Results
  --------------------------------------------------------------------------------------------------------
    Electrostatics                 -1.04007306 [mEh]      -0.65265570 [kcal/mol]      -2.73071143 [kJ/mol]
      Elst10,r                     -1.38554153 [mEh]      -0.86944044 [kcal/mol]      -3.63773880 [kJ/mol]
      Elst12,r                      0.34546848 [mEh]       0.21678474 [kcal/mol]       0.90702736 [kJ/mol]

    Exchange                        0.52831008 [mEh]       0.33151958 [kcal/mol]       1.38707791 [kJ/mol]
      Exch10                        0.47400711 [mEh]       0.29744395 [kcal/mol]       1.24450549 [kJ/mol]
      Exch10(S^2)                   0.47394663 [mEh]       0.29740600 [kcal/mol]       1.24434670 [kJ/mol]
      Exch11(S^2)                   0.00619944 [mEh]       0.00389021 [kcal/mol]       0.01627662 [kJ/mol]
      Exch12(S^2)                   0.04810353 [mEh]       0.03018542 [kcal/mol]       0.12629581 [kJ/mol]

    Induction                      -0.19095536 [mEh]      -0.11982630 [kcal/mol]      -0.50135322 [kJ/mol]
      Ind20,r                      -0.29889430 [mEh]      -0.18755900 [kcal/mol]      -0.78474687 [kJ/mol]
      Ind22                         0.02607759 [mEh]       0.01636393 [kcal/mol]       0.06846670 [kJ/mol]
      Exch-Ind20,r                  0.13897402 [mEh]       0.08720751 [kcal/mol]       0.36487623 [kJ/mol]
      Exch-Ind22                   -0.01212505 [mEh]      -0.00760858 [kcal/mol]      -0.03183430 [kJ/mol]
      delta HF,r (2)               -0.04498762 [mEh]      -0.02823016 [kcal/mol]      -0.11811497 [kJ/mol]

    Dispersion                     -2.38049536 [mEh]      -1.49378339 [kcal/mol]      -6.24998972 [kJ/mol]
      Disp20                       -2.60981902 [mEh]      -1.63768616 [kcal/mol]      -6.85207890 [kJ/mol]
      Disp21                        0.63251418 [mEh]       0.39690864 [kcal/mol]       1.66066575 [kJ/mol]
      Disp22 (SDQ)                  0.00971467 [mEh]       0.00609605 [kcal/mol]       0.02550586 [kJ/mol]
      Disp22 (T)                   -0.47427554 [mEh]      -0.29761240 [kcal/mol]      -1.24521027 [kJ/mol]
      Est. Disp22 (T)              -0.49865998 [mEh]      -0.31291386 [kcal/mol]      -1.30923159 [kJ/mol]
      Exch-Disp20                   0.08575479 [mEh]       0.05381194 [kcal/mol]       0.22514917 [kJ/mol]

  Total HF                         -1.11644233 [mEh]      -0.70057814 [kcal/mol]      -2.93121893 [kJ/mol]
  Total SAPT0                      -3.64050656 [mEh]      -2.28445236 [kcal/mol]      -9.55814866 [kJ/mol]
  Total SAPT2                      -3.22678257 [mEh]      -2.02483664 [kcal/mol]      -8.47191648 [kJ/mol]
  Total SAPT2+                     -3.08321370 [mEh]      -1.93474581 [kcal/mol]      -8.09497646 [kJ/mol]

  Special recipe for scaled SAPT0 (see Manual):
    Electrostatics sSAPT0          -1.38554153 [mEh]      -0.86944044 [kcal/mol]      -3.63773880 [kJ/mol]
    Exchange sSAPT0                 0.47400711 [mEh]       0.29744395 [kcal/mol]       1.24450549 [kJ/mol]
    Induction sSAPT0               -0.20485469 [mEh]      -0.12854826 [kcal/mol]      -0.53784592 [kJ/mol]
    Dispersion sSAPT0              -2.52403140 [mEh]      -1.58385362 [kcal/mol]      -6.62684353 [kJ/mol]
  Total sSAPT0                     -3.64042052 [mEh]      -2.28439837 [kcal/mol]      -9.55792276 [kJ/mol]
  --------------------------------------------------------------------------------------------------------

*** Psi4 exiting successfully. Buy a developer a beer!
