                               Psi4 1.4a2.dev224

  ==> Input File <==

--------------------------------------------------------------------------
#Generated by lconvert.py for sapt job

memory 20 GB

molecule  {
0 1
  C       0.606790    1.330420    0.316440
  H       1.246500    2.202260    0.330350
  C       1.118080    0.087250    0.685120
  H       2.150060   -0.003890    0.993760
  C       0.292900   -1.036090    0.669110
  H       0.688500   -2.000960    0.955380
  C      -1.042830   -0.916710    0.288190
  H      -1.682710   -1.788490    0.279350
  C      -1.553590    0.327350   -0.079940
  H      -2.589230    0.420290   -0.377350
  C      -0.728040    1.450840   -0.066850
  H      -1.123620    2.415660   -0.353860
--
0 1
  C       0.211490    0.032810    5.858230
  O       1.406980    0.196760    5.934750
  O      -0.368010   -1.178600    6.057670
  H       0.366440   -1.779700    6.250710
  C      -0.810390    1.076740    5.537550
  H      -0.332100    2.047690    5.490730
  H      -1.263190    0.843540    4.574850
  H      -1.595240    1.071200    6.290050
units angstrom
no_reorient
symmetry c1
}

set {
scf_type DF
basis aug-cc-pvdz
freeze_core True
guess SAD
}
energy('sapt2+')
--------------------------------------------------------------------------

  //              Dimer HF             //
    Molecular point group: c1
  Charge       = 0
  Multiplicity = 1
  Basis Set: AUG-CC-PVDZ
    Blend: AUG-CC-PVDZ
  Basis Set: (AUG-CC-PVDZ AUX)
    Blend: AUG-CC-PVDZ-JKFIT
  @DF-RHF Final Energy:  -458.57755471929454
    Total Energy =                       -458.5775547192945396
  //            Monomer A HF           //
    Molecular point group: c1
  Multiplicity = 1
  Basis Set: AUG-CC-PVDZ
    Blend: AUG-CC-PVDZ
  Basis Set: (AUG-CC-PVDZ AUX)
    Blend: AUG-CC-PVDZ-JKFIT
  @DF-RHF Final Energy:  -230.72807982004605
    Total Energy =                       -230.7280798200460481
  //            Monomer B HF           //
    Molecular point group: c1

    Geometry (in Angstrom), charge = 0, multiplicity = 1:

       Center              X                  Y                   Z               Mass
    ------------   -----------------  -----------------  -----------------  -----------------
      Gh(C)           0.682229499780     1.214670623597    -2.399155826173    12.000000000000
      Gh(H)           1.321939499780     2.086510623597    -2.385245826173     1.007825032230
      Gh(C)           1.193519499780    -0.028499376403    -2.030475826173    12.000000000000
      Gh(H)           2.225499499780    -0.119639376403    -1.721835826173     1.007825032230
      Gh(C)           0.368339499780    -1.151839376403    -2.046485826173    12.000000000000
      Gh(H)           0.763939499780    -2.116709376403    -1.760215826173     1.007825032230
      Gh(C)          -0.967390500220    -1.032459376403    -2.427405826173    12.000000000000
      Gh(H)          -1.607270500220    -1.904239376403    -2.436245826173     1.007825032230
      Gh(C)          -1.478150500220     0.211600623597    -2.795535826173    12.000000000000
      Gh(H)          -2.513790500220     0.304540623597    -3.092945826173     1.007825032230
      Gh(C)          -0.652600500220     1.335090623597    -2.782445826173    12.000000000000
      Gh(H)          -1.048180500220     2.299910623597    -3.069455826173     1.007825032230
         C            0.286929499780    -0.082939376403     3.142634173827    12.000000000000
         O            1.482419499780     0.081010623597     3.219154173827    15.994914619570
         O           -0.292570500220    -1.294349376403     3.342074173827    15.994914619570
         H            0.441879499780    -1.895449376403     3.535114173827     1.007825032230
         C           -0.734950500220     0.960990623597     2.821954173827    12.000000000000
         H           -0.256660500220     1.931940623597     2.775134173827     1.007825032230
         H           -1.187750500220     0.727790623597     1.859254173827     1.007825032230
         H           -1.519800500220     0.955450623597     3.574454173827     1.007825032230

  Charge       = 0
  Multiplicity = 1
  Basis Set: AUG-CC-PVDZ
    Blend: AUG-CC-PVDZ
  Basis Set: (AUG-CC-PVDZ AUX)
    Blend: AUG-CC-PVDZ-JKFIT

    Orbital Energies [Eh]
    ---------------------

    Doubly Occupied:

       1A    -20.624310     2A    -20.563790     3A    -11.400549
       4A    -11.254041     5A     -1.471349     6A     -1.367108
       7A     -1.033589     8A     -0.824421     9A     -0.710354
      10A     -0.682993    11A     -0.652721    12A     -0.587744
      13A     -0.575873    14A     -0.563339    15A     -0.485095
      16A     -0.456906

  @DF-RHF Final Energy:  -227.84882676867409

   => Energetics <=

    Nuclear Repulsion Energy =            121.2357761900240831
    One-Electron Energy =                -551.6608442545546040
    Two-Electron Energy =                 202.5762412958564482
    Total Energy =                       -227.8488267686740869

  Dipole Moment: [D]
     X:    -1.9841      Y:    -0.1457      Z:    -0.1738     Total:     1.9970

    SAPT Results
  --------------------------------------------------------------------------------------------------------
    Electrostatics                 -0.43547155 [mEh]      -0.27326253 [kcal/mol]      -1.14333041 [kJ/mol]
      Elst10,r                     -0.61874640 [mEh]      -0.38826923 [kcal/mol]      -1.62451846 [kJ/mol]
      Elst12,r                      0.18327485 [mEh]       0.11500671 [kcal/mol]       0.48118805 [kJ/mol]

    Exchange                        0.02546002 [mEh]       0.01597641 [kcal/mol]       0.06684528 [kJ/mol]
      Exch10                        0.02197673 [mEh]       0.01379061 [kcal/mol]       0.05769990 [kJ/mol]
      Exch10(S^2)                   0.02197665 [mEh]       0.01379055 [kcal/mol]       0.05769968 [kJ/mol]
      Exch11(S^2)                  -0.00008716 [mEh]      -0.00005470 [kcal/mol]      -0.00022884 [kJ/mol]
      Exch12(S^2)                   0.00357046 [mEh]       0.00224049 [kcal/mol]       0.00937423 [kJ/mol]

    Induction                      -0.04268636 [mEh]      -0.02678610 [kcal/mol]      -0.11207303 [kJ/mol]
      Ind20,r                      -0.05489389 [mEh]      -0.03444644 [kcal/mol]      -0.14412390 [kJ/mol]
      Ind22                         0.00996351 [mEh]       0.00625220 [kcal/mol]       0.02615920 [kJ/mol]
      Exch-Ind20,r                  0.00710160 [mEh]       0.00445632 [kcal/mol]       0.01864524 [kJ/mol]
      Exch-Ind22                   -0.00128898 [mEh]      -0.00080884 [kcal/mol]      -0.00338420 [kJ/mol]
      delta HF,r (2)               -0.00356860 [mEh]      -0.00223933 [kcal/mol]      -0.00936937 [kJ/mol]

    Dispersion                     -0.74841214 [mEh]      -0.46963571 [kcal/mol]      -1.96495580 [kJ/mol]
      Disp20                       -0.81268894 [mEh]      -0.50997001 [kcal/mol]      -2.13371451 [kJ/mol]
      Disp21                        0.21963478 [mEh]       0.13782290 [kcal/mol]       0.57665103 [kJ/mol]
      Disp22 (SDQ)                 -0.00197531 [mEh]      -0.00123953 [kcal/mol]      -0.00518619 [kJ/mol]
      Disp22 (T)                   -0.15481834 [mEh]      -0.09714998 [kcal/mol]      -0.40647551 [kJ/mol]
      Est. Disp22 (T)              -0.15863712 [mEh]      -0.09954630 [kcal/mol]      -0.41650171 [kJ/mol]
      Exch-Disp20                   0.00525446 [mEh]       0.00329722 [kcal/mol]       0.01379558 [kJ/mol]

  Total HF                         -0.64813057 [mEh]      -0.40670808 [kcal/mol]      -1.70166659 [kJ/mol]
  Total SAPT0                      -1.45556505 [mEh]      -0.91338086 [kcal/mol]      -3.82158552 [kJ/mol]
  Total SAPT2                      -1.26013237 [mEh]      -0.79074500 [kcal/mol]      -3.30847708 [kJ/mol]
  Total SAPT2+                     -1.20111003 [mEh]      -0.75370792 [kcal/mol]      -3.15351395 [kJ/mol]

  Special recipe for scaled SAPT0 (see Manual):
    Electrostatics sSAPT0          -0.61874640 [mEh]      -0.38826923 [kcal/mol]      -1.62451846 [kJ/mol]
    Exchange sSAPT0                 0.02197673 [mEh]       0.01379061 [kcal/mol]       0.05769990 [kJ/mol]
    Induction sSAPT0               -0.05136082 [mEh]      -0.03222940 [kcal/mol]      -0.13484782 [kJ/mol]
    Dispersion sSAPT0              -0.80743442 [mEh]      -0.50667275 [kcal/mol]      -2.11991877 [kJ/mol]
  Total sSAPT0                     -1.45556491 [mEh]      -0.91338077 [kcal/mol]      -3.82158515 [kJ/mol]
  --------------------------------------------------------------------------------------------------------

*** Psi4 exiting successfully. Buy a developer a beer!
