                               Psi4 1.4a2.dev224

  ==> Input File <==

--------------------------------------------------------------------------
#Generated by lconvert.py for sapt job

memory 20 GB

molecule  {
0 1
  C       1.629720    0.503010    0.270110
  H       1.641570    1.459240   -0.248080
  H       2.315320   -0.183550   -0.217590
  H       1.969750    0.649360    1.293980
  C       0.261830   -0.132860    0.314560
  O       0.099250   -1.309620    0.611840
  N      -0.773500    0.702510    0.022080
  H      -0.569010    1.666560   -0.165810
  C      -2.150010    0.265970    0.095050
  H      -2.144740   -0.819410    0.100910
  H      -2.640540    0.615820    1.003600
  H      -2.707740    0.620750   -0.768260
--
0 1
  C       0.076760    0.510430    4.586360
  H       0.071870    1.252600    5.372240
  H      -0.571780    0.678200    3.737680
  C       0.845270   -0.576530    4.656170
  H       1.490570   -0.748360    5.506300
  H       0.840150   -1.311740    3.863860
units angstrom
no_reorient
symmetry c1
}

set {
scf_type DF
basis aug-cc-pvdz
freeze_core True
guess SAD
}
energy('sapt2+')
--------------------------------------------------------------------------

  //              Dimer HF             //
    Molecular point group: c1
  Charge       = 0
  Multiplicity = 1
  Basis Set: AUG-CC-PVDZ
    Blend: AUG-CC-PVDZ
  Basis Set: (AUG-CC-PVDZ AUX)
    Blend: AUG-CC-PVDZ-JKFIT
  @DF-RHF Final Energy:  -325.08651333067365
    Total Energy =                       -325.0865133306736539
  //            Monomer A HF           //
    Molecular point group: c1
  Multiplicity = 1
  Basis Set: AUG-CC-PVDZ
    Blend: AUG-CC-PVDZ
  Basis Set: (AUG-CC-PVDZ AUX)
    Blend: AUG-CC-PVDZ-JKFIT
  @DF-RHF Final Energy:  -247.04193914206959
    Total Energy =                       -247.0419391420695661
  //            Monomer B HF           //
    Molecular point group: c1

    Geometry (in Angstrom), charge = 0, multiplicity = 1:

       Center              X                  Y                   Z               Mass
    ------------   -----------------  -----------------  -----------------  -----------------
      Gh(C)           1.645429754359     0.506570339516    -1.201870478931    12.000000000000
      Gh(H)           1.657279754359     1.462800339516    -1.720060478931     1.007825032230
      Gh(H)           2.331029754359    -0.179989660484    -1.689570478931     1.007825032230
      Gh(H)           1.985459754359     0.652920339516    -0.178000478931     1.007825032230
      Gh(C)           0.277539754359    -0.129299660484    -1.157420478931    12.000000000000
      Gh(O)           0.114959754359    -1.306059660484    -0.860140478931    15.994914619570
      Gh(N)          -0.757790245641     0.706070339516    -1.449900478931    14.003074004430
      Gh(H)          -0.553300245641     1.670120339516    -1.637790478931     1.007825032230
      Gh(C)          -2.134300245641     0.269530339516    -1.376930478931    12.000000000000
      Gh(H)          -2.129030245641    -0.815849660484    -1.371070478931     1.007825032230
      Gh(H)          -2.624830245641     0.619380339516    -0.468380478931     1.007825032230
      Gh(H)          -2.692030245641     0.624310339516    -2.240240478931     1.007825032230
         C            0.092469754359     0.513990339516     3.114379521069    12.000000000000
         H            0.087579754359     1.256160339516     3.900259521069     1.007825032230
         H           -0.556070245641     0.681760339516     2.265699521069     1.007825032230
         C            0.860979754359    -0.572969660484     3.184189521069    12.000000000000
         H            1.506279754359    -0.744799660484     4.034319521069     1.007825032230
         H            0.855859754359    -1.308179660484     2.391879521069     1.007825032230

  Charge       = 0
  Multiplicity = 1
  Basis Set: AUG-CC-PVDZ
    Blend: AUG-CC-PVDZ
  Basis Set: (AUG-CC-PVDZ AUX)
    Blend: AUG-CC-PVDZ-JKFIT

    Orbital Energies [Eh]
    ---------------------

    Doubly Occupied:

       1A    -11.238826     2A    -11.237150     3A     -1.036830
       4A     -0.793575     5A     -0.645640     6A     -0.586129
       7A     -0.508454     8A     -0.376464

  @DF-RHF Final Energy:   -78.04361828724717

   => Energetics <=

    Nuclear Repulsion Energy =             33.4189563951547157
    One-Electron Energy =                -170.0790132863878341
    Two-Electron Energy =                  58.6164386039859551
    Total Energy =                        -78.0436182872471704

  Dipole Moment: [D]
     X:    -0.0018      Y:     0.0030      Z:     0.0063     Total:     0.0072

    SAPT Results
  --------------------------------------------------------------------------------------------------------
    Electrostatics                 -0.98640952 [mEh]      -0.61898132 [kcal/mol]      -2.58981783 [kJ/mol]
      Elst10,r                     -1.20744955 [mEh]      -0.75768603 [kcal/mol]      -3.17015835 [kJ/mol]
      Elst12,r                      0.22104003 [mEh]       0.13870471 [kcal/mol]       0.58034052 [kJ/mol]

    Exchange                        0.57028007 [mEh]       0.35785615 [kcal/mol]       1.49727012 [kJ/mol]
      Exch10                        0.50107864 [mEh]       0.31443160 [kcal/mol]       1.31558180 [kJ/mol]
      Exch10(S^2)                   0.50098515 [mEh]       0.31437293 [kcal/mol]       1.31533633 [kJ/mol]
      Exch11(S^2)                   0.00235141 [mEh]       0.00147553 [kcal/mol]       0.00617363 [kJ/mol]
      Exch12(S^2)                   0.06685002 [mEh]       0.04194902 [kcal/mol]       0.17551470 [kJ/mol]

    Induction                      -0.22979400 [mEh]      -0.14419792 [kcal/mol]      -0.60332408 [kJ/mol]
      Ind20,r                      -0.30697983 [mEh]      -0.19263275 [kcal/mol]      -0.80597542 [kJ/mol]
      Ind22                         0.02854885 [mEh]       0.01791468 [kcal/mol]       0.07495500 [kJ/mol]
      Exch-Ind20,r                  0.09475795 [mEh]       0.05946151 [kcal/mol]       0.24878696 [kJ/mol]
      Exch-Ind22                   -0.00881241 [mEh]      -0.00552987 [kcal/mol]      -0.02313697 [kJ/mol]
      delta HF,r (2)               -0.03730857 [mEh]      -0.02341148 [kcal/mol]      -0.09795365 [kJ/mol]

    Dispersion                     -1.92209022 [mEh]      -1.20612982 [kcal/mol]      -5.04644717 [kJ/mol]
      Disp20                       -1.93634740 [mEh]      -1.21507634 [kcal/mol]      -5.08387941 [kJ/mol]
      Disp21                        0.22612720 [mEh]       0.14189696 [kcal/mol]       0.59369687 [kJ/mol]
      Disp22 (SDQ)                  0.04112492 [mEh]       0.02580628 [kcal/mol]       0.10797346 [kJ/mol]
      Disp22 (T)                   -0.30498914 [mEh]      -0.19138357 [kcal/mol]      -0.80074888 [kJ/mol]
      Est. Disp22 (T)              -0.32276932 [mEh]      -0.20254080 [kcal/mol]      -0.84743072 [kJ/mol]
      Exch-Disp20                   0.06977439 [mEh]       0.04378409 [kcal/mol]       0.18319262 [kJ/mol]

  Total HF                         -0.95590136 [mEh]      -0.59983716 [kcal/mol]      -2.50971867 [kJ/mol]
  Total SAPT0                      -2.82247437 [mEh]      -1.77112941 [kcal/mol]      -7.41040545 [kJ/mol]
  Total SAPT2                      -2.51249647 [mEh]      -1.57661534 [kcal/mol]      -6.59655857 [kJ/mol]
  Total SAPT2+                     -2.56801367 [mEh]      -1.61145291 [kcal/mol]      -6.74231896 [kJ/mol]

  Special recipe for scaled SAPT0 (see Manual):
    Electrostatics sSAPT0          -1.20744955 [mEh]      -0.75768603 [kcal/mol]      -3.17015835 [kJ/mol]
    Exchange sSAPT0                 0.50107864 [mEh]       0.31443160 [kcal/mol]       1.31558180 [kJ/mol]
    Induction sSAPT0               -0.24947739 [mEh]      -0.15654943 [kcal/mol]      -0.65500280 [kJ/mol]
    Dispersion sSAPT0              -1.86653395 [mEh]      -1.17126773 [kcal/mol]      -4.90058420 [kJ/mol]
  Total sSAPT0                     -2.82238224 [mEh]      -1.77107160 [kcal/mol]      -7.41016356 [kJ/mol]
  --------------------------------------------------------------------------------------------------------

*** Psi4 exiting successfully. Buy a developer a beer!
