                               Psi4 1.4a2.dev224

  ==> Input File <==

--------------------------------------------------------------------------
#Generated by lconvert.py for sapt job

memory 20 GB

molecule  {
0 1
  C       1.629720    0.503010    0.270110
  H       1.641570    1.459240   -0.248080
  H       2.315320   -0.183550   -0.217590
  H       1.969750    0.649360    1.293980
  C       0.261830   -0.132860    0.314560
  O       0.099250   -1.309620    0.611840
  N      -0.773500    0.702510    0.022080
  H      -0.569010    1.666560   -0.165810
  C      -2.150010    0.265970    0.095050
  H      -2.144740   -0.819410    0.100910
  H      -2.640540    0.615820    1.003600
  H      -2.707740    0.620750   -0.768260
--
0 1
  C       0.308660    0.496100    6.119860
  H       0.303780    1.238270    6.905740
  H      -0.339880    0.663870    5.271180
  C       1.077170   -0.590860    6.189670
  H       1.722470   -0.762690    7.039800
  H       1.072050   -1.326060    5.397360
units angstrom
no_reorient
symmetry c1
}

set {
scf_type DF
basis aug-cc-pvdz
freeze_core True
guess SAD
}
energy('sapt2+')
--------------------------------------------------------------------------

  //              Dimer HF             //
    Molecular point group: c1
  Charge       = 0
  Multiplicity = 1
  Basis Set: AUG-CC-PVDZ
    Blend: AUG-CC-PVDZ
  Basis Set: (AUG-CC-PVDZ AUX)
    Blend: AUG-CC-PVDZ-JKFIT
  @DF-RHF Final Energy:  -325.08561614874884
    Total Energy =                       -325.0856161487488407
  //            Monomer A HF           //
    Molecular point group: c1
  Multiplicity = 1
  Basis Set: AUG-CC-PVDZ
    Blend: AUG-CC-PVDZ
  Basis Set: (AUG-CC-PVDZ AUX)
    Blend: AUG-CC-PVDZ-JKFIT
  @DF-RHF Final Energy:  -247.04178375078078
    Total Energy =                       -247.0417837507807803
  //            Monomer B HF           //
    Molecular point group: c1

    Geometry (in Angstrom), charge = 0, multiplicity = 1:

       Center              X                  Y                   Z               Mass
    ------------   -----------------  -----------------  -----------------  -----------------
      Gh(C)           1.581122203571     0.510544046516    -1.627120484281    12.000000000000
      Gh(H)           1.592972203571     1.466774046516    -2.145310484281     1.007825032230
      Gh(H)           2.266722203571    -0.176015953484    -2.114820484281     1.007825032230
      Gh(H)           1.921152203571     0.656894046516    -0.603250484281     1.007825032230
      Gh(C)           0.213232203571    -0.125325953484    -1.582670484281    12.000000000000
      Gh(O)           0.050652203571    -1.302085953484    -1.285390484281    15.994914619570
      Gh(N)          -0.822097796429     0.710044046516    -1.875150484281    14.003074004430
      Gh(H)          -0.617607796429     1.674094046516    -2.063040484281     1.007825032230
      Gh(C)          -2.198607796429     0.273504046516    -1.802180484281    12.000000000000
      Gh(H)          -2.193337796429    -0.811875953484    -1.796320484281     1.007825032230
      Gh(H)          -2.689137796429     0.623354046516    -0.893630484281     1.007825032230
      Gh(H)          -2.756337796429     0.628284046516    -2.665490484281     1.007825032230
         C            0.260062203571     0.503634046516     4.222629515719    12.000000000000
         H            0.255182203571     1.245804046516     5.008509515719     1.007825032230
         H           -0.388477796429     0.671404046516     3.373949515719     1.007825032230
         C            1.028572203571    -0.583325953484     4.292439515719    12.000000000000
         H            1.673872203571    -0.755155953484     5.142569515719     1.007825032230
         H            1.023452203571    -1.318525953484     3.500129515719     1.007825032230

  Charge       = 0
  Multiplicity = 1
  Basis Set: AUG-CC-PVDZ
    Blend: AUG-CC-PVDZ
  Basis Set: (AUG-CC-PVDZ AUX)
    Blend: AUG-CC-PVDZ-JKFIT

    Orbital Energies [Eh]
    ---------------------

    Doubly Occupied:

       1A    -11.238883     2A    -11.237208     3A     -1.036839
       4A     -0.793579     5A     -0.645636     6A     -0.586126
       7A     -0.508454     8A     -0.376464

  @DF-RHF Final Energy:   -78.04351919272295

   => Energetics <=

    Nuclear Repulsion Energy =             33.4189855930828799
    One-Electron Energy =                -170.0786319257646539
    Two-Electron Energy =                  58.6161271399588202
    Total Energy =                        -78.0435191927229539

  Dipole Moment: [D]
     X:    -0.0033      Y:     0.0016      Z:     0.0033     Total:     0.0049

    SAPT Results
  --------------------------------------------------------------------------------------------------------
    Electrostatics                 -0.21856848 [mEh]      -0.13715379 [kcal/mol]      -0.57385146 [kJ/mol]
      Elst10,r                     -0.28652468 [mEh]      -0.17979695 [kcal/mol]      -0.75227044 [kJ/mol]
      Elst12,r                      0.06795620 [mEh]       0.04264316 [kcal/mol]       0.17841898 [kJ/mol]

    Exchange                        0.00398724 [mEh]       0.00250203 [kcal/mol]       0.01046849 [kJ/mol]
      Exch10                        0.00352526 [mEh]       0.00221213 [kcal/mol]       0.00925557 [kJ/mol]
      Exch10(S^2)                   0.00352525 [mEh]       0.00221213 [kcal/mol]       0.00925554 [kJ/mol]
      Exch11(S^2)                  -0.00002275 [mEh]      -0.00001428 [kcal/mol]      -0.00005973 [kJ/mol]
      Exch12(S^2)                   0.00048473 [mEh]       0.00030417 [kcal/mol]       0.00127265 [kJ/mol]

    Induction                      -0.02471966 [mEh]      -0.01551182 [kcal/mol]      -0.06490146 [kJ/mol]
      Ind20,r                      -0.03052589 [mEh]      -0.01915529 [kcal/mol]      -0.08014572 [kJ/mol]
      Ind22                         0.00562422 [mEh]       0.00352925 [kcal/mol]       0.01476638 [kJ/mol]
      Exch-Ind20,r                  0.00074927 [mEh]       0.00047017 [kcal/mol]       0.00196720 [kJ/mol]
      Exch-Ind22                   -0.00013805 [mEh]      -0.00008663 [kcal/mol]      -0.00036245 [kJ/mol]
      delta HF,r (2)               -0.00042920 [mEh]      -0.00026933 [kcal/mol]      -0.00112687 [kJ/mol]

    Dispersion                     -0.29105737 [mEh]      -0.18264126 [kcal/mol]      -0.76417103 [kJ/mol]
      Disp20                       -0.29366572 [mEh]      -0.18427802 [kcal/mol]      -0.77101924 [kJ/mol]
      Disp21                        0.04337098 [mEh]       0.02721570 [kcal/mol]       0.11387050 [kJ/mol]
      Disp22 (SDQ)                  0.00773256 [mEh]       0.00485225 [kcal/mol]       0.02030183 [kJ/mol]
      Disp22 (T)                   -0.04832105 [mEh]      -0.03032192 [kcal/mol]      -0.12686690 [kJ/mol]
      Est. Disp22 (T)              -0.04917264 [mEh]      -0.03085630 [kcal/mol]      -0.12910274 [kJ/mol]
      Exch-Disp20                   0.00067744 [mEh]       0.00042510 [kcal/mol]       0.00177862 [kJ/mol]

  Total HF                         -0.31320525 [mEh]      -0.19653926 [kcal/mol]      -0.82232026 [kJ/mol]
  Total SAPT0                      -0.60619352 [mEh]      -0.38039218 [kcal/mol]      -1.59156087 [kJ/mol]
  Total SAPT2                      -0.53228918 [mEh]      -0.33401650 [kcal/mol]      -1.39752505 [kJ/mol]
  Total SAPT2+                     -0.53035827 [mEh]      -0.33280484 [kcal/mol]      -1.39245546 [kJ/mol]

  Special recipe for scaled SAPT0 (see Manual):
    Electrostatics sSAPT0          -0.28652468 [mEh]      -0.17979695 [kcal/mol]      -0.75227044 [kJ/mol]
    Exchange sSAPT0                 0.00352526 [mEh]       0.00221213 [kcal/mol]       0.00925557 [kJ/mol]
    Induction sSAPT0               -0.03020583 [mEh]      -0.01895444 [kcal/mol]      -0.07930539 [kJ/mol]
    Dispersion sSAPT0              -0.29298828 [mEh]      -0.18385292 [kcal/mol]      -0.76924062 [kJ/mol]
  Total sSAPT0                     -0.60619352 [mEh]      -0.38039218 [kcal/mol]      -1.59156087 [kJ/mol]
  --------------------------------------------------------------------------------------------------------

*** Psi4 exiting successfully. Buy a developer a beer!
