                               Psi4 1.4a2.dev224

  ==> Input File <==

--------------------------------------------------------------------------
#Generated by lconvert.py for sapt job

memory 20 GB

molecule  {
0 1
  C       1.629720    0.503010    0.270110
  H       1.641570    1.459240   -0.248080
  H       2.315320   -0.183550   -0.217590
  H       1.969750    0.649360    1.293980
  C       0.261830   -0.132860    0.314560
  O       0.099250   -1.309620    0.611840
  N      -0.773500    0.702510    0.022080
  H      -0.569010    1.666560   -0.165810
  C      -2.150010    0.265970    0.095050
  H      -2.144740   -0.819410    0.100910
  H      -2.640540    0.615820    1.003600
  H      -2.707740    0.620750   -0.768260
--
0 1
  C       0.192710    0.503260    5.353110
  H       0.187820    1.245440    6.138990
  H      -0.455830    0.671030    4.504430
  C       0.961220   -0.583700    5.422920
  H       1.606520   -0.755520    6.273050
  H       0.956100   -1.318900    4.630610
units angstrom
no_reorient
symmetry c1
}

set {
scf_type DF
basis aug-cc-pvdz
freeze_core True
guess SAD
}
energy('sapt2+')
--------------------------------------------------------------------------

  //              Dimer HF             //
    Molecular point group: c1
  Charge       = 0
  Multiplicity = 1
  Basis Set: AUG-CC-PVDZ
    Blend: AUG-CC-PVDZ
  Basis Set: (AUG-CC-PVDZ AUX)
    Blend: AUG-CC-PVDZ-JKFIT
  @DF-RHF Final Energy:  -325.08594327297988
    Total Energy =                       -325.0859432729798755
  //            Monomer A HF           //
    Molecular point group: c1
  Multiplicity = 1
  Basis Set: AUG-CC-PVDZ
    Blend: AUG-CC-PVDZ
  Basis Set: (AUG-CC-PVDZ AUX)
    Blend: AUG-CC-PVDZ-JKFIT
  @DF-RHF Final Energy:  -247.04181803434381
    Total Energy =                       -247.0418180343438053
  //            Monomer B HF           //
    Molecular point group: c1

    Geometry (in Angstrom), charge = 0, multiplicity = 1:

       Center              X                  Y                   Z               Mass
    ------------   -----------------  -----------------  -----------------  -----------------
      Gh(C)           1.613276028816     0.508558330296    -1.414495481606    12.000000000000
      Gh(H)           1.625126028816     1.464788330296    -1.932685481606     1.007825032230
      Gh(H)           2.298876028816    -0.178001669704    -1.902195481606     1.007825032230
      Gh(H)           1.953306028816     0.654908330296    -0.390625481606     1.007825032230
      Gh(C)           0.245386028816    -0.127311669704    -1.370045481606    12.000000000000
      Gh(O)           0.082806028816    -1.304071669704    -1.072765481606    15.994914619570
      Gh(N)          -0.789943971184     0.708058330296    -1.662525481606    14.003074004430
      Gh(H)          -0.585453971184     1.672108330296    -1.850415481606     1.007825032230
      Gh(C)          -2.166453971184     0.271518330296    -1.589555481606    12.000000000000
      Gh(H)          -2.161183971184    -0.813861669704    -1.583695481606     1.007825032230
      Gh(H)          -2.656983971184     0.621368330296    -0.681005481606     1.007825032230
      Gh(H)          -2.724183971184     0.626298330296    -2.452865481606     1.007825032230
         C            0.176266028816     0.508808330296     3.668504518394    12.000000000000
         H            0.171376028816     1.250988330296     4.454384518394     1.007825032230
         H           -0.472273971184     0.676578330296     2.819824518394     1.007825032230
         C            0.944776028816    -0.578151669704     3.738314518394    12.000000000000
         H            1.590076028816    -0.749971669704     4.588444518394     1.007825032230
         H            0.939656028816    -1.313351669704     2.946004518394     1.007825032230

  Charge       = 0
  Multiplicity = 1
  Basis Set: AUG-CC-PVDZ
    Blend: AUG-CC-PVDZ
  Basis Set: (AUG-CC-PVDZ AUX)
    Blend: AUG-CC-PVDZ-JKFIT

    Orbital Energies [Eh]
    ---------------------

    Doubly Occupied:

       1A    -11.238867     2A    -11.237191     3A     -1.036838
       4A     -0.793578     5A     -0.645636     6A     -0.586131
       7A     -0.508454     8A     -0.376467

  @DF-RHF Final Energy:   -78.04355462029831

   => Energetics <=

    Nuclear Repulsion Energy =             33.4189653728736644
    One-Electron Energy =                -170.0787148707212850
    Two-Electron Energy =                  58.6161948775493116
    Total Energy =                        -78.0435546202983232

  Dipole Moment: [D]
     X:    -0.0019      Y:     0.0026      Z:     0.0053     Total:     0.0063

    SAPT Results
  --------------------------------------------------------------------------------------------------------
    Electrostatics                 -0.41284722 [mEh]      -0.25906554 [kcal/mol]      -1.08393023 [kJ/mol]
      Elst10,r                     -0.53501314 [mEh]      -0.33572581 [kcal/mol]      -1.40467680 [kJ/mol]
      Elst12,r                      0.12216592 [mEh]       0.07666027 [kcal/mol]       0.32074657 [kJ/mol]

    Exchange                        0.04760689 [mEh]       0.02987377 [kcal/mol]       0.12499187 [kJ/mol]
      Exch10                        0.04159270 [mEh]       0.02609982 [kcal/mol]       0.10920163 [kJ/mol]
      Exch10(S^2)                   0.04159169 [mEh]       0.02609918 [kcal/mol]       0.10919896 [kJ/mol]
      Exch11(S^2)                  -0.00002433 [mEh]      -0.00001527 [kcal/mol]      -0.00006388 [kJ/mol]
      Exch12(S^2)                   0.00603851 [mEh]       0.00378922 [kcal/mol]       0.01585411 [kJ/mol]

    Induction                      -0.06526546 [mEh]      -0.04095470 [kcal/mol]      -0.17135445 [kJ/mol]
      Ind20,r                      -0.08091143 [mEh]      -0.05077269 [kcal/mol]      -0.21243292 [kJ/mol]
      Ind22                         0.01316619 [mEh]       0.00826191 [kcal/mol]       0.03456784 [kJ/mol]
      Exch-Ind20,r                  0.00758189 [mEh]       0.00475771 [kcal/mol]       0.01990625 [kJ/mol]
      Exch-Ind22                   -0.00123375 [mEh]      -0.00077419 [kcal/mol]      -0.00323921 [kJ/mol]
      delta HF,r (2)               -0.00386837 [mEh]      -0.00242744 [kcal/mol]      -0.01015639 [kJ/mol]

    Dispersion                     -0.69739054 [mEh]      -0.43761917 [kcal/mol]      -1.83099862 [kJ/mol]
      Disp20                       -0.69820942 [mEh]      -0.43813303 [kcal/mol]      -1.83314858 [kJ/mol]
      Disp21                        0.09362005 [mEh]       0.05874747 [kcal/mol]       0.24579940 [kJ/mol]
      Disp22 (SDQ)                  0.01683559 [mEh]       0.01056449 [kcal/mol]       0.04420182 [kJ/mol]
      Disp22 (T)                   -0.11239160 [mEh]      -0.07052679 [kcal/mol]      -0.29508411 [kJ/mol]
      Est. Disp22 (T)              -0.11662564 [mEh]      -0.07318369 [kcal/mol]      -0.30620058 [kJ/mol]
      Exch-Disp20                   0.00698889 [mEh]       0.00438559 [kcal/mol]       0.01834932 [kJ/mol]

  Total HF                         -0.57061834 [mEh]      -0.35806841 [kcal/mol]      -1.49815824 [kJ/mol]
  Total SAPT0                      -1.26183887 [mEh]      -0.79181585 [kcal/mol]      -3.31295750 [kJ/mol]
  Total SAPT2                      -1.12172633 [mEh]      -0.70389390 [kcal/mol]      -2.94509207 [kJ/mol]
  Total SAPT2+                     -1.12789634 [mEh]      -0.70776564 [kcal/mol]      -2.96129143 [kJ/mol]

  Special recipe for scaled SAPT0 (see Manual):
    Electrostatics sSAPT0          -0.53501314 [mEh]      -0.33572581 [kcal/mol]      -1.40467680 [kJ/mol]
    Exchange sSAPT0                 0.04159270 [mEh]       0.02609982 [kcal/mol]       0.10920163 [kJ/mol]
    Induction sSAPT0               -0.07719735 [mEh]      -0.04844207 [kcal/mol]      -0.20268161 [kJ/mol]
    Dispersion sSAPT0              -0.69122002 [mEh]      -0.43374711 [kcal/mol]      -1.81479791 [kJ/mol]
  Total sSAPT0                     -1.26183780 [mEh]      -0.79181517 [kcal/mol]      -3.31295469 [kJ/mol]
  --------------------------------------------------------------------------------------------------------

*** Psi4 exiting successfully. Buy a developer a beer!
