                               Psi4 1.4a2.dev224

  ==> Input File <==

--------------------------------------------------------------------------
#Generated by lconvert.py for sapt job

memory 20 GB

molecule  {
0 1
  N      -0.541060    0.029580   -0.208990
  H       0.055550   -0.786120   -0.130290
  H      -1.469670   -0.274710    0.053140
  C      -0.078800    1.042390    0.738460
  H      -0.720150    1.919410    0.671980
  H      -0.050760    0.723820    1.785510
  H       0.926430    1.356600    0.462000
--
0 1
  N       4.431520   -1.687000    0.176800
  C       4.769960   -0.874660   -0.834920
  H       4.227290   -1.019200   -1.760300
  C       5.741290    0.117470   -0.734550
  H       5.966140    0.741820   -1.587400
  C       6.402120    0.287020    0.477720
  H       7.159980    1.049250    0.594100
  C       6.061990   -0.547950    1.536840
  H       6.544580   -0.457480    2.499540
  C       5.078210   -1.512730    1.337660
  H       4.792130   -2.176480    2.144270
units angstrom
no_reorient
symmetry c1
}

set {
scf_type DF
basis aug-cc-pvdz
freeze_core True
guess SAD
}
energy('sapt2+')
--------------------------------------------------------------------------

  //              Dimer HF             //
    Molecular point group: c1
  Charge       = 0
  Multiplicity = 1
  Basis Set: AUG-CC-PVDZ
    Blend: AUG-CC-PVDZ
  Basis Set: (AUG-CC-PVDZ AUX)
    Blend: AUG-CC-PVDZ-JKFIT
  @DF-RHF Final Energy:  -341.95513643940620
    Total Energy =                       -341.9551364394062034
  //            Monomer A HF           //
    Molecular point group: c1
  Multiplicity = 1
  Basis Set: AUG-CC-PVDZ
    Blend: AUG-CC-PVDZ
  Basis Set: (AUG-CC-PVDZ AUX)
    Blend: AUG-CC-PVDZ-JKFIT
  @DF-RHF Final Energy:   -95.23058093231448
    Total Energy =                        -95.2305809323144814
  //            Monomer B HF           //
    Molecular point group: c1

    Geometry (in Angstrom), charge = 0, multiplicity = 1:

       Center              X                  Y                   Z               Mass
    ------------   -----------------  -----------------  -----------------  -----------------
      Gh(N)          -4.336528005943     0.392802751517    -0.523052155294    14.003074004430
      Gh(H)          -3.739918005943    -0.422897248483    -0.444352155294     1.007825032230
      Gh(H)          -5.265138005943     0.088512751517    -0.260922155294     1.007825032230
      Gh(C)          -3.874268005943     1.405612751517     0.424397844706    12.000000000000
      Gh(H)          -4.515618005943     2.282632751517     0.357917844706     1.007825032230
      Gh(H)          -3.846228005943     1.087042751517     1.471447844706     1.007825032230
      Gh(H)          -2.869038005943     1.719822751517     0.147937844706     1.007825032230
         N            0.636051994057    -1.323777248483    -0.137262155294    14.003074004430
         C            0.974491994057    -0.511437248483    -1.148982155294    12.000000000000
         H            0.431821994057    -0.655977248483    -2.074362155294     1.007825032230
         C            1.945821994057     0.480692751517    -1.048612155294    12.000000000000
         H            2.170671994057     1.105042751517    -1.901462155294     1.007825032230
         C            2.606651994057     0.650242751517     0.163657844706    12.000000000000
         H            3.364511994057     1.412472751517     0.280037844706     1.007825032230
         C            2.266521994057    -0.184727248483     1.222777844706    12.000000000000
         H            2.749111994057    -0.094257248483     2.185477844706     1.007825032230
         C            1.282741994057    -1.149507248483     1.023597844706    12.000000000000
         H            0.996661994057    -1.813257248483     1.830207844706     1.007825032230

  Charge       = 0
  Multiplicity = 1
  Basis Set: AUG-CC-PVDZ
    Blend: AUG-CC-PVDZ
  Basis Set: (AUG-CC-PVDZ AUX)
    Blend: AUG-CC-PVDZ-JKFIT

    Orbital Energies [Eh]
    ---------------------

    Doubly Occupied:

       1A    -15.575716     2A    -11.281966     3A    -11.281944
       4A    -11.266724     5A    -11.248798     6A    -11.248740
       7A     -1.259985     8A     -1.092816     9A     -1.036798
      10A     -0.861549    11A     -0.858160    12A     -0.723123
      13A     -0.661689    14A     -0.655413    15A     -0.599489
      16A     -0.577845    17A     -0.540976    18A     -0.520446
      19A     -0.419235    20A     -0.383637    21A     -0.347959

  @DF-RHF Final Energy:  -246.72394536633556

   => Energetics <=

    Nuclear Repulsion Energy =            206.2349268025168953
    One-Electron Energy =                -741.0317349881298696
    Two-Electron Energy =                 288.0728628192773613
    Total Energy =                       -246.7239453663355562

  Dipole Moment: [D]
     X:     1.6336      Y:     1.6554      Z:     0.2538     Total:     2.3396

    SAPT Results
  --------------------------------------------------------------------------------------------------------
    Electrostatics                 -0.55713296 [mEh]      -0.34960621 [kcal/mol]      -1.46275238 [kJ/mol]
      Elst10,r                     -0.59035360 [mEh]      -0.37045248 [kcal/mol]      -1.54997318 [kJ/mol]
      Elst12,r                      0.03322065 [mEh]       0.02084627 [kcal/mol]       0.08722080 [kJ/mol]

    Exchange                        0.01261226 [mEh]       0.00791431 [kcal/mol]       0.03311348 [kJ/mol]
      Exch10                        0.01015145 [mEh]       0.00637013 [kcal/mol]       0.02665262 [kJ/mol]
      Exch10(S^2)                   0.01015133 [mEh]       0.00637005 [kcal/mol]       0.02665231 [kJ/mol]
      Exch11(S^2)                  -0.00014163 [mEh]      -0.00008887 [kcal/mol]      -0.00037184 [kJ/mol]
      Exch12(S^2)                   0.00260244 [mEh]       0.00163306 [kcal/mol]       0.00683271 [kJ/mol]

    Induction                      -0.02908232 [mEh]      -0.01824943 [kcal/mol]      -0.07635563 [kJ/mol]
      Ind20,r                      -0.02934464 [mEh]      -0.01841404 [kcal/mol]      -0.07704433 [kJ/mol]
      Ind22                         0.00090887 [mEh]       0.00057032 [kcal/mol]       0.00238623 [kJ/mol]
      Exch-Ind20,r                  0.00169808 [mEh]       0.00106556 [kcal/mol]       0.00445830 [kJ/mol]
      Exch-Ind22                   -0.00005259 [mEh]      -0.00003300 [kcal/mol]      -0.00013808 [kJ/mol]
      delta HF,r (2)               -0.00229204 [mEh]      -0.00143827 [kcal/mol]      -0.00601774 [kJ/mol]

    Dispersion                     -0.43977765 [mEh]      -0.27596464 [kcal/mol]      -1.15463606 [kJ/mol]
      Disp20                       -0.46670963 [mEh]      -0.29286471 [kcal/mol]      -1.22534596 [kJ/mol]
      Disp21                        0.10762983 [mEh]       0.06753874 [kcal/mol]       0.28258208 [kJ/mol]
      Disp22 (SDQ)                  0.00347976 [mEh]       0.00218358 [kcal/mol]       0.00913611 [kJ/mol]
      Disp22 (T)                   -0.08390907 [mEh]      -0.05265373 [kcal/mol]      -0.22030322 [kJ/mol]
      Est. Disp22 (T)              -0.08625332 [mEh]      -0.05412477 [kcal/mol]      -0.22645806 [kJ/mol]
      Exch-Disp20                   0.00207571 [mEh]       0.00130253 [kcal/mol]       0.00544977 [kJ/mol]

  Total HF                         -0.61014076 [mEh]      -0.38286910 [kcal/mol]      -1.60192433 [kJ/mol]
  Total SAPT0                      -1.07477468 [mEh]      -0.67443129 [kcal/mol]      -2.82182052 [kJ/mol]
  Total SAPT2                      -1.03823694 [mEh]      -0.65150352 [kcal/mol]      -2.72589071 [kJ/mol]
  Total SAPT2+                     -1.01338067 [mEh]      -0.63590597 [kcal/mol]      -2.66063058 [kJ/mol]

  Special recipe for scaled SAPT0 (see Manual):
    Electrostatics sSAPT0          -0.59035360 [mEh]      -0.37045248 [kcal/mol]      -1.54997318 [kJ/mol]
    Exchange sSAPT0                 0.01015145 [mEh]       0.00637013 [kcal/mol]       0.02665262 [kJ/mol]
    Induction sSAPT0               -0.02993854 [mEh]      -0.01878672 [kcal/mol]      -0.07860362 [kJ/mol]
    Dispersion sSAPT0              -0.46463385 [mEh]      -0.29156214 [kcal/mol]      -1.21989600 [kJ/mol]
  Total sSAPT0                     -1.07477455 [mEh]      -0.67443121 [kcal/mol]      -2.82182018 [kJ/mol]
  --------------------------------------------------------------------------------------------------------

*** Psi4 exiting successfully. Buy a developer a beer!
