                               Psi4 1.4a2.dev224

  ==> Input File <==

--------------------------------------------------------------------------
#Generated by lconvert.py for sapt job

memory 20 GB

molecule  {
0 1
  N      -0.541060    0.029580   -0.208990
  H       0.055550   -0.786120   -0.130290
  H      -1.469670   -0.274710    0.053140
  C      -0.078800    1.042390    0.738460
  H      -0.720150    1.919410    0.671980
  H      -0.050760    0.723820    1.785510
  H       0.926430    1.356600    0.462000
--
0 1
  N       3.049670   -1.402520    0.079820
  C       3.388100   -0.590180   -0.931890
  H       2.845440   -0.734710   -1.857270
  C       4.359430    0.401960   -0.831520
  H       4.584280    1.026300   -1.684370
  C       5.020270    0.571500    0.380740
  H       5.778130    1.333740    0.497130
  C       4.680140   -0.263460    1.439870
  H       5.162730   -0.173000    2.402570
  C       3.696360   -1.228250    1.240680
  H       3.410270   -1.892000    2.047290
units angstrom
no_reorient
symmetry c1
}

set {
scf_type DF
basis aug-cc-pvdz
freeze_core True
guess SAD
}
energy('sapt2+')
--------------------------------------------------------------------------

  //              Dimer HF             //
    Molecular point group: c1
  Charge       = 0
  Multiplicity = 1
  Basis Set: AUG-CC-PVDZ
    Blend: AUG-CC-PVDZ
  Basis Set: (AUG-CC-PVDZ AUX)
    Blend: AUG-CC-PVDZ-JKFIT
  @DF-RHF Final Energy:  -341.95633804258574
    Total Energy =                       -341.9563380425857417
  //            Monomer A HF           //
    Molecular point group: c1
  Multiplicity = 1
  Basis Set: AUG-CC-PVDZ
    Blend: AUG-CC-PVDZ
  Basis Set: (AUG-CC-PVDZ AUX)
    Blend: AUG-CC-PVDZ-JKFIT
  @DF-RHF Final Energy:   -95.23069431656658
    Total Energy =                        -95.2306943165665842
  //            Monomer B HF           //
    Molecular point group: c1

    Geometry (in Angstrom), charge = 0, multiplicity = 1:

       Center              X                  Y                   Z               Mass
    ------------   -----------------  -----------------  -----------------  -----------------
      Gh(N)          -3.344337243862     0.188539610545    -0.453422741151    14.003074004430
      Gh(H)          -2.747727243862    -0.627160389455    -0.374722741151     1.007825032230
      Gh(H)          -4.272947243862    -0.115750389455    -0.191292741151     1.007825032230
      Gh(C)          -2.882077243862     1.201349610545     0.494027258849    12.000000000000
      Gh(H)          -3.523427243862     2.078369610545     0.427547258849     1.007825032230
      Gh(H)          -2.854037243862     0.882779610545     1.541077258849     1.007825032230
      Gh(H)          -1.876847243862     1.515559610545     0.217567258849     1.007825032230
         N            0.246392756138    -1.243560389455    -0.164612741151    14.003074004430
         C            0.584822756138    -0.431220389455    -1.176322741151    12.000000000000
         H            0.042162756138    -0.575750389455    -2.101702741151     1.007825032230
         C            1.556152756138     0.560919610545    -1.075952741151    12.000000000000
         H            1.781002756138     1.185259610545    -1.928802741151     1.007825032230
         C            2.216992756138     0.730459610545     0.136307258849    12.000000000000
         H            2.974852756138     1.492699610545     0.252697258849     1.007825032230
         C            1.876862756138    -0.104500389455     1.195437258849    12.000000000000
         H            2.359452756138    -0.014040389455     2.158137258849     1.007825032230
         C            0.893082756138    -1.069290389455     0.996247258849    12.000000000000
         H            0.606992756138    -1.733040389455     1.802857258849     1.007825032230

  Charge       = 0
  Multiplicity = 1
  Basis Set: AUG-CC-PVDZ
    Blend: AUG-CC-PVDZ
  Basis Set: (AUG-CC-PVDZ AUX)
    Blend: AUG-CC-PVDZ-JKFIT

    Orbital Energies [Eh]
    ---------------------

    Doubly Occupied:

       1A    -15.575707     2A    -11.281939     3A    -11.281918
       4A    -11.266712     5A    -11.248785     6A    -11.248719
       7A     -1.259938     8A     -1.092763     9A     -1.036742
      10A     -0.861494    11A     -0.858112    12A     -0.723066
      13A     -0.661636    14A     -0.655373    15A     -0.599429
      16A     -0.577787    17A     -0.540983    18A     -0.520396
      19A     -0.419193    20A     -0.383605    21A     -0.347929

  @DF-RHF Final Energy:  -246.72413734664053

   => Energetics <=

    Nuclear Repulsion Energy =            206.2349197195804891
    One-Electron Energy =                -741.0336649374050921
    Two-Electron Energy =                 288.0746078711840710
    Total Energy =                       -246.7241373466405321

  Dipole Moment: [D]
     X:     1.6337      Y:     1.6548      Z:     0.2545     Total:     2.3392

    SAPT Results
  --------------------------------------------------------------------------------------------------------
    Electrostatics                 -2.11122890 [mEh]      -1.32481614 [kcal/mol]      -5.54303072 [kJ/mol]
      Elst10,r                     -2.17469044 [mEh]      -1.36463885 [kcal/mol]      -5.70964897 [kJ/mol]
      Elst12,r                      0.06346154 [mEh]       0.03982272 [kcal/mol]       0.16661825 [kJ/mol]

    Exchange                        1.11612091 [mEh]       0.70037645 [kcal/mol]       2.93037506 [kJ/mol]
      Exch10                        0.95508382 [mEh]       0.59932415 [kcal/mol]       2.50757222 [kJ/mol]
      Exch10(S^2)                   0.95452791 [mEh]       0.59897530 [kcal/mol]       2.50611267 [kJ/mol]
      Exch11(S^2)                   0.00572063 [mEh]       0.00358975 [kcal/mol]       0.01501952 [kJ/mol]
      Exch12(S^2)                   0.15531646 [mEh]       0.09746255 [kcal/mol]       0.40778331 [kJ/mol]

    Induction                      -0.30433283 [mEh]      -0.19097174 [kcal/mol]      -0.79902574 [kJ/mol]
      Ind20,r                      -0.38554879 [mEh]      -0.24193552 [kcal/mol]      -1.01225820 [kJ/mol]
      Ind22                        -0.03393211 [mEh]      -0.02129272 [kcal/mol]      -0.08908874 [kJ/mol]
      Exch-Ind20,r                  0.18602492 [mEh]       0.11673240 [kcal/mol]       0.48840836 [kJ/mol]
      Exch-Ind22                    0.01637203 [mEh]       0.01027361 [kcal/mol]       0.04298477 [kJ/mol]
      delta HF,r (2)               -0.08724889 [mEh]      -0.05474950 [kcal/mol]      -0.22907193 [kJ/mol]

    Dispersion                     -2.62550571 [mEh]      -1.64752970 [kcal/mol]      -6.89326428 [kJ/mol]
      Disp20                       -2.81604521 [mEh]      -1.76709505 [kcal/mol]      -7.39352568 [kJ/mol]
      Disp21                        0.53896795 [mEh]       0.33820749 [kcal/mol]       1.41506016 [kJ/mol]
      Disp22 (SDQ)                  0.02527284 [mEh]       0.01585894 [kcal/mol]       0.06635382 [kJ/mol]
      Disp22 (T)                   -0.47862430 [mEh]      -0.30034128 [kcal/mol]      -1.25662793 [kJ/mol]
      Est. Disp22 (T)              -0.50728129 [mEh]      -0.31832381 [kcal/mol]      -1.33186683 [kJ/mol]
      Exch-Disp20                   0.13358000 [mEh]       0.08382272 [kcal/mol]       0.35071425 [kJ/mol]

  Total HF                         -1.50637938 [mEh]      -0.94526733 [kcal/mol]      -3.95499851 [kJ/mol]
  Total SAPT0                      -4.18884458 [mEh]      -2.62853966 [kcal/mol]     -10.99780994 [kJ/mol]
  Total SAPT2                      -3.98190602 [mEh]      -2.49868375 [kcal/mol]     -10.45449283 [kJ/mol]
  Total SAPT2+                     -3.92494653 [mEh]      -2.46294113 [kcal/mol]     -10.30494568 [kJ/mol]

  Special recipe for scaled SAPT0 (see Manual):
    Electrostatics sSAPT0          -2.17469044 [mEh]      -1.36463885 [kcal/mol]      -5.70964897 [kJ/mol]
    Exchange sSAPT0                 0.95508382 [mEh]       0.59932415 [kcal/mol]       2.50757222 [kJ/mol]
    Induction sSAPT0               -0.28644755 [mEh]      -0.17974855 [kcal/mol]      -0.75206793 [kJ/mol]
    Dispersion sSAPT0              -2.68223168 [mEh]      -1.68312579 [kcal/mol]      -7.04219830 [kJ/mol]
  Total sSAPT0                     -4.18828585 [mEh]      -2.62818905 [kcal/mol]     -10.99634298 [kJ/mol]
  --------------------------------------------------------------------------------------------------------

*** Psi4 exiting successfully. Buy a developer a beer!
