                               Psi4 1.4a2.dev224

  ==> Input File <==

--------------------------------------------------------------------------
#Generated by lconvert.py for sapt job

memory 20 GB

molecule  {
0 1
  N      -0.541060    0.029580   -0.208990
  H       0.055550   -0.786120   -0.130290
  H      -1.469670   -0.274710    0.053140
  C      -0.078800    1.042390    0.738460
  H      -0.720150    1.919410    0.671980
  H      -0.050760    0.723820    1.785510
  H       0.926430    1.356600    0.462000
--
0 1
  N       3.740590   -1.544760    0.128310
  C       4.079030   -0.732420   -0.883400
  H       3.536360   -0.876960   -1.808780
  C       5.050360    0.259720   -0.783040
  H       5.275210    0.884060   -1.635890
  C       5.711200    0.429260    0.429230
  H       6.469050    1.191500    0.545610
  C       5.371060   -0.405700    1.488350
  H       5.853650   -0.315240    2.451050
  C       4.387280   -1.370490    1.289170
  H       4.101200   -2.034240    2.095780
units angstrom
no_reorient
symmetry c1
}

set {
scf_type DF
basis aug-cc-pvdz
freeze_core True
guess SAD
}
energy('sapt2+')
--------------------------------------------------------------------------

  //              Dimer HF             //
    Molecular point group: c1
  Charge       = 0
  Multiplicity = 1
  Basis Set: AUG-CC-PVDZ
    Blend: AUG-CC-PVDZ
  Basis Set: (AUG-CC-PVDZ AUX)
    Blend: AUG-CC-PVDZ-JKFIT
  @DF-RHF Final Energy:  -341.95564530552366
    Total Energy =                       -341.9556453055236602
  //            Monomer A HF           //
    Molecular point group: c1
  Multiplicity = 1
  Basis Set: AUG-CC-PVDZ
    Blend: AUG-CC-PVDZ
  Basis Set: (AUG-CC-PVDZ AUX)
    Blend: AUG-CC-PVDZ-JKFIT
  @DF-RHF Final Energy:   -95.23061297641455
    Total Energy =                        -95.2306129764145481
  //            Monomer B HF           //
    Molecular point group: c1

    Geometry (in Angstrom), charge = 0, multiplicity = 1:

       Center              X                  Y                   Z               Mass
    ------------   -----------------  -----------------  -----------------  -----------------
      Gh(N)          -3.840431306525     0.290670090959    -0.488236811636    14.003074004430
      Gh(H)          -3.243821306525    -0.525029909041    -0.409536811636     1.007825032230
      Gh(H)          -4.769041306525    -0.013619909041    -0.226106811636     1.007825032230
      Gh(C)          -3.378171306525     1.303480090959     0.459213188364    12.000000000000
      Gh(H)          -4.019521306525     2.180500090959     0.392733188364     1.007825032230
      Gh(H)          -3.350131306525     0.984910090959     1.506263188364     1.007825032230
      Gh(H)          -2.372941306525     1.617690090959     0.182753188364     1.007825032230
         N            0.441218693475    -1.283669909041    -0.150936811636    14.003074004430
         C            0.779658693475    -0.471329909041    -1.162646811636    12.000000000000
         H            0.236988693475    -0.615869909041    -2.088026811636     1.007825032230
         C            1.750988693475     0.520810090959    -1.062286811636    12.000000000000
         H            1.975838693475     1.145150090959    -1.915136811636     1.007825032230
         C            2.411828693475     0.690350090959     0.149983188364    12.000000000000
         H            3.169678693475     1.452590090959     0.266363188364     1.007825032230
         C            2.071688693475    -0.144609909041     1.209103188364    12.000000000000
         H            2.554278693475    -0.054149909041     2.171803188364     1.007825032230
         C            1.087908693475    -1.109399909041     1.009923188364    12.000000000000
         H            0.801828693475    -1.773149909041     1.816533188364     1.007825032230

  Charge       = 0
  Multiplicity = 1
  Basis Set: AUG-CC-PVDZ
    Blend: AUG-CC-PVDZ
  Basis Set: (AUG-CC-PVDZ AUX)
    Blend: AUG-CC-PVDZ-JKFIT

    Orbital Energies [Eh]
    ---------------------

    Doubly Occupied:

       1A    -15.575705     2A    -11.281961     3A    -11.281929
       4A    -11.266716     5A    -11.248788     6A    -11.248733
       7A     -1.259966     8A     -1.092792     9A     -1.036773
      10A     -0.861525    11A     -0.858141    12A     -0.723098
      13A     -0.661666    14A     -0.655396    15A     -0.599463
      16A     -0.577820    17A     -0.540984    18A     -0.520425
      19A     -0.419216    20A     -0.383624    21A     -0.347944

  @DF-RHF Final Energy:  -246.72402403008590

   => Energetics <=

    Nuclear Repulsion Energy =            206.2348582823161962
    One-Electron Energy =                -741.0324383837662481
    Two-Electron Energy =                 288.0735560713641803
    Total Energy =                       -246.7240240300859000

  Dipole Moment: [D]
     X:     1.6339      Y:     1.6553      Z:     0.2539     Total:     2.3397

    SAPT Results
  --------------------------------------------------------------------------------------------------------
    Electrostatics                 -0.97447604 [mEh]      -0.61149295 [kcal/mol]      -2.55848650 [kJ/mol]
      Elst10,r                     -1.02751921 [mEh]      -0.64477804 [kcal/mol]      -2.69775133 [kJ/mol]
      Elst12,r                      0.05304317 [mEh]       0.03328509 [kcal/mol]       0.13926482 [kJ/mol]

    Exchange                        0.11922406 [mEh]       0.07481422 [kcal/mol]       0.31302271 [kJ/mol]
      Exch10                        0.09829212 [mEh]       0.06167923 [kcal/mol]       0.25806591 [kJ/mol]
      Exch10(S^2)                   0.09828397 [mEh]       0.06167412 [kcal/mol]       0.25804453 [kJ/mol]
      Exch11(S^2)                  -0.00037039 [mEh]      -0.00023242 [kcal/mol]      -0.00097246 [kJ/mol]
      Exch12(S^2)                   0.02130233 [mEh]       0.01336741 [kcal/mol]       0.05592926 [kJ/mol]

    Induction                      -0.08033021 [mEh]      -0.05040797 [kcal/mol]      -0.21090695 [kJ/mol]
      Ind20,r                      -0.08414551 [mEh]      -0.05280210 [kcal/mol]      -0.22092401 [kJ/mol]
      Ind22                        -0.00157506 [mEh]      -0.00098837 [kcal/mol]      -0.00413533 [kJ/mol]
      Exch-Ind20,r                  0.01692317 [mEh]       0.01061945 [kcal/mol]       0.04443177 [kJ/mol]
      Exch-Ind22                    0.00031677 [mEh]       0.00019878 [kcal/mol]       0.00083169 [kJ/mol]
      delta HF,r (2)               -0.01184958 [mEh]      -0.00743573 [kcal/mol]      -0.03111108 [kJ/mol]

    Dispersion                     -1.01471261 [mEh]      -0.63674177 [kcal/mol]      -2.66412758 [kJ/mol]
      Disp20                       -1.07173757 [mEh]      -0.67252548 [kcal/mol]      -2.81384660 [kJ/mol]
      Disp21                        0.22783503 [mEh]       0.14296864 [kcal/mol]       0.59818078 [kJ/mol]
      Disp22 (SDQ)                  0.00880113 [mEh]       0.00552279 [kcal/mol]       0.02310737 [kJ/mol]
      Disp22 (T)                   -0.18897891 [mEh]      -0.11858606 [kcal/mol]      -0.49616407 [kJ/mol]
      Est. Disp22 (T)              -0.19663914 [mEh]      -0.12339293 [kcal/mol]      -0.51627600 [kJ/mol]
      Exch-Disp20                   0.01702795 [mEh]       0.01068520 [kcal/mol]       0.04470687 [kJ/mol]

  Total HF                         -1.00829902 [mEh]      -0.63271719 [kcal/mol]      -2.64728872 [kJ/mol]
  Total SAPT0                      -2.06300864 [mEh]      -1.29455747 [kcal/mol]      -5.41642845 [kJ/mol]
  Total SAPT2                      -1.99029183 [mEh]      -1.24892698 [kcal/mol]      -5.22551047 [kJ/mol]
  Total SAPT2+                     -1.95029481 [mEh]      -1.22382847 [kcal/mol]      -5.12049832 [kJ/mol]

  Special recipe for scaled SAPT0 (see Manual):
    Electrostatics sSAPT0          -1.02751921 [mEh]      -0.64477804 [kcal/mol]      -2.69775133 [kJ/mol]
    Exchange sSAPT0                 0.09829212 [mEh]       0.06167923 [kcal/mol]       0.25806591 [kJ/mol]
    Induction sSAPT0               -0.07906772 [mEh]      -0.04961574 [kcal/mol]      -0.20759226 [kJ/mol]
    Dispersion sSAPT0              -1.05470539 [mEh]      -0.66183762 [kcal/mol]      -2.76912862 [kJ/mol]
  Total sSAPT0                     -2.06300020 [mEh]      -1.29455217 [kcal/mol]      -5.41640629 [kJ/mol]
  --------------------------------------------------------------------------------------------------------

*** Psi4 exiting successfully. Buy a developer a beer!
