                               Psi4 1.4a2.dev224

  ==> Input File <==

--------------------------------------------------------------------------
#Generated by lconvert.py for sapt job

memory 20 GB

molecule  {
0 1
  C       1.175590   -0.145800    0.231610
  S      -0.147760    0.408100   -0.884360
  H      -0.442200    1.535650   -0.231010
  H       0.791450   -0.327970    1.229660
  H       1.542170   -1.081880   -0.179480
  H       1.988250    0.572530    0.252180
--
0 1
  O      -2.240910   -1.805410    1.995610
  H      -2.150920   -1.366690    1.141460
  H      -3.124560   -2.176530    1.971080
units angstrom
no_reorient
symmetry c1
}

set {
scf_type DF
basis aug-cc-pvdz
freeze_core True
guess SAD
}
energy('sapt2+')
--------------------------------------------------------------------------

  //              Dimer HF             //
    Molecular point group: c1
  Charge       = 0
  Multiplicity = 1
  Basis Set: AUG-CC-PVDZ
    Blend: AUG-CC-PVDZ
  Basis Set: (AUG-CC-PVDZ AUX)
    Blend: AUG-CC-PVDZ-JKFIT
  @DF-RHF Final Energy:  -513.77431257884075
    Total Energy =                       -513.7743125788407497
  //            Monomer A HF           //
    Molecular point group: c1
  Multiplicity = 1
  Basis Set: AUG-CC-PVDZ
    Blend: AUG-CC-PVDZ
  Basis Set: (AUG-CC-PVDZ AUX)
    Blend: AUG-CC-PVDZ-JKFIT
  @DF-RHF Final Energy:  -437.73035002776891
    Total Energy =                       -437.7303500277689068
  //            Monomer B HF           //
    Molecular point group: c1

    Geometry (in Angstrom), charge = 0, multiplicity = 1:

       Center              X                  Y                   Z               Mass
    ------------   -----------------  -----------------  -----------------  -----------------
      Gh(C)           1.597728283353     0.163927447806     0.070420705420    12.000000000000
      Gh(S)           0.274378283353     0.717827447806    -1.045549294580    31.972071174400
      Gh(H)          -0.020061716647     1.845377447806    -0.392199294580     1.007825032230
      Gh(H)           1.213588283353    -0.018242552194     1.068470705420     1.007825032230
      Gh(H)           1.964308283353    -0.772152552194    -0.340669294580     1.007825032230
      Gh(H)           2.410388283353     0.882257447806     0.090990705420     1.007825032230
         O           -1.818771716647    -1.495682552194     1.834420705420    15.994914619570
         H           -1.728781716647    -1.056962552194     0.980270705420     1.007825032230
         H           -2.702421716647    -1.866802552194     1.809890705420     1.007825032230

  Charge       = 0
  Multiplicity = 1
  Basis Set: AUG-CC-PVDZ
    Blend: AUG-CC-PVDZ
  Basis Set: (AUG-CC-PVDZ AUX)
    Blend: AUG-CC-PVDZ-JKFIT

    Orbital Energies [Eh]
    ---------------------

    Doubly Occupied:

       1A    -20.578229     2A     -1.354921     3A     -0.715616
       4A     -0.586071     5A     -0.509237

  @DF-RHF Final Energy:   -76.04118502553534

   => Energetics <=

    Nuclear Repulsion Energy =              9.1546744546936498
    One-Electron Energy =                -122.9035713528355558
    Two-Electron Energy =                  37.7077118726065734
    Total Energy =                        -76.0411850255353272

  Dipole Moment: [D]
     X:    -1.3491      Y:     0.1136      Z:    -1.4917     Total:     2.0145

    SAPT Results
  --------------------------------------------------------------------------------------------------------
    Electrostatics                 -2.81612291 [mEh]      -1.76714380 [kcal/mol]      -7.39372967 [kJ/mol]
      Elst10,r                     -3.00916669 [mEh]      -1.88828060 [kcal/mol]      -7.90056604 [kJ/mol]
      Elst12,r                      0.19304378 [mEh]       0.12113680 [kcal/mol]       0.50683637 [kJ/mol]

    Exchange                        0.71045508 [mEh]       0.44581729 [kcal/mol]       1.86529954 [kJ/mol]
      Exch10                        0.60327084 [mEh]       0.37855817 [kcal/mol]       1.58388737 [kJ/mol]
      Exch10(S^2)                   0.60295828 [mEh]       0.37836203 [kcal/mol]       1.58306674 [kJ/mol]
      Exch11(S^2)                   0.01755846 [mEh]       0.01101810 [kcal/mol]       0.04609973 [kJ/mol]
      Exch12(S^2)                   0.08962578 [mEh]       0.05624103 [kcal/mol]       0.23531245 [kJ/mol]

    Induction                      -0.38866550 [mEh]      -0.24389128 [kcal/mol]      -1.02044113 [kJ/mol]
      Ind20,r                      -0.47538322 [mEh]      -0.29830747 [kcal/mol]      -1.24811847 [kJ/mol]
      Ind22                        -0.02776724 [mEh]      -0.01742421 [kcal/mol]      -0.07290288 [kJ/mol]
      Exch-Ind20,r                  0.18372518 [mEh]       0.11528929 [kcal/mol]       0.48237040 [kJ/mol]
      Exch-Ind22                    0.01073143 [mEh]       0.00673407 [kcal/mol]       0.02817536 [kJ/mol]
      delta HF,r (2)               -0.07997166 [mEh]      -0.05018297 [kcal/mol]      -0.20996555 [kJ/mol]

    Dispersion                     -1.06295827 [mEh]      -0.66701638 [kcal/mol]      -2.79079655 [kJ/mol]
      Disp20                       -1.03080313 [mEh]      -0.64683873 [kcal/mol]      -2.70637326 [kJ/mol]
      Disp21                        0.07728214 [mEh]       0.04849528 [kcal/mol]       0.20290424 [kJ/mol]
      Disp22 (SDQ)                 -0.00408469 [mEh]      -0.00256318 [kcal/mol]      -0.01072435 [kJ/mol]
      Disp22 (T)                   -0.14965651 [mEh]      -0.09391088 [kcal/mol]      -0.39292310 [kJ/mol]
      Est. Disp22 (T)              -0.16119524 [mEh]      -0.10115154 [kcal/mol]      -0.42321804 [kJ/mol]
      Exch-Disp20                   0.05584265 [mEh]       0.03504179 [kcal/mol]       0.14661485 [kJ/mol]

  Total HF                         -2.77752554 [mEh]      -1.74292359 [kcal/mol]      -7.29239229 [kJ/mol]
  Total SAPT0                      -3.75248603 [mEh]      -2.35472053 [kcal/mol]      -9.85215070 [kJ/mol]
  Total SAPT2                      -3.46929382 [mEh]      -2.17701474 [kcal/mol]      -9.10862967 [kJ/mol]
  Total SAPT2+                     -3.55729160 [mEh]      -2.23223418 [kcal/mol]      -9.33966781 [kJ/mol]

  Special recipe for scaled SAPT0 (see Manual):
    Electrostatics sSAPT0          -3.00916669 [mEh]      -1.88828060 [kcal/mol]      -7.90056604 [kJ/mol]
    Exchange sSAPT0                 0.60327084 [mEh]       0.37855817 [kcal/mol]       1.58388737 [kJ/mol]
    Induction sSAPT0               -0.37134382 [mEh]      -0.23302177 [kcal/mol]      -0.97496308 [kJ/mol]
    Dispersion sSAPT0              -0.97487360 [mEh]      -0.61174242 [kcal/mol]      -2.55953029 [kJ/mol]
  Total sSAPT0                     -3.75211327 [mEh]      -2.35448663 [kcal/mol]      -9.85117204 [kJ/mol]
  --------------------------------------------------------------------------------------------------------

*** Psi4 exiting successfully. Buy a developer a beer!
